/*--------------------------------*- C++ -*----------------------------------*\
  =========                 |
  \\      /  F ield         | OpenFOAM: The Open Source CFD Toolbox
   \\    /   O peration     | Website:  https://openfoam.org
    \\  /    A nd           | Version:  9
     \\/     M anipulation  |
\*---------------------------------------------------------------------------*/
FoamFile
{
    format      ascii;
    class       surfaceScalarField;
    location    "0.12";
    object      phi;
}
// * * * * * * * * * * * * * * * * * * * * * * * * * * * * * * * * * * * * * //

dimensions      [0 3 -1 0 0 0 0];

internalField   nonuniform List<scalar> 
9850
(
2.03844e-06
2.01757e-05
2.30669e-06
2.10349e-05
1.88361e-06
3.09202e-06
1.52268e-06
3.39508e-06
1.79932e-06
2.10664e-05
1.87123e-06
2.04081e-05
1.91296e-06
2.00241e-05
2.13743e-06
1.76151e-05
1.67551e-06
4.02786e-06
1.87623e-06
1.76076e-05
1.90327e-06
1.89583e-05
1.94319e-06
1.8406e-05
1.98751e-06
1.89118e-05
2.05551e-06
2.011e-05
2.28113e-06
2.13737e-05
1.77764e-06
3.27624e-06
1.51955e-06
3.45435e-06
1.77247e-06
2.11677e-05
1.8312e-06
1.97976e-05
1.8667e-06
1.8306e-05
1.88635e-06
1.41667e-05
1.90346e-06
1.29691e-05
1.92887e-06
1.1963e-05
1.994e-06
1.10161e-05
2.17728e-06
9.50845e-06
2.25237e-06
5.42746e-06
1.42559e-06
2.04706e-06
1.67098e-06
5.91568e-06
1.81773e-06
7.25891e-06
1.87394e-06
7.15421e-06
1.8962e-06
6.80578e-06
1.90558e-06
6.46074e-06
1.90983e-06
6.14907e-06
1.91194e-06
5.86688e-06
1.91311e-06
5.60663e-06
1.91385e-06
5.3626e-06
1.91435e-06
5.13119e-06
1.91472e-06
4.91027e-06
1.91501e-06
4.69857e-06
1.91525e-06
4.49529e-06
1.91544e-06
4.29993e-06
1.9156e-06
4.11212e-06
1.91574e-06
3.93158e-06
1.91585e-06
3.75808e-06
1.91595e-06
3.59141e-06
1.91602e-06
3.43137e-06
1.91608e-06
3.27785e-06
1.91613e-06
3.13079e-06
1.91617e-06
2.99015e-06
2.85578e-06
2.25745e-06
1.99771e-05
2.58881e-06
2.07036e-05
1.74547e-06
3.93536e-06
1.13595e-06
4.0046e-06
1.58105e-06
2.06213e-05
1.78361e-06
2.02056e-05
1.94132e-06
1.98664e-05
2.2529e-06
1.73035e-05
1.50527e-06
4.77548e-06
1.77725e-06
1.73356e-05
1.88479e-06
1.88507e-05
1.99945e-06
1.82913e-05
2.11582e-06
1.87954e-05
2.31335e-06
1.99125e-05
2.66225e-06
2.10248e-05
1.76622e-06
4.17227e-06
1.12642e-06
4.09415e-06
1.50553e-06
2.07886e-05
1.6756e-06
1.96275e-05
1.77217e-06
1.82094e-05
1.83286e-06
1.4106e-05
1.88732e-06
1.29146e-05
1.96175e-06
1.18886e-05
2.10399e-06
1.08738e-05
2.37469e-06
9.23775e-06
2.28333e-06
5.51882e-06
1.32682e-06
3.00358e-06
1.44293e-06
5.79957e-06
1.6571e-06
7.04473e-06
1.7762e-06
7.03511e-06
1.83707e-06
6.74491e-06
1.86883e-06
6.42898e-06
1.88607e-06
6.13184e-06
1.89589e-06
5.85705e-06
1.90183e-06
5.60069e-06
1.90564e-06
5.35879e-06
1.90822e-06
5.12861e-06
1.91007e-06
4.90843e-06
1.91143e-06
4.6972e-06
1.91247e-06
4.49424e-06
1.91329e-06
4.29911e-06
1.91393e-06
4.11147e-06
1.91444e-06
3.93107e-06
1.91485e-06
3.75767e-06
1.91518e-06
3.59108e-06
1.91542e-06
3.43112e-06
1.9156e-06
3.27768e-06
1.91571e-06
3.13069e-06
1.91578e-06
2.99008e-06
2.85569e-06
2.40866e-06
1.97182e-05
2.74158e-06
2.03707e-05
1.70928e-06
4.96765e-06
9.86405e-07
4.72748e-06
1.45923e-06
2.01485e-05
1.71303e-06
1.99518e-05
1.9603e-06
1.96191e-05
2.29854e-06
1.69652e-05
1.42048e-06
5.65354e-06
1.69225e-06
1.70639e-05
1.8761e-06
1.86669e-05
2.04586e-06
1.81215e-05
2.21945e-06
1.86218e-05
2.47486e-06
1.96571e-05
2.86643e-06
2.06332e-05
1.85523e-06
5.18347e-06
9.47099e-07
5.00228e-06
1.32895e-06
2.04067e-05
1.54933e-06
1.94072e-05
1.69456e-06
1.80642e-05
1.78676e-06
1.40138e-05
1.86721e-06
1.28342e-05
1.96317e-06
1.17926e-05
2.12125e-06
1.07158e-05
2.38037e-06
8.97863e-06
2.21609e-06
5.68311e-06
1.36824e-06
3.85142e-06
1.40886e-06
5.75896e-06
1.60482e-06
6.84877e-06
1.72673e-06
6.91319e-06
1.79647e-06
6.67518e-06
1.83796e-06
6.38749e-06
1.86325e-06
6.10655e-06
1.8791e-06
5.84121e-06
1.88939e-06
5.5904e-06
1.89634e-06
5.35184e-06
1.9012e-06
5.12375e-06
1.90471e-06
4.90491e-06
1.90733e-06
4.69459e-06
1.90931e-06
4.49226e-06
1.91085e-06
4.29758e-06
1.91205e-06
4.11027e-06
1.91299e-06
3.93013e-06
1.91373e-06
3.75694e-06
1.9143e-06
3.59051e-06
1.91473e-06
3.4307e-06
1.91501e-06
3.27739e-06
1.91517e-06
3.13053e-06
1.91524e-06
2.99001e-06
2.85565e-06
2.52119e-06
1.94329e-05
2.83944e-06
2.00524e-05
1.78556e-06
6.02153e-06
9.83899e-07
5.52914e-06
1.41448e-06
1.97179e-05
1.67219e-06
1.96941e-05
1.96416e-06
1.93272e-05
2.29155e-06
1.66378e-05
1.39764e-06
6.54745e-06
1.65328e-06
1.68082e-05
1.88634e-06
1.84338e-05
2.07745e-06
1.79304e-05
2.28275e-06
1.84165e-05
2.55531e-06
1.93845e-05
2.92996e-06
2.02586e-05
1.93176e-06
6.18167e-06
9.03011e-07
6.03102e-06
1.24136e-06
2.00684e-05
1.4743e-06
1.91742e-05
1.64272e-06
1.78957e-05
1.7491e-06
1.39074e-05
1.84048e-06
1.27428e-05
1.94378e-06
1.16893e-05
2.10328e-06
1.05563e-05
2.31829e-06
8.76363e-06
2.1203e-06
5.88109e-06
1.46911e-06
4.50261e-06
1.45262e-06
5.77546e-06
1.60894e-06
6.69245e-06
1.71777e-06
6.80436e-06
1.7832e-06
6.60974e-06
1.82406e-06
6.34663e-06
1.85053e-06
6.08008e-06
1.86826e-06
5.82347e-06
1.88052e-06
5.57814e-06
1.88923e-06
5.34313e-06
1.89559e-06
5.11739e-06
1.90033e-06
4.90017e-06
1.90393e-06
4.69098e-06
1.90672e-06
4.48947e-06
1.90889e-06
4.2954e-06
1.9106e-06
4.10857e-06
1.91194e-06
3.92879e-06
1.91299e-06
3.75588e-06
1.9138e-06
3.5897e-06
1.91441e-06
3.43009e-06
1.91483e-06
3.27697e-06
1.91508e-06
3.13028e-06
1.91521e-06
2.98988e-06
2.85561e-06
2.58974e-06
1.91525e-05
2.88495e-06
1.97572e-05
1.91216e-06
6.99431e-06
1.06435e-06
6.37695e-06
1.41951e-06
1.93627e-05
1.65517e-06
1.94584e-05
1.95607e-06
1.90263e-05
2.2564e-06
1.63375e-05
1.42066e-06
7.38318e-06
1.65418e-06
1.65747e-05
1.90445e-06
1.81836e-05
2.09529e-06
1.77396e-05
2.31226e-06
1.81996e-05
2.57206e-06
1.91247e-05
2.90489e-06
1.99257e-05
1.96996e-06
7.11661e-06
9.41043e-07
7.05993e-06
1.22308e-06
1.97863e-05
1.44482e-06
1.89525e-05
1.61554e-06
1.7725e-05
1.72381e-06
1.37991e-05
1.81837e-06
1.26482e-05
1.92452e-06
1.15832e-05
2.07822e-06
1.04026e-05
2.24286e-06
8.59898e-06
2.04456e-06
6.07939e-06
1.5757e-06
4.97148e-06
1.5201e-06
5.83106e-06
1.63168e-06
6.58086e-06
1.72373e-06
6.71231e-06
1.78266e-06
6.55081e-06
1.82056e-06
6.30874e-06
1.84587e-06
6.05476e-06
1.86346e-06
5.80588e-06
1.8761e-06
5.5655e-06
1.88543e-06
5.3338e-06
1.89247e-06
5.11035e-06
1.89788e-06
4.89477e-06
1.90209e-06
4.68677e-06
1.9054e-06
4.48616e-06
1.90802e-06
4.29278e-06
1.91011e-06
4.10648e-06
1.91176e-06
3.92713e-06
1.91307e-06
3.75458e-06
1.91408e-06
3.58868e-06
1.91485e-06
3.42933e-06
1.9154e-06
3.27642e-06
1.91576e-06
3.12992e-06
1.91595e-06
2.98969e-06
2.85553e-06
2.61299e-06
1.89007e-05
2.88332e-06
1.94869e-05
2.01535e-06
7.86228e-06
1.1752e-06
7.2171e-06
1.44509e-06
1.90928e-05
1.64982e-06
1.92537e-05
1.93608e-06
1.874e-05
2.21171e-06
1.60619e-05
1.46936e-06
8.12553e-06
1.68094e-06
1.63632e-05
1.92966e-06
1.79348e-05
2.10458e-06
1.75647e-05
2.31726e-06
1.79869e-05
2.54873e-06
1.88933e-05
2.83896e-06
1.96355e-05
1.9878e-06
7.96777e-06
1.01955e-06
8.02819e-06
1.24842e-06
1.95575e-05
1.4484e-06
1.87525e-05
1.60781e-06
1.75656e-05
1.71179e-06
1.36952e-05
1.80543e-06
1.25546e-05
1.91022e-06
1.14784e-05
2.05296e-06
1.02598e-05
2.17624e-06
8.4757e-06
2.00025e-06
6.25538e-06
1.65818e-06
5.31355e-06
1.58783e-06
5.9014e-06
1.66176e-06
6.50694e-06
1.73615e-06
6.63792e-06
1.78754e-06
6.49942e-06
1.82192e-06
6.27435e-06
1.84563e-06
6.03106e-06
1.86256e-06
5.78895e-06
1.87504e-06
5.55303e-06
1.88447e-06
5.32437e-06
1.89175e-06
5.10307e-06
1.89746e-06
4.88906e-06
1.90198e-06
4.68225e-06
1.90559e-06
4.48255e-06
1.90849e-06
4.28988e-06
1.91082e-06
4.10416e-06
1.91268e-06
3.92527e-06
1.91417e-06
3.7531e-06
1.91533e-06
3.58752e-06
1.91621e-06
3.42844e-06
1.91684e-06
3.27579e-06
1.91726e-06
3.1295e-06
1.91751e-06
2.98945e-06
2.85544e-06
2.59608e-06
1.86928e-05
2.84672e-06
1.92362e-05
2.11224e-06
8.59676e-06
1.28421e-06
8.04513e-06
1.47271e-06
1.89043e-05
1.64535e-06
1.9081e-05
1.90507e-06
1.84803e-05
2.16183e-06
1.58051e-05
1.52685e-06
8.76051e-06
1.7207e-06
1.61693e-05
1.94975e-06
1.77058e-05
2.10848e-06
1.74059e-05
2.30457e-06
1.77908e-05
2.50224e-06
1.86956e-05
2.75368e-06
1.93841e-05
1.98396e-06
8.73748e-06
1.10893e-06
8.90322e-06
1.29679e-06
1.93696e-05
1.47238e-06
1.85769e-05
1.61415e-06
1.74238e-05
1.71085e-06
1.35985e-05
1.80064e-06
1.24648e-05
1.90142e-06
1.13776e-05
2.03184e-06
1.01294e-05
2.12637e-06
8.38116e-06
1.97765e-06
6.4041e-06
1.7177e-06
5.5735e-06
1.64541e-06
5.97369e-06
1.69327e-06
6.45907e-06
1.75268e-06
6.57851e-06
1.79661e-06
6.45549e-06
1.82711e-06
6.24386e-06
1.84878e-06
6.00939e-06
1.86467e-06
5.77305e-06
1.87666e-06
5.54104e-06
1.88591e-06
5.31512e-06
1.89317e-06
5.09581e-06
1.89895e-06
4.88328e-06
1.90359e-06
4.67761e-06
1.90734e-06
4.4788e-06
1.91038e-06
4.28684e-06
1.91283e-06
4.1017e-06
1.91482e-06
3.92329e-06
1.9164e-06
3.75151e-06
1.91764e-06
3.58628e-06
1.91859e-06
3.4275e-06
1.91927e-06
3.2751e-06
1.91973e-06
3.12904e-06
1.91999e-06
2.98918e-06
2.85535e-06
2.54758e-06
1.85348e-05
2.7819e-06
1.90019e-05
2.17244e-06
9.20623e-06
1.37217e-06
8.8454e-06
1.49379e-06
1.87827e-05
1.63636e-06
1.89385e-05
1.85688e-06
1.82598e-05
2.1082e-06
1.55538e-05
1.5816e-06
9.28711e-06
1.76398e-06
1.59869e-05
1.96896e-06
1.75008e-05
2.10935e-06
1.72656e-05
2.28008e-06
1.76201e-05
2.4434e-06
1.85323e-05
2.65811e-06
1.91694e-05
1.95997e-06
9.43562e-06
1.19598e-06
9.66721e-06
1.35575e-06
1.92098e-05
1.5072e-06
1.84255e-05
1.63072e-06
1.73003e-05
1.71886e-06
1.35103e-05
1.80307e-06
1.23806e-05
1.89859e-06
1.12821e-05
2.01744e-06
1.00106e-05
2.09143e-06
8.30717e-06
1.96657e-06
6.52896e-06
1.76229e-06
5.77778e-06
1.69271e-06
6.04327e-06
1.72311e-06
6.42867e-06
1.77087e-06
6.53076e-06
1.8085e-06
6.41786e-06
1.8354e-06
6.21697e-06
1.85492e-06
5.98987e-06
1.86953e-06
5.75844e-06
1.88076e-06
5.5298e-06
1.88958e-06
5.3063e-06
1.89662e-06
5.08877e-06
1.90229e-06
4.87761e-06
1.9069e-06
4.673e-06
1.91066e-06
4.47504e-06
1.91373e-06
4.28377e-06
1.91623e-06
4.0992e-06
1.91826e-06
3.92126e-06
1.91988e-06
3.74989e-06
1.92116e-06
3.58501e-06
1.92213e-06
3.42653e-06
1.92283e-06
3.2744e-06
1.9233e-06
3.12857e-06
1.92357e-06
2.98892e-06
2.85525e-06
2.47663e-06
1.84252e-05
2.69596e-06
1.87826e-05
2.18782e-06
9.71437e-06
1.4326e-06
9.60062e-06
1.5052e-06
1.87101e-05
1.62358e-06
1.88201e-05
1.81408e-06
1.80693e-05
2.056e-06
1.53119e-05
1.62767e-06
9.71544e-06
1.80329e-06
1.58113e-05
1.98473e-06
1.73194e-05
2.10796e-06
1.71423e-05
2.25028e-06
1.74777e-05
2.38147e-06
1.84011e-05
2.56183e-06
1.8989e-05
1.93109e-06
1.00664e-05
1.27842e-06
1.03199e-05
1.41972e-06
1.90685e-05
1.54788e-06
1.82973e-05
1.65526e-06
1.71929e-05
1.73461e-06
1.3431e-05
1.8127e-06
1.23025e-05
1.90265e-06
1.11921e-05
2.01023e-06
9.90298e-06
2.06784e-06
8.24957e-06
1.96191e-06
6.63488e-06
1.79737e-06
5.94233e-06
1.73257e-06
6.10806e-06
1.75098e-06
6.41027e-06
1.78947e-06
6.49227e-06
1.82189e-06
6.38543e-06
1.84574e-06
6.19312e-06
1.86332e-06
5.97228e-06
1.87666e-06
5.7451e-06
1.88705e-06
5.51941e-06
1.89532e-06
5.29803e-06
1.902e-06
5.0821e-06
1.90744e-06
4.87217e-06
1.91191e-06
4.66853e-06
1.91558e-06
4.47137e-06
1.9186e-06
4.28075e-06
1.92108e-06
4.09672e-06
1.92309e-06
3.91925e-06
1.92471e-06
3.74827e-06
1.92599e-06
3.58373e-06
1.92696e-06
3.42555e-06
1.92766e-06
3.27369e-06
1.92814e-06
3.1281e-06
1.92841e-06
2.98864e-06
2.85514e-06
2.39246e-06
1.83564e-05
2.59578e-06
1.85793e-05
2.16085e-06
1.01493e-05
1.4655e-06
1.0296e-05
1.50768e-06
1.86679e-05
1.60898e-06
1.87188e-05
1.78089e-06
1.78973e-05
2.00934e-06
1.50834e-05
1.66328e-06
1.00615e-05
1.83495e-06
1.56396e-05
1.99685e-06
1.71575e-05
2.1053e-06
1.70339e-05
2.22139e-06
1.73616e-05
2.32525e-06
1.82972e-05
2.47459e-06
1.88397e-05
1.90299e-06
1.0638e-05
1.35659e-06
1.08663e-05
1.48701e-06
1.89381e-05
1.59294e-06
1.81914e-05
1.68637e-06
1.70995e-05
1.75715e-06
1.33602e-05
1.8291e-06
1.22306e-05
1.91313e-06
1.11081e-05
2.00957e-06
9.80655e-06
2.05325e-06
8.20589e-06
1.96178e-06
6.72635e-06
1.8263e-06
6.07781e-06
1.76713e-06
6.16723e-06
1.77734e-06
6.40006e-06
1.80831e-06
6.4613e-06
1.83628e-06
6.35746e-06
1.85749e-06
6.17191e-06
1.87337e-06
5.9564e-06
1.88555e-06
5.73292e-06
1.89513e-06
5.50983e-06
1.90283e-06
5.29033e-06
1.9091e-06
5.07583e-06
1.91426e-06
4.86701e-06
1.91852e-06
4.66427e-06
1.92205e-06
4.46783e-06
1.92498e-06
4.27783e-06
1.92738e-06
4.09431e-06
1.92935e-06
3.91728e-06
1.93094e-06
3.74669e-06
1.9322e-06
3.58248e-06
1.93316e-06
3.42459e-06
1.93387e-06
3.27299e-06
1.93435e-06
3.12762e-06
1.93463e-06
2.98836e-06
2.85503e-06
2.30344e-06
1.83171e-05
2.48723e-06
1.83955e-05
2.09885e-06
1.05377e-05
1.47512e-06
1.09197e-05
1.50376e-06
1.86393e-05
1.59526e-06
1.86273e-05
1.75827e-06
1.77343e-05
1.96979e-06
1.48719e-05
1.68986e-06
1.03414e-05
1.8594e-06
1.54701e-05
2.00706e-06
1.70098e-05
2.10302e-06
1.69379e-05
2.19816e-06
1.72665e-05
2.28176e-06
1.82136e-05
2.40514e-06
1.87163e-05
1.88915e-06
1.11539e-05
1.43308e-06
1.13224e-05
1.55759e-06
1.88136e-05
1.64259e-06
1.81064e-05
1.7229e-06
1.70192e-05
1.78535e-06
1.32977e-05
1.85127e-06
1.21646e-05
1.92942e-06
1.103e-05
2.01457e-06
9.72139e-06
2.0462e-06
8.17426e-06
1.96556e-06
6.80699e-06
1.85153e-06
6.19184e-06
1.79784e-06
6.22091e-06
1.80245e-06
6.39546e-06
1.82738e-06
6.43636e-06
1.85152e-06
6.33333e-06
1.8704e-06
6.15304e-06
1.88475e-06
5.94204e-06
1.89588e-06
5.7218e-06
1.9047e-06
5.501e-06
1.91185e-06
5.28319e-06
1.91771e-06
5.06996e-06
1.92257e-06
4.86215e-06
1.92661e-06
4.66023e-06
1.92997e-06
4.46447e-06
1.93277e-06
4.27503e-06
1.93509e-06
4.09199e-06
1.937e-06
3.91537e-06
1.93855e-06
3.74514e-06
1.93979e-06
3.58124e-06
1.94075e-06
3.42363e-06
1.94146e-06
3.27227e-06
1.94196e-06
3.12713e-06
1.94226e-06
2.98806e-06
2.85491e-06
2.21666e-06
1.82954e-05
2.37632e-06
1.82358e-05
2.01411e-06
1.08999e-05
1.46938e-06
1.14644e-05
1.49784e-06
1.86108e-05
1.58615e-06
1.8539e-05
1.74633e-06
1.75742e-05
1.93705e-06
1.46812e-05
1.7109e-06
1.05676e-05
1.87932e-06
1.53017e-05
2.01767e-06
1.68715e-05
2.10297e-06
1.68526e-05
2.18312e-06
1.71864e-05
2.25436e-06
1.81424e-05
2.35751e-06
1.86131e-05
1.89362e-06
1.16178e-05
1.5099e-06
1.17061e-05
1.63139e-06
1.86921e-05
1.69684e-06
1.80409e-05
1.76358e-06
1.69524e-05
1.8178e-06
1.32435e-05
1.87772e-06
1.21047e-05
1.94958e-06
1.09581e-05
2.02396e-06
9.647e-06
2.04536e-06
8.15286e-06
1.97285e-06
6.8795e-06
1.87482e-06
6.28987e-06
1.82588e-06
6.26985e-06
1.82652e-06
6.39482e-06
1.84658e-06
6.4163e-06
1.86743e-06
6.31247e-06
1.88426e-06
6.13621e-06
1.89726e-06
5.92904e-06
1.90742e-06
5.71164e-06
1.91555e-06
5.49287e-06
1.92218e-06
5.27656e-06
1.92765e-06
5.06449e-06
1.93221e-06
4.8576e-06
1.93602e-06
4.65641e-06
1.93922e-06
4.46127e-06
1.94189e-06
4.27236e-06
1.94412e-06
4.08977e-06
1.94596e-06
3.91353e-06
1.94746e-06
3.74363e-06
1.94867e-06
3.58003e-06
1.94963e-06
3.42268e-06
1.95035e-06
3.27155e-06
1.95087e-06
3.1266e-06
1.95124e-06
2.9877e-06
2.85472e-06
2.13817e-06
1.82813e-05
2.27032e-06
1.81036e-05
1.926e-06
1.12442e-05
1.45821e-06
1.19322e-05
1.49569e-06
1.85734e-05
1.58496e-06
1.84497e-05
1.7438e-06
1.74153e-05
1.91287e-06
1.45121e-05
1.72992e-06
1.07505e-05
1.89656e-06
1.5135e-05
2.03015e-06
1.67379e-05
2.10624e-06
1.67765e-05
2.17638e-06
1.71162e-05
2.24187e-06
1.80769e-05
2.33055e-06
1.85244e-05
1.91711e-06
1.20313e-05
1.58773e-06
1.20355e-05
1.70713e-06
1.85727e-05
1.75448e-06
1.79936e-05
1.8069e-06
1.69e-05
1.85305e-06
1.31974e-05
1.90705e-06
1.20507e-05
1.97245e-06
1.08927e-05
2.03657e-06
9.58288e-06
2.04938e-06
8.14005e-06
1.98313e-06
6.94575e-06
1.8972e-06
6.3758e-06
1.85215e-06
6.3149e-06
1.8498e-06
6.39717e-06
1.86584e-06
6.40026e-06
1.88386e-06
6.29444e-06
1.89889e-06
6.12118e-06
1.91069e-06
5.91725e-06
1.92001e-06
5.70232e-06
1.9275e-06
5.48537e-06
1.93365e-06
5.27041e-06
1.93876e-06
5.05938e-06
1.94304e-06
4.85332e-06
1.94663e-06
4.65282e-06
1.94966e-06
4.45824e-06
1.95221e-06
4.26981e-06
1.95434e-06
4.08764e-06
1.95611e-06
3.91176e-06
1.95756e-06
3.74218e-06
1.95875e-06
3.57885e-06
1.95969e-06
3.42174e-06
1.96042e-06
3.27081e-06
1.96099e-06
3.12603e-06
1.96146e-06
2.98724e-06
2.85444e-06
2.07237e-06
1.82679e-05
2.17629e-06
1.79997e-05
1.84618e-06
1.15743e-05
1.45061e-06
1.23278e-05
1.50244e-06
1.85215e-05
1.59325e-06
1.83589e-05
1.74896e-06
1.72596e-05
1.90159e-06
1.43595e-05
1.74948e-06
1.09026e-05
1.91485e-06
1.49697e-05
2.0449e-06
1.66078e-05
2.1129e-06
1.67085e-05
2.17618e-06
1.70529e-05
2.23961e-06
1.80135e-05
2.31843e-06
1.84456e-05
1.94576e-06
1.2404e-05
1.66448e-06
1.23167e-05
1.78166e-06
1.84555e-05
1.81337e-06
1.79619e-05
1.85102e-06
1.68624e-05
1.89002e-06
1.31584e-05
1.93793e-06
1.20028e-05
1.99675e-06
1.08339e-05
2.0513e-06
9.52834e-06
2.05699e-06
8.13436e-06
1.99571e-06
7.00703e-06
1.91915e-06
6.45236e-06
1.87724e-06
6.35682e-06
1.87253e-06
6.40188e-06
1.88519e-06
6.3876e-06
1.90074e-06
6.27889e-06
1.91418e-06
6.10775e-06
1.92492e-06
5.90651e-06
1.93348e-06
5.69376e-06
1.94042e-06
5.47843e-06
1.94614e-06
5.26469e-06
1.95091e-06
5.05461e-06
1.95493e-06
4.8493e-06
1.95833e-06
4.64942e-06
1.9612e-06
4.45537e-06
1.96363e-06
4.26739e-06
1.96566e-06
4.0856e-06
1.96737e-06
3.91006e-06
1.96878e-06
3.74076e-06
1.96993e-06
3.57769e-06
1.97087e-06
3.4208e-06
1.97162e-06
3.27006e-06
1.97226e-06
3.12539e-06
1.9728e-06
2.9867e-06
2.85414e-06
2.02141e-06
1.82518e-05
2.0993e-06
1.79218e-05
1.78082e-06
1.18928e-05
1.45288e-06
1.26557e-05
1.5204e-06
1.8454e-05
1.61032e-06
1.8269e-05
1.75887e-06
1.7111e-05
1.89475e-06
1.42236e-05
1.76983e-06
1.10276e-05
1.93843e-06
1.48011e-05
2.06138e-06
1.64849e-05
2.12228e-06
1.66476e-05
2.17993e-06
1.69953e-05
2.24197e-06
1.79514e-05
2.31523e-06
1.83724e-05
1.98086e-06
1.27383e-05
1.73799e-06
1.25596e-05
1.85049e-06
1.8343e-05
1.87174e-06
1.79406e-05
1.89322e-06
1.68409e-05
1.92672e-06
1.31249e-05
1.96905e-06
1.19605e-05
2.02151e-06
1.07814e-05
2.0673e-06
9.48256e-06
2.06715e-06
8.1345e-06
2.00994e-06
7.06423e-06
1.94082e-06
6.52149e-06
1.90149e-06
6.39615e-06
1.8949e-06
6.40847e-06
1.90468e-06
6.37781e-06
1.91805e-06
6.26552e-06
1.93007e-06
6.09573e-06
1.93986e-06
5.89672e-06
1.94775e-06
5.68587e-06
1.95419e-06
5.47199e-06
1.95953e-06
5.25935e-06
1.96401e-06
5.05013e-06
1.96779e-06
4.84551e-06
1.97101e-06
4.64621e-06
1.97374e-06
4.45264e-06
1.97606e-06
4.26507e-06
1.97802e-06
4.08364e-06
1.97966e-06
3.90841e-06
1.98103e-06
3.73939e-06
1.98217e-06
3.57656e-06
1.9831e-06
3.41987e-06
1.98387e-06
3.26929e-06
1.98454e-06
3.12472e-06
1.98516e-06
2.98609e-06
2.85372e-06
1.98541e-06
1.82314e-05
2.04234e-06
1.78649e-05
1.73952e-06
1.21956e-05
1.46807e-06
1.29272e-05
1.5486e-06
1.83735e-05
1.63355e-06
1.8184e-05
1.77158e-06
1.6973e-05
1.89318e-06
1.4102e-05
1.79007e-06
1.11307e-05
1.95749e-06
1.46336e-05
2.07752e-06
1.63648e-05
2.13311e-06
1.6592e-05
2.18522e-06
1.69432e-05
2.24479e-06
1.78919e-05
2.31543e-06
1.83017e-05
2.01963e-06
1.30341e-05
1.80545e-06
1.27738e-05
1.9075e-06
1.8241e-05
1.92619e-06
1.79219e-05
1.93559e-06
1.68315e-05
1.96232e-06
1.30981e-05
1.99955e-06
1.19232e-05
2.04605e-06
1.07349e-05
2.08397e-06
9.44464e-06
2.07906e-06
8.13941e-06
2.02529e-06
7.11801e-06
1.96221e-06
6.58457e-06
1.9251e-06
6.43326e-06
1.91701e-06
6.41656e-06
1.92435e-06
6.37046e-06
1.93579e-06
6.25408e-06
1.94652e-06
6.085e-06
1.95546e-06
5.88778e-06
1.96275e-06
5.67858e-06
1.96875e-06
5.46599e-06
1.97375e-06
5.25435e-06
1.97797e-06
5.04591e-06
1.98155e-06
4.84193e-06
1.98461e-06
4.64315e-06
1.98721e-06
4.45003e-06
1.98943e-06
4.26285e-06
1.99132e-06
4.08175e-06
1.99291e-06
3.90682e-06
1.99425e-06
3.73806e-06
1.99536e-06
3.57545e-06
1.99628e-06
3.41895e-06
1.99705e-06
3.26852e-06
1.99774e-06
3.12403e-06
1.99845e-06
2.98538e-06
2.85308e-06
1.96226e-06
1.8206e-05
2.00497e-06
1.78222e-05
1.72282e-06
1.24778e-05
1.49483e-06
1.31552e-05
1.58297e-06
1.82853e-05
1.65918e-06
1.81078e-05
1.78509e-06
1.68471e-05
1.89568e-06
1.39914e-05
1.81078e-06
1.12156e-05
1.97558e-06
1.44688e-05
2.09331e-06
1.62471e-05
2.1445e-06
1.65408e-05
2.19049e-06
1.68972e-05
2.2459e-06
1.78365e-05
2.31502e-06
1.82326e-05
2.05541e-06
1.32937e-05
1.8651e-06
1.29641e-05
1.96493e-06
1.81412e-05
1.97036e-06
1.79165e-05
1.97435e-06
1.68275e-05
1.99642e-06
1.30761e-05
2.02908e-06
1.18906e-05
2.07005e-06
1.06939e-05
2.10098e-06
9.41371e-06
2.09219e-06
8.1482e-06
2.04136e-06
7.16884e-06
1.98332e-06
6.64261e-06
1.94817e-06
6.4684e-06
1.93893e-06
6.4258e-06
1.94421e-06
6.36518e-06
1.95395e-06
6.24434e-06
1.96353e-06
6.07543e-06
1.9717e-06
5.87961e-06
1.97845e-06
5.67182e-06
1.98406e-06
5.46039e-06
1.98876e-06
5.24965e-06
1.99275e-06
5.04193e-06
1.99615e-06
4.83853e-06
1.99907e-06
4.64024e-06
2.00157e-06
4.44753e-06
2.00371e-06
4.26071e-06
2.00554e-06
4.07993e-06
2.00709e-06
3.90527e-06
2.0084e-06
3.73675e-06
2.0095e-06
3.57435e-06
2.01042e-06
3.41803e-06
2.01122e-06
3.26772e-06
2.01195e-06
3.12329e-06
2.01274e-06
2.98459e-06
2.85239e-06
1.94833e-06
1.81742e-05
1.98395e-06
1.77866e-05
1.72681e-06
1.27349e-05
1.52896e-06
1.3353e-05
1.61778e-06
1.81965e-05
1.68302e-06
1.80426e-05
1.79732e-06
1.67328e-05
1.90062e-06
1.38881e-05
1.83195e-06
1.12842e-05
1.99315e-06
1.43076e-05
2.10911e-06
1.61312e-05
2.15621e-06
1.64937e-05
2.19531e-06
1.68581e-05
2.24505e-06
1.77867e-05
2.31214e-06
1.81655e-05
2.08382e-06
1.3522e-05
1.91279e-06
1.31351e-05
2.00648e-06
1.80475e-05
2.01019e-06
1.79128e-05
2.00968e-06
1.6828e-05
2.02814e-06
1.30576e-05
2.05722e-06
1.18615e-05
2.09327e-06
1.06579e-05
2.11809e-06
9.38889e-06
2.10616e-06
8.16012e-06
2.05792e-06
7.21708e-06
2.00415e-06
6.69639e-06
1.97078e-06
6.50177e-06
1.9607e-06
6.43589e-06
1.96426e-06
6.36161e-06
1.97253e-06
6.23608e-06
1.98108e-06
6.06688e-06
1.98855e-06
5.87213e-06
1.99483e-06
5.66555e-06
2.00009e-06
5.45513e-06
2.00453e-06
5.2452e-06
2.00832e-06
5.03814e-06
2.01157e-06
4.83528e-06
2.01436e-06
4.63744e-06
2.01677e-06
4.44512e-06
2.01885e-06
4.25863e-06
2.02063e-06
4.07814e-06
2.02215e-06
3.90374e-06
2.02345e-06
3.73545e-06
2.02455e-06
3.57324e-06
2.0255e-06
3.41708e-06
2.02635e-06
3.26688e-06
2.02716e-06
3.12248e-06
2.02798e-06
2.98377e-06
2.85178e-06
1.93949e-06
1.81403e-05
1.97403e-06
1.7752e-05
1.74453e-06
1.29644e-05
1.56492e-06
1.35326e-05
1.64741e-06
1.8114e-05
1.70146e-06
1.79885e-05
1.80651e-06
1.66277e-05
1.90649e-06
1.37882e-05
1.85285e-06
1.13379e-05
2.01027e-06
1.41502e-05
2.12502e-06
1.60164e-05
2.16833e-06
1.64504e-05
2.20012e-06
1.68263e-05
2.24331e-06
1.77435e-05
2.30647e-06
1.81023e-05
2.10286e-06
1.37257e-05
1.95038e-06
1.32876e-05
2.03906e-06
1.79588e-05
2.04331e-06
1.79085e-05
2.04167e-06
1.68297e-05
2.05766e-06
1.30416e-05
2.08393e-06
1.18352e-05
2.11565e-06
1.06262e-05
2.13518e-06
9.36937e-06
2.12074e-06
8.17456e-06
2.07482e-06
7.26301e-06
2.02475e-06
6.74646e-06
1.99301e-06
6.53351e-06
1.98234e-06
6.44656e-06
1.9845e-06
6.35945e-06
1.9915e-06
6.22908e-06
1.99914e-06
6.05924e-06
2.00601e-06
5.86527e-06
2.01186e-06
5.65969e-06
2.01681e-06
5.45017e-06
2.02103e-06
5.24099e-06
2.02465e-06
5.03452e-06
2.02777e-06
4.83216e-06
2.03047e-06
4.63474e-06
2.0328e-06
4.44278e-06
2.03483e-06
4.25661e-06
2.03657e-06
4.0764e-06
2.03807e-06
3.90224e-06
2.03936e-06
3.73416e-06
2.04047e-06
3.57213e-06
2.04145e-06
3.41611e-06
2.04235e-06
3.26597e-06
2.04323e-06
3.1216e-06
2.04409e-06
2.98292e-06
2.85121e-06
1.931e-06
1.81038e-05
1.96917e-06
1.77139e-05
1.76807e-06
1.31655e-05
1.59745e-06
1.37032e-05
1.66789e-06
1.80436e-05
1.71234e-06
1.79441e-05
1.81172e-06
1.65284e-05
1.91155e-06
1.36883e-05
1.87234e-06
1.13771e-05
2.02648e-06
1.39961e-05
2.14081e-06
1.59021e-05
2.18095e-06
1.64103e-05
2.20573e-06
1.68015e-05
2.24232e-06
1.77069e-05
2.29891e-06
1.80457e-05
2.11273e-06
1.39118e-05
1.97838e-06
1.3422e-05
2.0648e-06
1.78724e-05
2.07154e-06
1.79018e-05
2.07067e-06
1.68305e-05
2.0853e-06
1.3027e-05
2.10938e-06
1.18112e-05
2.1373e-06
1.05983e-05
2.15223e-06
9.35443e-06
2.13579e-06
8.191e-06
2.09196e-06
7.30683e-06
2.04516e-06
6.79326e-06
2.01494e-06
6.56372e-06
2.0039e-06
6.4576e-06
2.00492e-06
6.35842e-06
2.01084e-06
6.22317e-06
2.0177e-06
6.05238e-06
2.02403e-06
5.85893e-06
2.02952e-06
5.65421e-06
2.03421e-06
5.44548e-06
2.03824e-06
5.23696e-06
2.04172e-06
5.03105e-06
2.04473e-06
4.82915e-06
2.04735e-06
4.63212e-06
2.04963e-06
4.4405e-06
2.05162e-06
4.25462e-06
2.05334e-06
4.07468e-06
2.05483e-06
3.90075e-06
2.05611e-06
3.73288e-06
2.05723e-06
3.57102e-06
2.05823e-06
3.4151e-06
2.05918e-06
3.26503e-06
2.06011e-06
3.12067e-06
2.06099e-06
2.98204e-06
2.85065e-06
1.91976e-06
1.80636e-05
1.96399e-06
1.76696e-05
1.79033e-06
1.33392e-05
1.62266e-06
1.38709e-05
1.67765e-06
1.79886e-05
1.71534e-06
1.79064e-05
1.81302e-06
1.64307e-05
1.91481e-06
1.35865e-05
1.88914e-06
1.14028e-05
2.04083e-06
1.38444e-05
2.15587e-06
1.5787e-05
2.19404e-06
1.63721e-05
2.21294e-06
1.67826e-05
2.24371e-06
1.76762e-05
2.29115e-06
1.79983e-05
2.11566e-06
1.40873e-05
1.99956e-06
1.35381e-05
2.08676e-06
1.77852e-05
2.09684e-06
1.78917e-05
2.09766e-06
1.68297e-05
2.11157e-06
1.30131e-05
2.1339e-06
1.17888e-05
2.1584e-06
1.05738e-05
2.1693e-06
9.34353e-06
2.15124e-06
8.20906e-06
2.10934e-06
7.34873e-06
2.06544e-06
6.83716e-06
2.03665e-06
6.59251e-06
2.02541e-06
6.46884e-06
2.02553e-06
6.35829e-06
2.03055e-06
6.21815e-06
2.03673e-06
6.04619e-06
2.04261e-06
5.85306e-06
2.04778e-06
5.64903e-06
2.05226e-06
5.441e-06
2.05613e-06
5.23309e-06
2.05949e-06
5.02768e-06
2.06243e-06
4.82621e-06
2.06499e-06
4.62955e-06
2.06724e-06
4.43826e-06
2.0692e-06
4.25266e-06
2.07091e-06
4.07297e-06
2.0724e-06
3.89926e-06
2.0737e-06
3.73158e-06
2.07484e-06
3.56988e-06
2.07586e-06
3.41408e-06
2.07684e-06
3.26406e-06
2.07779e-06
3.11972e-06
2.07866e-06
2.98117e-06
2.8501e-06
1.89962e-06
1.80236e-05
1.95457e-06
1.76147e-05
1.80606e-06
1.34877e-05
1.63859e-06
1.40384e-05
1.67744e-06
1.79498e-05
1.71183e-06
1.7872e-05
1.81131e-06
1.63312e-05
1.91594e-06
1.34819e-05
1.90217e-06
1.14165e-05
2.05222e-06
1.36943e-05
2.16941e-06
1.56699e-05
2.20742e-06
1.63341e-05
2.22236e-06
1.67677e-05
2.24879e-06
1.76497e-05
2.28538e-06
1.79617e-05
2.115e-06
1.42577e-05
2.01652e-06
1.36365e-05
2.10798e-06
1.76937e-05
2.12123e-06
1.78785e-05
2.12371e-06
1.68272e-05
2.13709e-06
1.29997e-05
2.15783e-06
1.17681e-05
2.17917e-06
1.05524e-05
2.18648e-06
9.33622e-06
2.16712e-06
8.22842e-06
2.12698e-06
7.38887e-06
2.08569e-06
6.87846e-06
2.05826e-06
6.61994e-06
2.04694e-06
6.48016e-06
2.04634e-06
6.35889e-06
2.05061e-06
6.21388e-06
2.05623e-06
6.04057e-06
2.06172e-06
5.84757e-06
2.06664e-06
5.64411e-06
2.07093e-06
5.4367e-06
2.07468e-06
5.22934e-06
2.07796e-06
5.0244e-06
2.08084e-06
4.82333e-06
2.08337e-06
4.62702e-06
2.0856e-06
4.43603e-06
2.08756e-06
4.2507e-06
2.08928e-06
4.07125e-06
2.09078e-06
3.89776e-06
2.0921e-06
3.73026e-06
2.09326e-06
3.56871e-06
2.09432e-06
3.41302e-06
2.09531e-06
3.26307e-06
2.09625e-06
3.11877e-06
2.0971e-06
2.98033e-06
2.84959e-06
1.87462e-06
1.79842e-05
1.93967e-06
1.75496e-05
1.81243e-06
1.36149e-05
1.64523e-06
1.42056e-05
1.66977e-06
1.79252e-05
1.70426e-06
1.78375e-05
1.80779e-06
1.62277e-05
1.91417e-06
1.33755e-05
1.91072e-06
1.142e-05
2.05985e-06
1.35452e-05
2.18074e-06
1.5549e-05
2.22082e-06
1.6294e-05
2.23425e-06
1.67542e-05
2.25838e-06
1.76256e-05
2.28379e-06
1.79363e-05
2.11463e-06
1.44269e-05
2.03203e-06
1.37191e-05
2.13084e-06
1.75949e-05
2.14661e-06
1.78627e-05
2.14984e-06
1.6824e-05
2.16248e-06
1.29871e-05
2.18155e-06
1.1749e-05
2.19983e-06
1.05341e-05
2.2039e-06
9.33215e-06
2.18347e-06
8.24884e-06
2.14496e-06
7.42738e-06
2.10601e-06
6.91741e-06
2.07986e-06
6.64609e-06
2.06858e-06
6.49144e-06
2.06742e-06
6.36005e-06
2.07106e-06
6.21024e-06
2.0762e-06
6.03543e-06
2.08136e-06
5.84241e-06
2.08607e-06
5.63941e-06
2.09023e-06
5.43254e-06
2.09388e-06
5.22568e-06
2.0971e-06
5.02118e-06
2.09995e-06
4.82049e-06
2.10246e-06
4.62451e-06
2.10469e-06
4.4338e-06
2.10666e-06
4.24873e-06
2.1084e-06
4.06951e-06
2.10993e-06
3.89623e-06
2.11128e-06
3.72891e-06
2.11248e-06
3.56751e-06
2.11357e-06
3.41193e-06
2.11458e-06
3.26206e-06
2.11551e-06
3.11784e-06
2.11632e-06
2.97952e-06
2.84909e-06
1.84584e-06
1.7946e-05
1.918e-06
1.74775e-05
1.80939e-06
1.37236e-05
1.64421e-06
1.43708e-05
1.65799e-06
1.79114e-05
1.69549e-06
1.78e-05
1.80378e-06
1.61194e-05
1.9107e-06
1.32686e-05
1.9148e-06
1.14159e-05
2.0635e-06
1.33965e-05
2.18951e-06
1.54229e-05
2.23397e-06
1.62496e-05
2.24852e-06
1.67397e-05
2.27265e-06
1.76015e-05
2.28818e-06
1.79208e-05
2.11829e-06
1.45968e-05
2.04864e-06
1.37888e-05
2.15678e-06
1.74868e-05
2.17444e-06
1.7845e-05
2.17686e-06
1.68216e-05
2.18819e-06
1.29757e-05
2.20535e-06
1.17318e-05
2.22061e-06
1.05189e-05
2.2217e-06
9.33107e-06
2.20039e-06
8.27015e-06
2.16336e-06
7.4644e-06
2.12653e-06
6.95425e-06
2.10159e-06
6.67103e-06
2.09041e-06
6.50262e-06
2.0888e-06
6.36165e-06
2.09193e-06
6.20711e-06
2.09667e-06
6.03069e-06
2.10156e-06
5.83752e-06
2.10609e-06
5.63488e-06
2.11014e-06
5.42849e-06
2.11373e-06
5.22209e-06
2.11691e-06
5.018e-06
2.11974e-06
4.81766e-06
2.12225e-06
4.62199e-06
2.12449e-06
4.43156e-06
2.12649e-06
4.24674e-06
2.12826e-06
4.06774e-06
2.12983e-06
3.89466e-06
2.13122e-06
3.72752e-06
2.13246e-06
3.56627e-06
2.13359e-06
3.41081e-06
2.13462e-06
3.26103e-06
2.13555e-06
3.1169e-06
2.13634e-06
2.97873e-06
2.84861e-06
1.81554e-06
1.79089e-05
1.89595e-06
1.73971e-05
1.79907e-06
1.38204e-05
1.63813e-06
1.45317e-05
1.64552e-06
1.7904e-05
1.68808e-06
1.77575e-05
1.80029e-06
1.60072e-05
1.90476e-06
1.31641e-05
1.91411e-06
1.14065e-05
2.06343e-06
1.32472e-05
2.19577e-06
1.52906e-05
2.2467e-06
1.61986e-05
2.26478e-06
1.67216e-05
2.29112e-06
1.75751e-05
2.29946e-06
1.79125e-05
2.12894e-06
1.47673e-05
2.06826e-06
1.38495e-05
2.18634e-06
1.73687e-05
2.20558e-06
1.78258e-05
2.20532e-06
1.68218e-05
2.21453e-06
1.29665e-05
2.22942e-06
1.1717e-05
2.24166e-06
1.05066e-05
2.24e-06
9.33272e-06
2.21795e-06
8.2922e-06
2.1823e-06
7.50006e-06
2.14738e-06
6.98916e-06
2.12355e-06
6.69486e-06
2.11253e-06
6.51365e-06
2.11057e-06
6.36361e-06
2.11326e-06
6.20442e-06
2.11766e-06
6.0263e-06
2.12232e-06
5.83286e-06
2.1267e-06
5.6305e-06
2.13067e-06
5.42453e-06
2.13422e-06
5.21854e-06
2.13738e-06
5.01483e-06
2.14021e-06
4.81483e-06
2.14274e-06
4.61946e-06
2.145e-06
4.4293e-06
2.14703e-06
4.24472e-06
2.14884e-06
4.06593e-06
2.15046e-06
3.89304e-06
2.1519e-06
3.72607e-06
2.15319e-06
3.56497e-06