/*--------------------------------*- C++ -*----------------------------------*\
  =========                 |
  \\      /  F ield         | OpenFOAM: The Open Source CFD Toolbox
   \\    /   O peration     | Website:  https://openfoam.org
    \\  /    A nd           | Version:  9
     \\/     M anipulation  |
\*---------------------------------------------------------------------------*/
FoamFile
{
    format      ascii;
    class       volScalarField;
    location    "0.12";
    object      rAU;
}
// * * * * * * * * * * * * * * * * * * * * * * * * * * * * * * * * * * * * * //

dimensions      [-1 3 1 0 0 0 0];

internalField   nonuniform List<scalar> 
5000
(
8.99327e-06
8.83097e-06
1.39673e-05
1.35832e-05
8.79582e-06
8.98315e-06
9.04261e-06
9.48793e-06
1.35228e-05
9.42412e-06
9.24627e-06
9.34254e-06
9.23655e-06
9.005e-06
8.77573e-06
1.39384e-05
1.35372e-05
8.78141e-06
9.10069e-06
9.36936e-06
9.51747e-06
9.64164e-06
9.7367e-06
9.82881e-06
1.01185e-05
1.1609e-05
1.36163e-05
1.09767e-05
1.02895e-05
1.01795e-05
1.01593e-05
1.01423e-05
1.01152e-05
1.00788e-05
1.00357e-05
9.98788e-06
9.93666e-06
9.88274e-06
9.8264e-06
9.76773e-06
9.70668e-06
9.64309e-06
9.57678e-06
9.50753e-06
9.43508e-06
9.35916e-06
9.27944e-06
9.1955e-06
9.10691e-06
9.35345e-06
1.2058e-05
1.19468e-05
1.45341e-05
1.45069e-05
1.20354e-05
1.21017e-05
1.21165e-05
1.24132e-05
1.43885e-05
1.24132e-05
1.22521e-05
1.23042e-05
1.22223e-05
1.2059e-05
1.18986e-05
1.44896e-05
1.44948e-05
1.20233e-05
1.21879e-05
1.23421e-05
1.23823e-05
1.24367e-05
1.24745e-05
1.25105e-05
1.26619e-05
1.33745e-05
1.40945e-05
1.32318e-05
1.27951e-05
1.26552e-05
1.25884e-05
1.25355e-05
1.24823e-05
1.24255e-05
1.23648e-05
1.23004e-05
1.22323e-05
1.21607e-05
1.20853e-05
1.20061e-05
1.19229e-05
1.18352e-05
1.1743e-05
1.16458e-05
1.15434e-05
1.14354e-05
1.13215e-05
1.12014e-05
1.10746e-05
1.1446e-05
1.20707e-05
1.19655e-05
1.43585e-05
1.44118e-05
1.21071e-05
1.214e-05
1.21439e-05
1.24517e-05
1.42502e-05
1.24613e-05
1.22755e-05
1.23202e-05
1.22307e-05
1.20702e-05
1.19192e-05
1.42983e-05
1.4371e-05
1.20921e-05
1.22304e-05
1.23707e-05
1.24039e-05
1.24532e-05
1.24908e-05
1.2536e-05
1.27099e-05
1.33464e-05
1.38683e-05
1.32585e-05
1.28528e-05
1.26959e-05
1.26161e-05
1.25546e-05
1.24955e-05
1.24349e-05
1.23717e-05
1.23055e-05
1.22362e-05
1.21637e-05
1.20877e-05
1.2008e-05
1.19243e-05
1.18364e-05
1.17439e-05
1.16466e-05
1.1544e-05
1.14359e-05
1.13219e-05
1.12017e-05
1.10748e-05
1.14462e-05
1.20922e-05
1.19905e-05
1.41629e-05
1.42781e-05
1.21659e-05
1.21755e-05
1.21797e-05
1.24951e-05
1.41007e-05
1.25023e-05
1.23025e-05
1.23405e-05
1.22484e-05
1.2094e-05
1.19557e-05
1.41153e-05
1.42061e-05
1.21462e-05
1.22678e-05
1.23987e-05
1.24264e-05
1.24727e-05
1.25122e-05
1.25688e-05
1.27636e-05
1.33179e-05
1.36791e-05
1.32509e-05
1.28895e-05
1.27239e-05
1.26358e-05
1.25689e-05
1.25063e-05
1.24431e-05
1.2378e-05
1.23104e-05
1.22401e-05
1.21667e-05
1.20901e-05
1.20099e-05
1.19259e-05
1.18376e-05
1.17449e-05
1.16473e-05
1.15445e-05
1.14363e-05
1.13222e-05
1.12018e-05
1.10748e-05
1.14462e-05
1.21188e-05
1.20202e-05
1.39784e-05
1.41262e-05
1.22101e-05
1.2206e-05
1.22184e-05
1.25384e-05
1.39568e-05
1.25355e-05
1.23308e-05
1.23623e-05
1.2272e-05
1.21241e-05
1.19982e-05
1.39513e-05
1.40311e-05
1.21853e-05
1.22984e-05
1.24238e-05
1.24473e-05
1.2492e-05
1.25342e-05
1.26022e-05
1.28103e-05
1.32855e-05
1.35375e-05
1.32259e-05
1.29119e-05
1.27449e-05
1.26508e-05
1.25798e-05
1.25145e-05
1.24495e-05
1.2383e-05
1.23145e-05
1.22433e-05
1.21694e-05
1.20922e-05
1.20116e-05
1.19272e-05
1.18386e-05
1.17456e-05
1.16478e-05
1.15448e-05
1.14364e-05
1.13221e-05
1.12016e-05
1.10746e-05
1.14458e-05
1.21475e-05
1.20533e-05
1.38188e-05
1.39732e-05
1.22417e-05
1.22318e-05
1.22573e-05
1.25798e-05
1.38276e-05
1.25623e-05
1.23584e-05
1.23833e-05
1.22983e-05
1.21555e-05
1.20408e-05
1.38079e-05
1.38646e-05
1.22125e-05
1.23226e-05
1.24451e-05
1.24655e-05
1.25097e-05
1.25553e-05
1.26337e-05
1.28474e-05
1.3252e-05
1.34346e-05
1.31956e-05
1.29234e-05
1.27602e-05
1.26627e-05
1.25886e-05
1.25211e-05
1.24546e-05
1.23871e-05
1.23177e-05
1.22459e-05
1.21714e-05
1.20938e-05
1.20128e-05
1.19281e-05
1.18392e-05
1.1746e-05
1.16479e-05
1.15448e-05
1.14362e-05
1.13218e-05
1.12011e-05
1.10739e-05
1.1445e-05
1.21756e-05
1.20885e-05
1.36856e-05
1.38251e-05
1.22631e-05
1.22539e-05
1.22945e-05
1.26199e-05
1.37171e-05
1.25851e-05
1.23843e-05
1.24028e-05
1.23248e-05
1.21857e-05
1.20814e-05
1.36833e-05
1.37153e-05
1.22316e-05
1.23414e-05
1.24625e-05
1.24809e-05
1.25256e-05
1.25748e-05
1.26623e-05
1.28755e-05
1.32209e-05
1.3358e-05
1.31664e-05
1.29282e-05
1.27709e-05
1.26716e-05
1.25954e-05
1.25263e-05
1.24586e-05
1.23902e-05
1.23201e-05
1.22478e-05
1.21728e-05
1.20949e-05
1.20135e-05
1.19285e-05
1.18394e-05
1.17459e-05
1.16476e-05
1.15443e-05
1.14355e-05
1.1321e-05
1.12002e-05
1.10729e-05
1.14437e-05
1.22013e-05
1.21256e-05
1.35802e-05
1.36876e-05
1.22773e-05
1.22728e-05
1.23291e-05
1.26602e-05
1.3626e-05
1.26059e-05
1.24077e-05
1.24205e-05
1.23496e-05
1.22132e-05
1.21191e-05
1.35752e-05
1.35868e-05
1.22458e-05
1.2356e-05
1.24763e-05
1.24936e-05
1.25393e-05
1.25924e-05
1.26874e-05
1.28967e-05
1.31934e-05
1.32989e-05
1.31397e-05
1.2929e-05
1.27783e-05
1.26782e-05
1.26003e-05
1.253e-05
1.24614e-05
1.23923e-05
1.23217e-05
1.22489e-05
1.21736e-05
1.20953e-05
1.20137e-05
1.19284e-05
1.1839e-05
1.17453e-05
1.16468e-05
1.15433e-05
1.14344e-05
1.13197e-05
1.11987e-05
1.10713e-05
1.14419e-05
1.22238e-05
1.21636e-05
1.34983e-05
1.35637e-05
1.22868e-05
1.22893e-05
1.23589e-05
1.26991e-05
1.35526e-05
1.26262e-05
1.24285e-05
1.24364e-05
1.23715e-05
1.22371e-05
1.21527e-05
1.34798e-05
1.34782e-05
1.22568e-05
1.23669e-05
1.24871e-05
1.25037e-05
1.25509e-05
1.26078e-05
1.27091e-05
1.29124e-05
1.31692e-05
1.32517e-05
1.31156e-05
1.29272e-05
1.27833e-05
1.2683e-05
1.26039e-05
1.25325e-05
1.24632e-05
1.23935e-05
1.23224e-05
1.22493e-05
1.21737e-05
1.20951e-05
1.20132e-05
1.19276e-05
1.18381e-05
1.17441e-05
1.16455e-05
1.15418e-05
1.14327e-05
1.13178e-05
1.11967e-05
1.10691e-05
1.14393e-05
1.22429e-05
1.22015e-05
1.34345e-05
1.3455e-05
1.22938e-05
1.23038e-05
1.23855e-05
1.27356e-05
1.3494e-05
1.26468e-05
1.24474e-05
1.24506e-05
1.239e-05
1.22569e-05
1.21813e-05
1.33946e-05
1.33873e-05
1.22657e-05
1.23743e-05
1.24952e-05
1.25114e-05
1.25603e-05
1.26211e-05
1.27275e-05
1.29234e-05
1.31476e-05
1.32131e-05
1.3094e-05
1.29238e-05
1.27864e-05
1.26864e-05
1.26063e-05
1.25341e-05
1.24641e-05
1.23939e-05
1.23225e-05
1.2249e-05
1.21731e-05
1.20942e-05
1.20121e-05
1.19263e-05
1.18365e-05
1.17424e-05
1.16435e-05
1.15396e-05
1.14303e-05
1.13152e-05
1.1194e-05
1.10662e-05
1.1436e-05
1.2259e-05
1.2238e-05
1.33829e-05
1.33621e-05
1.23e-05
1.23171e-05
1.24097e-05
1.2769e-05
1.3447e-05
1.26679e-05
1.24648e-05
1.24632e-05
1.24051e-05
1.22726e-05
1.22044e-05
1.33168e-05
1.33108e-05
1.22732e-05
1.23784e-05
1.25009e-05
1.25168e-05
1.25677e-05
1.26322e-05
1.27426e-05
1.29305e-05
1.31277e-05
1.31805e-05
1.30744e-05
1.29191e-05
1.27879e-05
1.26886e-05
1.26078e-05
1.25348e-05
1.24643e-05
1.23937e-05
1.23218e-05
1.22481e-05
1.21719e-05
1.20928e-05
1.20104e-05
1.19244e-05
1.18344e-05
1.174e-05
1.1641e-05
1.15369e-05
1.14274e-05
1.13121e-05
1.11906e-05
1.10627e-05
1.14319e-05
1.22726e-05
1.22716e-05
1.33387e-05
1.32843e-05
1.23063e-05
1.23294e-05
1.24322e-05
1.27986e-05
1.34092e-05
1.26893e-05
1.2481e-05
1.24741e-05
1.24173e-05
1.22849e-05
1.22224e-05
1.32452e-05
1.32451e-05
1.22798e-05
1.23793e-05
1.25043e-05
1.25203e-05
1.25734e-05
1.26415e-05
1.27548e-05
1.29343e-05
1.31092e-05
1.31522e-05
1.30564e-05
1.29137e-05
1.27881e-05
1.26898e-05
1.26085e-05
1.25349e-05
1.24638e-05
1.23928e-05
1.23206e-05
1.22466e-05
1.21701e-05
1.20908e-05
1.20082e-05
1.19219e-05
1.18317e-05
1.17371e-05
1.16379e-05
1.15336e-05
1.14239e-05
1.13084e-05
1.11867e-05
1.10585e-05
1.14272e-05
1.22842e-05
1.23011e-05
1.32975e-05
1.3219e-05
1.2313e-05
1.23408e-05
1.24533e-05
1.28243e-05
1.33784e-05
1.27107e-05
1.24963e-05
1.24833e-05
1.24272e-05
1.22947e-05
1.22361e-05
1.31796e-05
1.31876e-05
1.22857e-05
1.23774e-05
1.25054e-05
1.2522e-05
1.25776e-05
1.26492e-05
1.27645e-05
1.29354e-05
1.30915e-05
1.3127e-05
1.30398e-05
1.29077e-05
1.27873e-05
1.26902e-05
1.26086e-05
1.25344e-05
1.24628e-05
1.23914e-05
1.23189e-05
1.22446e-05
1.21678e-05
1.20882e-05
1.20054e-05
1.1919e-05
1.18285e-05
1.17337e-05
1.16343e-05
1.15298e-05
1.14198e-05
1.13041e-05
1.11822e-05
1.10539e-05
1.14218e-05
1.22942e-05
1.23253e-05
1.32577e-05
1.31643e-05
1.23201e-05
1.23511e-05
1.24729e-05
1.28461e-05
1.33523e-05
1.27317e-05
1.25109e-05
1.24911e-05
1.24354e-05
1.23031e-05
1.2247e-05
1.312e-05
1.31376e-05
1.22916e-05
1.23735e-05
1.25045e-05
1.25223e-05
1.25806e-05
1.26554e-05
1.27719e-05
1.29344e-05
1.30746e-05
1.31042e-05
1.30241e-05
1.29012e-05
1.27857e-05
1.26897e-05
1.2608e-05
1.25333e-05
1.24613e-05
1.23895e-05
1.23167e-05
1.22421e-05
1.21651e-05
1.20853e-05
1.20022e-05
1.19155e-05
1.18249e-05
1.17299e-05
1.16302e-05
1.15254e-05
1.14153e-05
1.12994e-05
1.11773e-05
1.10487e-05
1.14159e-05
1.23026e-05
1.23439e-05
1.32177e-05
1.31181e-05
1.23276e-05
1.23601e-05
1.24909e-05
1.28651e-05
1.33304e-05
1.27525e-05
1.25244e-05
1.24976e-05
1.24425e-05
1.23109e-05
1.22562e-05
1.30658e-05
1.30937e-05
1.22975e-05
1.23683e-05
1.25018e-05
1.25219e-05
1.25826e-05
1.26604e-05
1.27774e-05
1.29317e-05
1.30584e-05
1.30832e-05
1.30092e-05
1.28943e-05
1.27832e-05
1.26886e-05
1.26068e-05
1.25318e-05
1.24593e-05
1.23872e-05
1.23141e-05
1.22392e-05
1.2162e-05
1.20819e-05
1.19986e-05
1.19117e-05
1.18208e-05
1.17256e-05
1.16256e-05
1.15207e-05
1.14103e-05
1.12942e-05
1.11719e-05
1.10431e-05
1.14094e-05
1.23096e-05
1.23574e-05
1.31772e-05
1.30782e-05
1.23351e-05
1.23677e-05
1.25072e-05
1.28815e-05
1.33118e-05
1.27736e-05
1.25377e-05
1.25032e-05
1.24486e-05
1.23182e-05
1.22649e-05
1.30174e-05
1.30548e-05
1.23036e-05
1.23634e-05
1.24977e-05
1.25205e-05
1.25838e-05
1.26644e-05
1.27813e-05
1.29278e-05
1.30428e-05
1.30637e-05
1.2995e-05
1.28871e-05
1.27802e-05
1.26869e-05
1.26052e-05
1.25298e-05
1.2457e-05
1.23846e-05
1.23112e-05
1.2236e-05
1.21585e-05
1.20782e-05
1.19946e-05
1.19075e-05
1.18163e-05
1.17209e-05
1.16207e-05
1.15155e-05
1.14049e-05
1.12885e-05
1.11661e-05
1.10371e-05
1.14026e-05
1.23157e-05
1.23667e-05
1.31369e-05
1.30429e-05
1.23426e-05
1.23738e-05
1.25219e-05
1.2896e-05
1.32959e-05
1.27944e-05
1.25507e-05
1.25082e-05
1.24539e-05
1.23253e-05
1.22735e-05
1.29752e-05
1.30206e-05
1.23095e-05
1.2358e-05
1.24933e-05
1.25188e-05
1.25844e-05
1.26675e-05
1.27838e-05
1.29229e-05
1.30278e-05
1.30455e-05
1.29813e-05
1.28796e-05
1.27765e-05
1.26847e-05
1.26031e-05
1.25275e-05
1.24543e-05
1.23816e-05
1.23079e-05
1.22324e-05
1.21547e-05
1.20741e-05
1.19903e-05
1.19029e-05
1.18115e-05
1.17158e-05
1.16154e-05
1.15099e-05
1.13991e-05
1.12825e-05
1.11598e-05
1.10307e-05
1.13953e-05
1.23215e-05
1.23734e-05
1.30979e-05
1.30109e-05
1.23501e-05
1.23787e-05
1.25353e-05
1.29094e-05
1.32825e-05
1.28148e-05
1.25635e-05
1.25126e-05
1.24584e-05
1.23318e-05
1.22823e-05
1.29388e-05
1.29909e-05
1.23166e-05
1.23532e-05
1.24888e-05
1.25168e-05
1.25847e-05
1.26699e-05
1.27851e-05
1.29172e-05
1.30134e-05
1.30285e-05
1.29682e-05
1.28719e-05
1.27724e-05
1.26819e-05
1.26006e-05
1.25248e-05
1.24513e-05
1.23782e-05
1.23042e-05
1.22285e-05
1.21505e-05
1.20697e-05
1.19856e-05
1.18979e-05
1.18063e-05
1.17103e-05
1.16096e-05
1.15039e-05
1.13928e-05
1.1276e-05
1.11531e-05
1.10239e-05
1.13875e-05
1.2327e-05
1.23787e-05
1.30617e-05
1.29812e-05
1.23573e-05
1.2383e-05
1.2548e-05
1.29223e-05
1.32714e-05
1.28347e-05
1.25761e-05
1.25165e-05
1.24618e-05
1.23375e-05
1.22908e-05
1.29073e-05
1.29653e-05
1.23242e-05
1.23493e-05
1.24847e-05
1.25149e-05
1.25847e-05
1.26716e-05
1.27854e-05
1.29109e-05
1.29994e-05
1.30123e-05
1.29556e-05
1.28642e-05
1.27678e-05
1.26787e-05
1.25977e-05
1.25217e-05
1.2448e-05
1.23746e-05
1.23003e-05
1.22243e-05
1.2146e-05
1.20649e-05
1.19806e-05
1.18927e-05
1.18007e-05
1.17045e-05
1.16036e-05
1.14976e-05
1.13863e-05
1.12692e-05
1.11461e-05
1.10166e-05
1.13793e-05
1.2333e-05
1.23841e-05
1.30292e-05
1.29533e-05
1.23641e-05
1.23871e-05
1.25607e-05
1.29355e-05
1.32628e-05
1.28544e-05
1.25888e-05
1.25198e-05
1.24642e-05
1.23422e-05
1.22987e-05
1.28795e-05
1.29436e-05
1.23323e-05
1.23463e-05
1.2481e-05
1.25129e-05
1.25845e-05
1.26727e-05
1.27848e-05
1.29041e-05
1.29859e-05
1.2997e-05
1.29434e-05
1.28563e-05
1.27629e-05
1.26752e-05
1.25944e-05
1.25183e-05
1.24444e-05
1.23707e-05
1.22961e-05
1.22198e-05
1.21413e-05
1.20599e-05
1.19753e-05
1.18871e-05
1.17949e-05
1.16984e-05
1.15972e-05
1.14909e-05
1.13793e-05
1.1262e-05
1.11387e-05
1.1009e-05
1.13706e-05
1.23397e-05
1.23905e-05
1.30012e-05
1.29268e-05
1.23703e-05
1.23914e-05
1.25737e-05
1.29493e-05
1.32565e-05
1.2874e-05
1.26017e-05
1.25228e-05
1.24656e-05
1.23458e-05
1.23053e-05
1.28542e-05
1.29254e-05
1.23411e-05
1.2344e-05
1.24778e-05
1.25111e-05
1.25842e-05
1.26733e-05
1.27835e-05
1.2897e-05
1.29729e-05
1.29824e-05
1.29315e-05
1.28484e-05
1.27578e-05
1.26713e-05
1.25909e-05
1.25147e-05
1.24405e-05
1.23665e-05
1.22917e-05
1.22151e-05
1.21362e-05
1.20546e-05
1.19697e-05
1.18812e-05
1.17887e-05
1.16919e-05
1.15904e-05
1.14839e-05
1.13721e-05
1.12545e-05
1.1131e-05
1.10011e-05
1.13615e-05
1.23477e-05
1.2399e-05
1.29779e-05
1.29016e-05
1.23756e-05
1.23962e-05
1.25874e-05
1.29638e-05
1.32525e-05
1.28939e-05
1.26152e-05
1.25258e-05
1.24662e-05
1.23485e-05
1.23102e-05
1.283e-05
1.29103e-05
1.23505e-05
1.23422e-05
1.24749e-05
1.25093e-05
1.25838e-05
1.26734e-05
1.27814e-05
1.28895e-05
1.29602e-05
1.29684e-05
1.29201e-05
1.28404e-05
1.27524e-05
1.26671e-05
1.25871e-05
1.25108e-05
1.24363e-05
1.23621e-05
1.22869e-05
1.22101e-05
1.21309e-05
1.2049e-05
1.19638e-05
1.1875e-05
1.17822e-05
1.16851e-05
1.15833e-05
1.14765e-05
1.13644e-05
1.12467e-05
1.11229e-05
1.09928e-05
1.1352e-05
1.2356e-05
1.24096e-05
1.2959e-05
1.28778e-05
1.23801e-05
1.24016e-05
1.2602e-05
1.2979e-05
1.32507e-05
1.29142e-05
1.26296e-05
1.25291e-05
1.24664e-05
1.23502e-05
1.23131e-05
1.2806e-05
1.28975e-05
1.23606e-05
1.23405e-05
1.2472e-05
1.25073e-05
1.2583e-05
1.26729e-05
1.27786e-05
1.28817e-05
1.29478e-05
1.29549e-05
1.29089e-05
1.28325e-05
1.27468e-05
1.26627e-05
1.2583e-05
1.25066e-05
1.2432e-05
1.23574e-05
1.2282e-05
1.22048e-05
1.21254e-05
1.20431e-05
1.19577e-05
1.18686e-05
1.17755e-05
1.16781e-05
1.1576e-05
1.14689e-05
1.13565e-05
1.12385e-05
1.11145e-05
1.09841e-05
1.13421e-05
1.23646e-05
1.24219e-05
1.29439e-05
1.28553e-05
1.23837e-05
1.24076e-05
1.26172e-05
1.29945e-05
1.32507e-05
1.29352e-05
1.26451e-05
1.2533e-05
1.24664e-05
1.23515e-05
1.2314e-05
1.27813e-05
1.28863e-05
1.23715e-05
1.23387e-05
1.24688e-05
1.25051e-05
1.25819e-05
1.26718e-05
1.27752e-05
1.28737e-05
1.29357e-05
1.29419e-05
1.2898e-05
1.28245e-05
1.2741e-05
1.2658e-05
1.25786e-05
1.25023e-05
1.24274e-05
1.23526e-05
1.22768e-05
1.21994e-05
1.21196e-05
1.20371e-05
1.19513e-05
1.18618e-05
1.17685e-05
1.16707e-05
1.15683e-05
1.14609e-05
1.13482e-05
1.12299e-05
1.11057e-05
1.0975e-05
1.13318e-05
1.23732e-05
1.24353e-05
1.29314e-05
1.28342e-05
1.23867e-05
1.2414e-05
1.26328e-05
1.30098e-05
1.3252e-05
1.29567e-05
1.26619e-05
1.25378e-05
1.24666e-05
1.23525e-05
1.23131e-05
1.27558e-05
1.28759e-05
1.23832e-05
1.23366e-05
1.2465e-05
1.25023e-05
1.25803e-05
1.26701e-05
1.27712e-05
1.28654e-05
1.29238e-05
1.29293e-05
1.28873e-05
1.28164e-05
1.2735e-05
1.26531e-05
1.25741e-05
1.24977e-05
1.24226e-05
1.23475e-05
1.22715e-05
1.21937e-05
1.21136e-05
1.20307e-05
1.19446e-05
1.18549e-05
1.17612e-05
1.16631e-05
1.15604e-05
1.14527e-05
1.13397e-05
1.12211e-05
1.10966e-05
1.09656e-05
1.13211e-05
1.23816e-05
1.24497e-05
1.29209e-05
1.28145e-05
1.23891e-05
1.24209e-05
1.26484e-05
1.30245e-05
1.32542e-05
1.29786e-05
1.26799e-05
1.25438e-05
1.24675e-05
1.23537e-05
1.2311e-05
1.27295e-05
1.28654e-05
1.23957e-05
1.23342e-05
1.24604e-05
1.2499e-05
1.25782e-05
1.26678e-05
1.27666e-05
1.28568e-05
1.2912e-05
1.2917e-05
1.28767e-05
1.28084e-05
1.27288e-05
1.2648e-05
1.25693e-05
1.24929e-05
1.24175e-05
1.23422e-05
1.22659e-05
1.21878e-05
1.21074e-05
1.20242e-05
1.19378e-05
1.18477e-05
1.17537e-05
1.16553e-05
1.15522e-05
1.14442e-05
1.13309e-05
1.1212e-05
1.10871e-05
1.09558e-05
1.13101e-05
1.23897e-05
1.24644e-05
1.29117e-05
1.27961e-05
1.23914e-05
1.24282e-05
1.26637e-05
1.30381e-05
1.32569e-05
1.30007e-05
1.26992e-05
1.25511e-05
1.24691e-05
1.23554e-05
1.23084e-05
1.27029e-05
1.28543e-05
1.24087e-05
1.23318e-05
1.24548e-05
1.24949e-05
1.25755e-05
1.26649e-05
1.27615e-05
1.28481e-05
1.29004e-05
1.2905e-05
1.28663e-05
1.28002e-05
1.27225e-05
1.26426e-05
1.25643e-05
1.24878e-05
1.24123e-05
1.23367e-05
1.22601e-05
1.21817e-05
1.2101e-05
1.20174e-05
1.19307e-05
1.18403e-05
1.17459e-05
1.16472e-05
1.15438e-05
1.14354e-05
1.13217e-05
1.12025e-05
1.10774e-05
1.09457e-05
1.12986e-05
1.23975e-05
1.24791e-05
1.29035e-05
1.27791e-05
1.23936e-05
1.24357e-05
1.26786e-05
1.30503e-05
1.32598e-05
1.30226e-05
1.27195e-05
1.25596e-05
1.24716e-05
1.23578e-05
1.23059e-05
1.26769e-05
1.28424e-05
1.2422e-05
1.23296e-05
1.24483e-05
1.24901e-05
1.25722e-05
1.26614e-05
1.27558e-05
1.28391e-05
1.28889e-05
1.28931e-05
1.2856e-05
1.27921e-05
1.2716e-05
1.26371e-05
1.25591e-05
1.24826e-05
1.24069e-05
1.2331e-05
1.22541e-05
1.21754e-05
1.20943e-05
1.20105e-05
1.19234e-05
1.18326e-05
1.17379e-05
1.16388e-05
1.15351e-05
1.14263e-05
1.13124e-05
1.11928e-05
1.10673e-05
1.09353e-05
1.12868e-05
1.24049e-05
1.24935e-05
1.28959e-05
1.27636e-05
1.23961e-05
1.24436e-05
1.26927e-05
1.30609e-05
1.32624e-05
1.30437e-05
1.27406e-05
1.25694e-05
1.24752e-05
1.2361e-05
1.23043e-05
1.26523e-05
1.28297e-05
1.24353e-05
1.23279e-05
1.2441e-05
1.24844e-05
1.25684e-05
1.26574e-05
1.27497e-05
1.283e-05
1.28776e-05
1.28815e-05
1.28458e-05
1.27838e-05
1.27093e-05
1.26313e-05
1.25537e-05
1.24772e-05
1.24013e-05
1.23252e-05
1.22479e-05
1.21689e-05
1.20875e-05
1.20033e-05
1.19158e-05
1.18247e-05
1.17296e-05
1.16302e-05
1.15261e-05
1.1417e-05
1.13027e-05
1.11828e-05
1.10569e-05
1.09246e-05
1.12746e-05
1.24122e-05
1.25078e-05
1.28889e-05
1.27496e-05
1.23991e-05
1.24518e-05
1.27064e-05
1.30701e-05
1.32646e-05
1.30638e-05
1.27621e-05
1.25803e-05
1.24797e-05
1.23651e-05
1.23039e-05
1.263e-05
1.28165e-05
1.24484e-05
1.23269e-05
1.24333e-05
1.24782e-05
1.25641e-05
1.2653e-05
1.27433e-05
1.28208e-05
1.28664e-05
1.28701e-05
1.28357e-05
1.27756e-05
1.27026e-05
1.26254e-05
1.25481e-05
1.24716e-05
1.23956e-05
1.23191e-05
1.22416e-05
1.21622e-05
1.20805e-05
1.19959e-05
1.19081e-05
1.18166e-05
1.17212e-05
1.16214e-05
1.15169e-05
1.14075e-05
1.12928e-05
1.11725e-05
1.10463e-05
1.09136e-05
1.12621e-05
1.24197e-05
1.25221e-05
1.28826e-05
1.27371e-05
1.24027e-05
1.24607e-05
1.27196e-05
1.30783e-05
1.32664e-05
1.30825e-05
1.27838e-05
1.25922e-05
1.2485e-05
1.23699e-05
1.2305e-05
1.26108e-05
1.28034e-05
1.2461e-05
1.2327e-05
1.24256e-05
1.24715e-05
1.25594e-05
1.26482e-05
1.27367e-05
1.28115e-05
1.28553e-05
1.28589e-05
1.28257e-05
1.27673e-05
1.26957e-05
1.26194e-05
1.25424e-05
1.24659e-05
1.23897e-05
1.23129e-05
1.22351e-05
1.21553e-05
1.20733e-05
1.19883e-05
1.19002e-05
1.18083e-05
1.17125e-05
1.16124e-05
1.15075e-05
1.13977e-05
1.12827e-05
1.1162e-05
1.10354e-05
1.09024e-05
1.12494e-05
1.24274e-05
1.25366e-05
1.2877e-05
1.27261e-05
1.24072e-05
1.24701e-05
1.27328e-05
1.30859e-05
1.3268e-05
1.30997e-05
1.28053e-05
1.26048e-05
1.2491e-05
1.23753e-05
1.23077e-05
1.2595e-05
1.27911e-05
1.24731e-05
1.23282e-05
1.24182e-05
1.24647e-05
1.25544e-05
1.26432e-05
1.27299e-05
1.28023e-05
1.28444e-05
1.28478e-05
1.28158e-05
1.2759e-05
1.26887e-05
1.26132e-05
1.25366e-05
1.24601e-05
1.23836e-05
1.23066e-05
1.22284e-05
1.21484e-05
1.20659e-05
1.19806e-05
1.18921e-05
1.17999e-05
1.17037e-05
1.16031e-05
1.14979e-05
1.13877e-05
1.12723e-05
1.11513e-05
1.10243e-05
1.08909e-05
1.12363e-05
1.24356e-05
1.25515e-05
1.28724e-05
1.27166e-05
1.24124e-05
1.24802e-05
1.2746e-05
1.30935e-05
1.32697e-05
1.31154e-05
1.28264e-05
1.26181e-05
1.24976e-05
1.2381e-05
1.23119e-05
1.25828e-05
1.278e-05
1.24848e-05
1.23306e-05
1.24115e-05
1.24578e-05
1.25493e-05
1.26381e-05
1.27231e-05
1.27931e-05
1.28336e-05
1.2837e-05
1.2806e-05
1.27507e-05
1.26817e-05
1.2607e-05
1.25307e-05
1.24542e-05
1.23775e-05
1.23002e-05
1.22217e-05
1.21413e-05
1.20584e-05
1.19728e-05
1.18838e-05
1.17913e-05
1.16947e-05
1.15937e-05
1.14881e-05
1.13776e-05
1.12617e-05
1.11403e-05
1.1013e-05
1.08792e-05
1.1223e-05
1.24446e-05
1.25671e-05
1.28688e-05
1.27086e-05
1.24183e-05
1.24909e-05
1.27595e-05
1.31012e-05
1.3272e-05
1.313e-05
1.2847e-05
1.26319e-05
1.25047e-05
1.23869e-05
1.23172e-05
1.25738e-05
1.27705e-05
1.24961e-05
1.23341e-05
1.24056e-05
1.24511e-05
1.25441e-05
1.26329e-05
1.27162e-05
1.27841e-05
1.28232e-05
1.28263e-05
1.27963e-05
1.27424e-05
1.26747e-05
1.26007e-05
1.25247e-05
1.24482e-05
1.23713e-05
1.22938e-05
1.22149e-05
1.21341e-05
1.20509e-05
1.19648e-05
1.18755e-05
1.17825e-05
1.16855e-05
1.15842e-05
1.14782e-05
1.13672e-05
1.1251e-05
1.11292e-05
1.10015e-05
1.08672e-05
1.12094e-05
1.24543e-05
1.25835e-05
1.28664e-05
1.27023e-05
1.24249e-05
1.2502e-05
1.27733e-05
1.31093e-05
1.32749e-05
1.31436e-05
1.2867e-05
1.26462e-05
1.25122e-05
1.23928e-05
1.23234e-05
1.25678e-05
1.27627e-05
1.25073e-05
1.23387e-05
1.24006e-05
1.24446e-05
1.25389e-05
1.26277e-05
1.27094e-05
1.27753e-05
1.28129e-05
1.28159e-05
1.27868e-05
1.27342e-05
1.26676e-05
1.25944e-05
1.25187e-05
1.24421e-05
1.23651e-05
1.22872e-05
1.2208e-05
1.21268e-05
1.20432e-05
1.19567e-05
1.1867e-05
1.17736e-05
1.16762e-05
1.15745e-05
1.1468e-05
1.13567e-05
1.124e-05
1.11178e-05
1.09897e-05
1.08551e-05
1.11956e-05
1.24651e-05
1.26008e-05
1.28653e-05
1.26974e-05
1.2432e-05
1.25133e-05
1.27872e-05
1.31179e-05
1.32787e-05
1.31566e-05
1.28866e-05
1.26609e-05
1.25201e-05
1.23987e-05
1.23303e-05
1.25643e-05
1.27567e-05
1.25184e-05
1.23443e-05
1.23965e-05
1.24383e-05
1.25337e-05
1.26225e-05
1.27028e-05
1.27666e-05
1.28029e-05
1.28057e-05
1.27774e-05
1.2726e-05
1.26605e-05
1.2588e-05
1.25126e-05
1.24361e-05
1.23589e-05
1.22807e-05
1.22011e-05
1.21195e-05
1.20355e-05
1.19486e-05
1.18584e-05
1.17646e-05
1.16668e-05
1.15646e-05
1.14578e-05
1.13459e-05
1.12289e-05
1.11063e-05
1.09778e-05
1.08427e-05
1.11816e-05
1.24769e-05
1.2619e-05
1.28654e-05
1.26942e-05
1.24395e-05
1.25246e-05
1.28008e-05
1.31266e-05
1.32832e-05
1.31693e-05
1.29059e-05
1.26762e-05
1.25284e-05
1.24046e-05
1.23376e-05
1.25626e-05
1.27523e-05
1.25297e-05
1.23508e-05
1.23933e-05
1.24322e-05
1.25285e-05
1.26173e-05
1.26962e-05
1.27582e-05
1.27932e-05
1.27957e-05
1.27681e-05
1.27179e-05
1.26534e-05
1.25816e-05
1.25065e-05
1.243e-05
1.23526e-05
1.22741e-05
1.21941e-05
1.21121e-05
1.20277e-05
1.19403e-05
1.18497e-05
1.17555e-05
1.16572e-05
1.15546e-05
1.14473e-05
1.13351e-05
1.12176e-05
1.10946e-05
1.09656e-05
1.08301e-05
1.11673e-05
1.24899e-05
1.2638e-05
1.28667e-05
1.26925e-05
1.24473e-05
1.25354e-05
1.28137e-05
1.31351e-05
1.32883e-05
1.31817e-05
1.29248e-05
1.26919e-05
1.25372e-05
1.24106e-05
1.23452e-05
1.25624e-05
1.27492e-05
1.25413e-05
1.23583e-05
1.23909e-05
1.24263e-05
1.25232e-05
1.26121e-05
1.26897e-05
1.275e-05
1.27837e-05
1.2786e-05
1.27591e-05
1.27098e-05
1.26464e-05
1.25752e-05
1.25004e-05
1.24239e-05
1.23463e-05
1.22675e-05
1.21871e-05
1.21047e-05
1.20198e-05
1.1932e-05
1.1841e-05
1.17463e-05
1.16475e-05
1.15445e-05
1.14367e-05
1.1324e-05
1.12061e-05
1.10826e-05
1.09532e-05
1.08173e-05
1.11527e-05
1.2504e-05
1.26578e-05
1.28694e-05
1.26926e-05
1.24554e-05
1.25455e-05
1.28255e-05
1.31429e-05
1.32935e-05
1.31938e-05
1.29435e-05
1.27081e-05
1.25466e-05
1.24167e-05
1.23531e-05
1.25633e-05
1.27473e-05
1.25532e-05
1.23667e-05
1.23892e-05
1.24205e-05
1.25178e-05
1.26069e-05
1.26834e-05
1.2742e-05
1.27745e-05
1.27765e-05
1.27502e-05
1.27019e-05
1.26393e-05
1.25688e-05
1.24943e-05
1.24178e-05
1.234e-05
1.22608e-05
1.21801e-05
1.20972e-05
1.20119e-05
1.19237e-05
1.18321e-05
1.17369e-05
1.16377e-05
1.15342e-05
1.1426e-05
1.13128e-05
1.11944e-05
1.10705e-05
1.09407e-05
1.08043e-05
1.11379e-05
1.25193e-05
1.26782e-05
1.28733e-05
1.26945e-05
1.24638e-05
1.25548e-05
1.28358e-05
1.31496e-05
1.32986e-05
1.32055e-05
1.29619e-05
1.27247e-05
1.25565e-05
1.24231e-05
1.23612e-05
1.25649e-05
1.27463e-05
1.25654e-05
1.23761e-05
1.23885e-05
1.2415e-05
1.25123e-05
1.26016e-05
1.26772e-05
1.27342e-05
1.27656e-05
1.27673e-05
1.27414e-05
1.2694e-05
1.26323e-05
1.25624e-05
1.24882e-05
1.24117e-05
1.23337e-05
1.22542e-05
1.2173e-05
1.20898e-05
1.2004e-05
1.19152e-05
1.18232e-05
1.17275e-05
1.16278e-05
1.15238e-05
1.14151e-05
1.13014e-05
1.11826e-05
1.10581e-05
1.09278e-05
1.07909e-05
1.11226e-05
1.25359e-05
1.26991e-05
1.28785e-05
1.26982e-05
1.24728e-05
1.25632e-05
1.28443e-05
1.31547e-05
1.3303e-05
1.32167e-05
1.29799e-05
1.27415e-05
1.25669e-05
1.24299e-05
1.23696e-05
1.25672e-05
1.27461e-05
1.25779e-05
1.23864e-05
1.23886e-05
1.24097e-05
1.25068e-05
1.25963e-05
1.2671e-05
1.27267e-05
1.2757e-05
1.27584e-05
1.27329e-05
1.26863e-05
1.26254e-05
1.2556e-05
1.24821e-05
1.24056e-05
1.23273e-05
1.22476e-05
1.2166e-05
1.20822e-05
1.1996e-05
1.19067e-05
1.18142e-05
1.1718e-05
1.16178e-05
1.15132e-05
1.1404e-05
1.12899e-05
1.11705e-05
1.10455e-05
1.09146e-05
1.07772e-05
1.11069e-05
1.25537e-05
1.27205e-05
1.2885e-05
1.27039e-05
1.24824e-05
1.25707e-05
1.28507e-05
1.31578e-05
1.33064e-05
1.32272e-05
1.29974e-05
1.27585e-05
1.25778e-05
1.24371e-05
1.23783e-05
1.25699e-05
1.27465e-05
1.25906e-05
1.23976e-05
1.23896e-05
1.24049e-05
1.25013e-05
1.2591e-05
1.2665e-05
1.27194e-05
1.27487e-05
1.27498e-05
1.27246e-05
1.26787e-05
1.26186e-05
1.25497e-05
1.2476e-05
1.23994e-05
1.2321e-05
1.22409e-05
1.21589e-05
1.20747e-05
1.19879e-05
1.18982e-05
1.18051e-05
1.17084e-05
1.16076e-05
1.15026e-05
1.13929e-05
1.12782e-05
1.11583e-05
1.10328e-05
1.09014e-05
1.07635e-05
1.10912e-05
1.25728e-05
1.27424e-05
1.28928e-05
1.27115e-05
1.2493e-05
1.25775e-05
1.28551e-05
1.31589e-05
1.33084e-05
1.32367e-05
1.30142e-05
1.27753e-05
1.25891e-05
1.24449e-05
1.23874e-05
1.25731e-05
1.27474e-05
1.26034e-05
1.24095e-05
1.23916e-05
1.24005e-05
1.24959e-05
1.25857e-05
1.26592e-05
1.27124e-05
1.27406e-05
1.27414e-05
1.27165e-05
1.26713e-05
1.26118e-05
1.25434e-05
1.24699e-05
1.23933e-05
1.23147e-05
1.22342e-05
1.21518e-05
1.20671e-05
1.19798e-05
1.18895e-05
1.17959e-05
1.16986e-05
1.15974e-05
1.14918e-05
1.13815e-05
1.12663e-05
1.11459e-05
1.10199e-05
1.0888e-05
1.07496e-05
1.10753e-05
1.25931e-05
1.27647e-05
1.29019e-05
1.27211e-05
1.25048e-05
1.2584e-05
1.28575e-05
1.31577e-05
1.3309e-05
1.32451e-05
1.30302e-05
1.2792e-05
1.26007e-05
1.2453e-05
1.23967e-05
1.25767e-05
1.27487e-05
1.26163e-05
1.24223e-05
1.23946e-05
1.23968e-05
1.24907e-05
1.25805e-05
1.26535e-05
1.27056e-05
1.27329e-05
1.27333e-05
1.27087e-05
1.2664e-05
1.26051e-05
1.25372e-05
1.24638e-05
1.23872e-05
1.23083e-05
1.22275e-05
1.21446e-05
1.20594e-05
1.19716e-05
1.18807e-05
1.17866e-05
1.16888e-05
1.15869e-05
1.14808e-05
1.137e-05
1.12543e-05
1.11333e-05
1.10068e-05
1.08745e-05
1.07356e-05
1.10593e-05
1.26147e-05
1.27874e-05
1.29122e-05
1.27326e-05
1.2518e-05
1.25904e-05
1.28582e-05
1.31544e-05
1.33079e-05
1.32522e-05
1.30454e-05
1.28083e-05
1.26124e-05
1.24617e-05
1.24064e-05
1.25805e-05
1.27503e-05
1.26292e-05
1.24356e-05
1.23985e-05
1.23935e-05
1.24857e-05
1.25754e-05
1.26479e-05
1.26991e-05
1.27255e-05
1.27255e-05
1.27011e-05
1.26569e-05
1.25985e-05
1.2531e-05
1.24578e-05
1.23811e-05
1.2302e-05
1.22207e-05
1.21374e-05
1.20516e-05
1.19632e-05
1.18719e-05
1.17771e-05
1.16787e-05
1.15763e-05
1.14696e-05
1.13582e-05
1.1242e-05
1.11205e-05
1.09936e-05
1.08608e-05
1.07215e-05
1.10434e-05
1.26377e-05
1.28106e-05
1.29236e-05
1.2746e-05
1.25328e-05
1.25971e-05
1.28576e-05
1.31492e-05
1.33052e-05
1.32579e-05
1.30595e-05
1.28242e-05
1.26243e-05
1.24707e-05
1.24163e-05
1.25846e-05
1.27522e-05
1.26421e-05
1.24495e-05
1.24032e-05
1.23909e-05
1.24808e-05
1.25703e-05
1.26424e-05
1.26928e-05
1.27183e-05
1.27179e-05
1.26936e-05
1.26499e-05
1.2592e-05
1.25248e-05
1.24518e-05
1.2375e-05
1.22956e-05
1.22139e-05
1.21301e-05
1.20438e-05
1.19548e-05
1.18628e-05
1.17675e-05
1.16685e-05
1.15655e-05
1.14581e-05
1.13462e-05
1.12293e-05
1.11073e-05
1.09798e-05
1.08465e-05
1.07069e-05
1.1027e-05
1.26619e-05
1.28342e-05
1.29362e-05
1.2761e-05
1.25493e-05
1.26045e-05
1.2856e-05
1.31424e-05
1.33008e-05
1.32622e-05
1.30725e-05
1.28395e-05
1.26362e-05
1.24802e-05
1.24265e-05
1.25888e-05
1.27541e-05
1.26548e-05
1.24639e-05
1.24088e-05
1.23887e-05
1.2476e-05
1.25651e-05
1.2637e-05
1.26866e-05
1.27114e-05
1.27106e-05
1.26864e-05
1.2643e-05
1.25856e-05
1.25187e-05
1.24458e-05
1.23688e-05
1.22891e-05
1.2207e-05
1.21227e-05
1.20358e-05
1.19463e-05
1.18536e-05
1.17577e-05
1.1658e-05
1.15544e-05
1.14464e-05
1.13338e-05
1.12163e-05
1.10936e-05
1.09654e-05
1.08316e-05
1.06914e-05
1.10093e-05
1.26875e-05
1.28581e-05
1.29497e-05
1.27776e-05
1.25676e-05
1.26129e-05
1.28541e-05
1.31343e-05
1.32949e-05
1.3265e-05
1.30843e-05
1.28543e-05
1.26482e-05
1.249e-05
1.24369e-05
1.25931e-05
1.27562e-05
1.26674e-05
1.24787e-05
1.24151e-05
1.23869e-05
1.24712e-05
1.25598e-05
1.26315e-05
1.26805e-05
1.27046e-05
1.27035e-05
1.26793e-05
1.26363e-05
1.25793e-05
1.25126e-05
1.24397e-05
1.23627e-05
1.22826e-05
1.22001e-05
1.21152e-05
1.20277e-05
1.19375e-05
1.18443e-05
1.17477e-05
1.16473e-05
1.1543e-05
1.14343e-05
1.1321e-05
1.12028e-05
1.10793e-05
1.09503e-05
1.08154e-05
1.06741e-05
1.09888e-05
1.27142e-05
1.28823e-05
1.2964e-05
1.27954e-05
1.25876e-05
1.26226e-05
1.28523e-05
1.31255e-05
1.32878e-05
1.32663e-05
1.30949e-05
1.28684e-05
1.26602e-05
1.25003e-05
1.24475e-05
1.25975e-05
1.27583e-05
1.26799e-05
1.2494e-05
1.24222e-05
1.23854e-05
1.24664e-05
1.25544e-05
1.26258e-05
1.26744e-05
1.26979e-05
1.26965e-05
1.26724e-05
1.26297e-05
1.2573e-05
1.25066e-05
1.24337e-05
1.23564e-05
1.22761e-05
1.21931e-05
1.21076e-05
1.20195e-05
1.19287e-05
1.18347e-05
1.17374e-05
1.16365e-05
1.15315e-05
1.14222e-05
1.13083e-05
1.11895e-05
1.10656e-05
1.09362e-05
1.08011e-05
1.06598e-05
1.09729e-05
1.27421e-05
1.29066e-05
1.29787e-05
1.28142e-05
1.26092e-05
1.26337e-05
1.2851e-05
1.31164e-05
1.32797e-05
1.32665e-05
1.31043e-05
1.2882e-05
1.26724e-05