/*--------------------------------*- C++ -*----------------------------------*\
  =========                 |
  \\      /  F ield         | OpenFOAM: The Open Source CFD Toolbox
   \\    /   O peration     | Website:  https://openfoam.org
    \\  /    A nd           | Version:  9
     \\/     M anipulation  |
\*---------------------------------------------------------------------------*/
FoamFile
{
    format      ascii;
    class       surfaceScalarField;
    location    "0.04";
    object      alphaPhi0.water;
}
// * * * * * * * * * * * * * * * * * * * * * * * * * * * * * * * * * * * * * //

dimensions      [0 3 -1 0 0 0 0];

internalField   nonuniform List<scalar> 
9850
(
-6.04806e-308
1.84935e-307
-2.39675e-307
7.58999e-307
-9.77504e-307
3.15322e-306
-4.10613e-306
1.34791e-305
-1.77689e-305
5.93408e-305
-7.92292e-305
2.69116e-304
-3.64071e-304
1.25748e-303
-1.72437e-303
6.05496e-303
-8.41943e-303
3.00495e-302
-4.23829e-302
1.53723e-301
-2.19988e-301
8.10705e-301
-1.17745e-300
4.4081e-300
-6.49885e-300
2.47135e-299
-3.69908e-299
1.42866e-298
-2.17123e-298
8.51607e-298
-1.31418e-297
5.23431e-297
-8.20165e-297
3.31714e-296
-5.27702e-296
2.16726e-295
-3.49979e-295
1.45962e-294
-2.392e-294
1.01315e-293
-1.68433e-293
7.24623e-293
-1.22149e-292
5.33858e-292
-9.11951e-292
4.05007e-291
-7.00563e-291
3.16255e-290
-5.53414e-290
2.54052e-289
-4.49218e-289
2.0982e-288
-3.74366e-288
1.78023e-287
-3.20017e-287
1.55036e-286
-2.80342e-286
1.38455e-285
-2.51263e-285
1.26678e-284
-2.62917e-284
1.38243e-283
-2.69157e-283
1.43837e-282
-2.69179e-282
1.46403e-281
-2.62739e-281
1.45557e-280
-2.50043e-280
1.41224e-279
-2.31759e-279
1.33578e-278
-2.08961e-278
1.23035e-277
-1.83038e-277
1.10222e-276
-1.55542e-276
9.59136e-276
-1.28035e-275
8.09566e-275
-1.01922e-274
6.61789e-274
-7.83214e-274
5.2307e-273
-5.79862e-273
3.99017e-272
-4.12744e-272
2.93199e-271
-2.81805e-271
2.07087e-270
-1.84088e-270
1.40269e-269
-1.14721e-269
9.08816e-269
-6.79649e-269
5.61578e-268
-3.81163e-268
3.29767e-267
1.83226e-266
-3.2283e-305
9.87729e-305
-1.27749e-304
4.04926e-304
-5.2031e-304
1.68025e-303
-2.18263e-303
7.17377e-303
-9.43176e-303
3.15419e-302
-4.1994e-302
1.42858e-301
-1.92681e-301
6.66624e-301
-9.11208e-301
3.20547e-300
-4.44204e-300
1.58855e-299
-2.23247e-299
8.11468e-299
-1.15683e-298
4.27316e-298
-6.18108e-298
2.31993e-297
-3.40559e-297
1.29861e-296
-1.93491e-296
7.49517e-296
-1.13361e-295
4.46052e-295
-6.84828e-295
2.73707e-294
-4.26555e-294
1.73163e-293
-2.73897e-293
1.12942e-292
-1.81278e-292
7.59331e-292
-1.23637e-291
5.26137e-291
-8.6872e-291
3.7563e-290
-6.2862e-290
2.76243e-289
-4.68267e-289
2.0919e-288
-3.58903e-288
1.63052e-287
-2.8286e-287
1.30744e-286
-2.29062e-286
1.07784e-285
-1.90437e-285
9.12857e-285
-1.62395e-284
7.93572e-284
-1.41913e-283
7.07469e-283
-1.26878e-282
6.46193e-282
-1.32406e-281
7.04018e-281
-1.35197e-280
7.31302e-280
-1.34866e-279
7.43233e-279
-1.31317e-278
7.37936e-278
-1.24676e-277
7.15118e-277
-1.15295e-276
6.75717e-276
-1.03727e-275
6.21877e-275
-9.06694e-275
5.56775e-274
-7.68977e-274
4.84318e-273
-6.31815e-273
4.08743e-272
-5.02083e-272
3.34182e-271
-3.85205e-271
2.64252e-270
-2.84767e-270
2.01735e-269
-2.02416e-269
1.484e-268
-1.3802e-268
1.04971e-267
-9.00456e-268
7.12358e-267
-5.60453e-267
4.6263e-266
-3.31652e-266
2.86696e-265
-1.85827e-265
1.68943e-264
9.42624e-264
-1.2518e-302
3.83257e-302
-4.95006e-302
1.57004e-301
-2.01441e-301
6.50978e-301
-8.44253e-301
2.77705e-300
-3.64481e-300
1.21998e-299
-1.62121e-299
5.52062e-299
-7.43098e-299
2.57377e-298
-3.51046e-298
1.23644e-297
-1.70943e-297
6.12158e-297
-8.5815e-297
3.12394e-296
-4.44159e-296
1.64338e-295
-2.37034e-295
8.91276e-295
-1.30436e-294
4.98373e-294
-7.40137e-294
2.87333e-293
-4.33056e-293
1.70808e-292
-2.61261e-292
1.04693e-291
-1.62505e-291
6.61598e-291
-1.04199e-290
4.31016e-290
-6.88634e-290
2.89441e-289
-4.68972e-289
2.00317e-288
-3.29016e-288
1.42845e-287
-2.37713e-287
1.04926e-286
-1.76797e-286
7.93634e-286
-1.35289e-285
6.17868e-285
-1.06451e-284
4.94868e-284
-8.60635e-284
4.07504e-283
-7.14325e-283
3.44747e-282
-6.08123e-282
2.9938e-281
-5.30534e-281
2.66627e-280
-4.73521e-280
2.43301e-279
-4.93233e-279
2.64836e-278
-5.02736e-278
2.74869e-277
-5.00663e-277
2.79163e-276
-4.86709e-276
2.77029e-275
-4.614e-275
2.6837e-274
-4.26088e-274
2.53545e-273
-3.82842e-273
2.33355e-272
-3.34257e-272
2.08984e-271
-2.8319e-271
1.81882e-270
-2.32464e-270
1.5362e-269
-1.84587e-269
1.25732e-268
-1.41526e-268
9.95582e-268
-1.04571e-267
7.61344e-267
-7.43016e-267
5.61214e-266
-5.06494e-266
3.97946e-265
-3.30383e-265
2.70828e-264
-2.0562e-264
1.76469e-263
-1.21691e-263
1.09777e-262
-6.82138e-263
6.49721e-262
3.64325e-261
-4.56588e-300
1.39896e-299
-1.80465e-299
5.72762e-299
-7.33948e-299
2.37333e-298
-3.07393e-298
1.01179e-297
-1.32611e-297
4.44189e-297
-5.89403e-297
2.00861e-296
-2.69941e-296
9.35751e-296
-1.27415e-295
4.49196e-295
-6.19906e-295
2.22223e-294
-3.10913e-294
1.13313e-293
-1.60769e-293
5.95606e-293
-8.57128e-293
3.2275e-292
-4.71186e-292
1.80316e-291
-2.67085e-291
1.03868e-290
-1.56103e-290
6.16905e-290
-9.40716e-290
3.77776e-289
-5.84458e-289
2.38511e-288
-3.74317e-288
1.5524e-287
-2.47084e-287
1.04151e-286
-1.68062e-286
7.20135e-286
-1.17759e-285
5.13043e-285
-8.49717e-285
3.765e-284
-6.31147e-284
2.84512e-283
-4.8233e-283
2.21299e-282
-3.79011e-282
1.77087e-281
-3.06008e-281
1.45698e-280
-2.5364e-280
1.23158e-279
-2.15635e-279
1.06868e-278
-1.87865e-278
9.51066e-278
-1.67446e-277
8.6729e-277
-1.74148e-276
9.4349e-276
-1.77247e-275
9.78712e-275
-1.76276e-274
9.93634e-274
-1.71145e-273
9.85834e-273
-1.62056e-272
9.54989e-272
-1.49493e-271
9.02376e-271
-1.34191e-270
8.30823e-270
-1.17062e-269
7.44492e-269
-9.91066e-269
6.48481e-268
-8.13063e-268
5.48317e-267
-6.45315e-267
4.49391e-266
-4.94617e-266
3.56437e-265
-3.65399e-265
2.73121e-264
-2.59618e-264
2.018e-263
-1.7699e-263
1.43481e-262
-1.15475e-262
9.79525e-262
-7.18953e-262
6.40506e-261
-4.25758e-261
4.00033e-260
-2.38897e-260
2.37821e-259
1.3402e-258
-1.65751e-297
5.08113e-297
-6.54759e-297
2.0791e-296
-2.6612e-296
8.60965e-296
-1.11381e-295
3.66805e-295
-4.80166e-295
1.60923e-294
-2.13256e-294
7.27184e-294
-9.75932e-294
3.38529e-293
-4.60275e-293
1.62386e-292
-2.23746e-292
8.02731e-292
-1.1212e-291
4.08996e-291
-5.79226e-291
2.14807e-290
-3.08517e-290
1.16304e-289
-1.69433e-289
6.49229e-289
-9.59432e-289
3.73656e-288
-5.60173e-288
2.21731e-287
-3.37211e-287
1.35661e-286
-2.09274e-286
8.55737e-286
-1.33878e-285
5.56469e-285
-8.82688e-285
3.72996e-284
-5.99674e-284
2.57665e-283
-4.19676e-283
1.834e-282
-3.02452e-282
1.34466e-281
-2.24371e-281
1.01521e-280
-1.71248e-280
7.88955e-280
-1.34392e-279
6.30788e-279
-1.08364e-278
5.18547e-278
-8.97018e-278
4.37975e-277
-7.61604e-277
3.79754e-276
-6.62647e-276
3.37724e-275
-5.89838e-275
3.07779e-274
-6.12536e-274
3.34628e-273
-6.22564e-273
3.46945e-272
-6.1834e-272
3.52112e-271
-5.99606e-271
3.49281e-270
-5.67115e-270
3.38347e-269
-5.22609e-269
3.19759e-268
-4.6868e-268
2.94513e-267
-4.08524e-267
2.64064e-266
-3.45622e-266
2.30199e-265
-2.83386e-265
1.94851e-264
-2.24821e-264
1.59911e-263
-1.72269e-263
1.27041e-262
-1.27245e-262
9.75348e-262
-9.04084e-262
7.22291e-261
-6.16439e-261
5.14902e-260
-4.02317e-260
3.52568e-259
-2.50617e-259
2.31319e-258
-1.48536e-258
1.45016e-257
-8.34522e-258
8.65708e-257
4.90081e-256
-6.0443e-295
1.85317e-294
-2.38604e-294
7.57796e-294
-9.69089e-294
3.13592e-293
-4.053e-293
1.33508e-292
-1.74591e-292
5.85296e-292
-7.74792e-292
2.64287e-291
-3.54278e-291
1.2294e-290
-1.66943e-290
5.89252e-290
-8.10811e-290
2.9105e-289
-4.05927e-289
1.48168e-288
-2.09507e-288
7.7752e-288
-1.11481e-287
4.20611e-287
-6.11613e-287
2.34582e-286
-3.45969e-286
1.34888e-285
-2.01779e-285
7.99702e-285
-1.21331e-284
4.88822e-284
-7.52128e-284
3.08052e-283
-4.80594e-283
2.00129e-282
-3.16489e-282
1.34015e-281
-2.14751e-281
9.24883e-281
-1.50105e-280
6.57674e-280
-1.0804e-279
4.81736e-279
-8.00454e-279
3.63362e-278
-6.10139e-278
2.82116e-277
-4.78191e-277
2.25352e-276
-3.85067e-276
1.85088e-275
-3.18323e-275
1.56196e-274
-2.69905e-274
1.35322e-273
-2.34518e-273
1.20254e-272
-2.08467e-272
1.09514e-271
-2.16162e-271
1.18992e-270
-2.19387e-270
1.23302e-269
-2.17605e-269
1.25086e-268
-2.10745e-268
1.24047e-267
-1.99091e-267
1.20152e-266
-1.8327e-266
1.1356e-265
-1.64197e-265
1.04623e-264
-1.42999e-264
9.38512e-264
-1.20891e-263
8.18727e-263
-9.9061e-263
6.93664e-262
-7.85513e-262
5.69964e-261
-6.01695e-261
4.53479e-260
-4.44353e-260
3.48771e-259
-3.15707e-259
2.58819e-258
-2.15294e-258
1.84949e-257
-1.40562e-257
1.26986e-256
-8.76153e-257
8.35714e-256
-5.1979e-256
5.25695e-255
-2.92477e-255
3.14991e-254
1.79032e-253
-2.21452e-292
6.78857e-292
-8.73537e-292
2.77397e-291
-3.54506e-291
1.14706e-290
-1.48144e-290
4.87969e-290
-6.37621e-290
2.13753e-289
-2.82716e-289
9.64399e-289
-1.29158e-288
4.48238e-288
-6.08057e-288
2.14656e-287
-2.9504e-287
1.05932e-286
-1.47565e-286
5.38792e-286
-7.60836e-286
2.82473e-285
-4.04427e-285
1.52664e-284
-2.21641e-284
8.50619e-284
-1.25236e-283
4.88643e-283
-7.29585e-283
2.89411e-282
-4.38195e-282
1.76727e-281
-2.71312e-281
1.11259e-280
-1.73151e-280
7.22063e-280
-1.13884e-279
4.83029e-279
-7.71774e-279
3.33009e-278
-5.38747e-278
2.36554e-277
-3.87262e-277
1.73094e-276
-2.86533e-276
1.30427e-275
-2.18112e-275
1.01162e-274
-1.70709e-274
8.07276e-274
-1.37275e-273
6.62402e-273
-1.13323e-272
5.5848e-272
-9.59522e-272
4.83416e-271
-8.32556e-271
4.29226e-270
-7.39029e-270
3.90588e-269
-7.6512e-269
4.24084e-268
-7.7539e-268
4.39157e-267
-7.68013e-267
4.45282e-266
-7.4282e-266
4.41424e-265
-7.00879e-265
4.27473e-264
-6.44445e-264
4.04006e-263
-5.76781e-263
3.72264e-262
-5.0185e-262
3.34053e-261
-4.23918e-261
2.9158e-260
-3.47129e-260
2.47234e-259
-2.75107e-259
2.03355e-258
-2.10643e-258
1.62003e-257
-1.55522e-257
1.24791e-256
-1.10488e-256
9.27767e-256
-7.53566e-256
6.64387e-255
-4.92173e-255
4.57278e-254
-3.0699e-254
3.01758e-253
-1.82326e-253
1.90382e-252
-1.02765e-252
1.14441e-251
6.52666e-251
-8.14293e-290
2.49513e-289
-3.20936e-289
1.01874e-288
-1.30132e-288
4.20905e-288
-5.43321e-288
1.78902e-287
-2.33635e-287
7.82981e-287
-1.03494e-286
3.52942e-286
-4.72352e-286
1.63891e-285
-2.22155e-285
7.84116e-285
-1.07683e-284
3.86587e-284
-5.3801e-284
1.96433e-283
-2.77095e-283
1.02882e-282
-1.47128e-282
5.55464e-282
-8.05395e-282
3.09175e-281
-4.5455e-281
1.7742e-280
-2.64488e-280
1.0497e-279
-1.58659e-279
6.40299e-279
-9.81121e-279
4.02663e-278
-6.2535e-278
2.61039e-277
-4.10766e-277
1.74431e-276
-2.77999e-276
1.20122e-275
-1.93798e-275
8.52347e-275
-1.39114e-274
6.22998e-274
-1.02786e-273
4.68917e-273
-7.81316e-273
3.63306e-272
-6.10638e-272
2.89609e-271
-4.90337e-271
2.37387e-270
-4.04197e-270
1.99941e-269
-3.41743e-269
1.72899e-268
-2.96091e-268
1.53374e-267
-2.62444e-267
1.39446e-266
-2.71274e-266
1.51281e-265
-2.74494e-265
1.56541e-264
-2.71486e-264
1.58626e-263
-2.62217e-263
1.57177e-262
-2.4709e-262
1.52159e-261
-2.2692e-261
1.43782e-260
-2.02868e-260
1.32487e-259
-1.76335e-259
1.18911e-258
-1.48819e-258
1.03833e-257
-1.21768e-257
8.80949e-257
-9.64422e-257
7.25202e-256
-7.38076e-256
5.78353e-255
-5.44759e-255
4.46095e-254
-3.86964e-254
3.32176e-253
-2.63944e-253
2.38313e-252
-1.72449e-252
1.64367e-251
-1.07639e-251
1.08718e-250
-6.40017e-251
6.87643e-250
-3.61376e-250
4.1446e-249
2.3703e-248
-3.00167e-287
9.19096e-287
-1.18194e-286
3.74915e-286
-4.78795e-286
1.54756e-285
-1.99708e-285
6.57148e-285
-8.5791e-285
2.87328e-284
-3.79641e-284
1.29389e-283
-1.73087e-283
6.00221e-283
-8.1318e-283
2.86873e-282
-3.93729e-282
1.41287e-281
-1.96494e-281
7.17144e-281
-1.01084e-280
3.75195e-280
-5.36086e-280
2.02348e-279
-2.93104e-279
1.12502e-278
-1.65217e-278
6.44864e-278
-9.6013e-278
3.81093e-277
-5.7521e-277
2.32191e-276
-3.5523e-276
1.45846e-275
-2.26113e-275
9.4438e-275
-1.4832e-274
6.30302e-274
-1.0024e-273
4.33543e-273
-6.97805e-273
3.07261e-272
-5.00187e-272
2.24316e-271
-3.69031e-271
1.68638e-270
-2.801e-270
1.30504e-269
-2.18587e-269
1.03911e-268
-1.75261e-268
8.50777e-268
-1.44254e-267
7.15784e-267
-1.21781e-266
6.18314e-266
-1.05353e-265
5.47932e-265
-9.32384e-265
4.97692e-264
-9.6216e-264
5.39438e-263
-9.72034e-263
5.57716e-262
-9.59917e-262
5.64736e-261
-9.25801e-261
5.59242e-260
-8.71196e-260
5.41144e-259
-7.9905e-259
5.11197e-258
-7.13506e-258
4.70971e-257
-6.1951e-257
4.22725e-256
-5.22327e-256
3.69204e-255
-4.27017e-255
3.13375e-254
-3.3796e-254
2.58133e-253
-2.58494e-253
2.06036e-252
-1.90712e-252
1.59089e-251
-1.35442e-251
1.18616e-250
-9.23863e-251
8.52277e-250
-6.038e-250
5.8884e-249
-3.77135e-249
3.90224e-248
-2.24504e-248
2.47324e-247
-1.26992e-247
1.49388e-246
8.56208e-246
-1.10621e-284
3.38364e-284
-4.35121e-284
1.37878e-283
-1.76071e-283
5.68522e-283
-7.33587e-283
2.41151e-282
-3.14777e-282
1.05322e-281
-1.39133e-281
4.73753e-281
-6.33588e-281
2.19516e-280
-2.97305e-280
1.04795e-279
-1.43773e-279
5.15509e-279
-7.16603e-279
2.61348e-278
-3.68173e-278
1.36565e-277
-1.94998e-277
7.35599e-277
-1.06471e-276
4.08468e-276
-5.99332e-276
2.33836e-275
-3.47802e-275
1.38011e-274
-2.08069e-274
8.39772e-274
-1.28309e-273
5.26791e-273
-8.15504e-273
3.40653e-272
-5.34126e-272
2.27055e-271
-3.60427e-271
1.55966e-270
-2.50513e-270
1.10387e-269
-1.79283e-269
8.04792e-269
-1.3206e-268
6.04216e-268
-1.00072e-267
4.66957e-267
-7.79668e-267
3.71308e-266
-6.2409e-266
3.0361e-265
-5.1282e-265
2.55106e-264
-4.32197e-264
2.20089e-263
-3.73263e-263
1.94798e-262
-3.29778e-262
1.76727e-261
-3.39683e-261
1.91333e-260
-3.42556e-260
1.976e-259
-3.37701e-259
1.99891e-258
-3.25154e-258
1.97775e-257
-3.05486e-257
1.91232e-256
-2.79758e-256
1.80539e-255
-2.49446e-255
1.66254e-254
-2.16289e-254
1.49176e-253
-1.82129e-253
1.30268e-252
-1.48723e-252
1.10571e-251
-1.17584e-251
9.10964e-251
-8.98548e-251
7.2738e-250
-6.62441e-250
5.61951e-249
-4.702e-249
4.19295e-248
-3.20622e-248
3.01545e-247
-2.09537e-247
2.0856e-246
-1.3092e-246
1.38375e-245
-7.79964e-246
8.78115e-245
-4.4181e-245
5.31062e-244
3.04738e-243
-3.46931e-282
1.06194e-281
-1.3598e-281
4.31284e-281
-5.48228e-281
1.77205e-280
-2.27552e-280
7.48903e-280
-9.72605e-280
3.2585e-279
-4.28169e-279
1.46002e-278
-1.94173e-278
6.738e-278
-9.07245e-278
3.20338e-277
-4.36796e-277
1.56912e-276
-2.16721e-276
7.92016e-276
-1.10823e-275
4.11994e-275
-5.84117e-275
2.20887e-274
-3.17341e-274
1.22068e-273
-1.77712e-273
6.95358e-273
-1.02581e-272
4.08318e-272
-6.10314e-272
2.47155e-271
-3.74231e-271
1.54207e-270
-2.36466e-270
9.91663e-270
-1.53946e-269
6.57207e-269
-1.03239e-268
4.48794e-268
-7.12973e-268
3.15725e-267
-5.06891e-267
2.28758e-266
-3.70845e-266
1.70652e-265
-2.79057e-265
1.31023e-264
-2.15851e-264
1.03486e-263
-1.71499e-263
8.40346e-263
-1.39847e-262
7.01101e-262
-1.16933e-261
6.00475e-261
-1.00167e-260
5.27509e-260
-8.77522e-260
4.74906e-259
-8.95747e-259
5.10094e-258
-8.95006e-258
5.22423e-257
-8.73988e-257
5.24003e-256
-8.33368e-256
5.1397e-255
-7.75178e-255
4.92575e-254
-7.02658e-254
4.60832e-253
-6.19967e-253
4.20452e-252
-5.31786e-252
3.73699e-251
-4.42857e-251
3.23181e-250
-3.57533e-250
2.716e-249
-2.79386e-249
2.21495e-248
-2.10952e-248
1.75017e-247
-1.53616e-247
1.33766e-246
-1.07668e-246
9.87091e-246
-7.24751e-246
7.01816e-245
-4.6745e-245
4.79685e-244
-2.88181e-244
3.14363e-243
-1.69379e-243
1.96939e-242
-9.46512e-243
1.17503e-241
6.64707e-241
-6.64791e-280
2.04042e-279
-2.5894e-279
8.23813e-279
-1.03726e-278
3.36375e-278
-4.27699e-278
1.41247e-277
-1.81573e-277
6.10529e-277
-7.93807e-277
2.71713e-276
-3.57436e-276
1.2453e-275
-1.65794e-275
5.87853e-275
-7.92279e-275
2.85865e-274
-3.90102e-274
1.43221e-273
-1.97927e-273
7.39362e-273
-1.03488e-272
3.93325e-272
-5.57638e-272
2.15636e-271
-3.09668e-271
1.2184e-270
-1.77221e-270
7.09515e-270
-1.04517e-269
4.2583e-269
-6.35143e-269
2.63387e-268
-3.97665e-268
1.67881e-267
-2.56476e-267
1.10257e-266
-1.70359e-266
7.46002e-266
-1.16507e-265
5.19892e-265
-8.20098e-265
3.7309e-264
-5.93921e-264
2.75617e-263
-4.42311e-263
2.09518e-262
-3.38533e-262
1.63817e-261
-2.66093e-261
1.31665e-260
-2.14614e-260
1.08705e-259
-1.77452e-259
9.21188e-259
-1.50282e-258
8.00551e-258
-1.30127e-257
7.12838e-257
-1.31205e-256
7.57122e-256
-1.29476e-255
7.66426e-255
-1.24853e-254
7.59753e-254
-1.17541e-253
7.3641e-253
-1.0793e-252
6.97349e-252
-9.65629e-252
6.44568e-251
-8.40798e-251
5.80959e-250
-7.11626e-250
5.10046e-249
-5.84665e-249
4.35659e-248
-4.65615e-248
3.61575e-247
-3.58861e-247
2.91173e-246
-2.67215e-246
2.27163e-245
-1.9188e-245
1.71404e-244
-1.32606e-244
1.24849e-243
-8.80092e-244
8.76066e-243
-5.59685e-243
5.90836e-242
-3.40232e-242
3.81973e-241
-1.97214e-241
2.35986e-240
-1.08711e-240
1.38801e-239
7.73689e-239
-8.3378e-278
2.56609e-277
-3.22538e-277
1.02936e-276
-1.28294e-276
4.17428e-276
-5.25189e-276
1.74051e-275
-2.21318e-275
7.46907e-275
-9.60272e-275
3.29962e-274
-4.2906e-274
1.50089e-273
-1.97447e-273
7.03058e-273
-9.35945e-273
3.39201e-272
-4.57047e-272
1.68579e-271
-2.29944e-271
8.63133e-271
-1.19196e-270
4.55325e-270
-6.36644e-270
2.47494e-269
-3.50376e-269
1.38621e-268
-1.98685e-268
8.0006e-268
-1.16083e-267
4.75818e-267
-6.98728e-267
2.91586e-266
-4.33236e-266
1.84105e-265
-2.76658e-265
1.19754e-264
-1.81916e-264
8.02353e-264
-1.23136e-263
5.53615e-263
-8.57724e-263
3.93282e-262
-6.14579e-262
2.87554e-261
-4.52756e-261
2.16316e-260
-3.42726e-260
1.67344e-259
-2.66384e-259
1.33056e-258
-2.12413e-258
1.08659e-257
-1.73607e-257
9.10637e-257
-1.45299e-256
7.82525e-256
-1.24307e-255
6.88873e-255
-1.23765e-254
7.23221e-254
-1.20588e-253
7.23333e-253
-1.14797e-252
7.08394e-252
-1.0668e-251
6.78297e-251
-9.66834e-251
6.34474e-250
-8.53655e-250
5.79247e-249
-7.3347e-249
5.15633e-248
-6.12516e-248
4.47069e-247
-4.96488e-247
3.77098e-246
-3.9006e-246
3.09043e-245
-2.96554e-245
2.45731e-244
-2.17818e-244
1.89279e-243
-1.54279e-243
1.40997e-242
-1.0517e-242
1.01383e-241
-6.88548e-242
7.02197e-241
-4.3199e-241
4.67384e-240
-2.59123e-240
2.98159e-239
-1.48243e-239
1.81724e-238
-8.06765e-239
1.05415e-237
5.79309e-237
-7.57368e-276
2.3363e-275
-2.90931e-275
9.30994e-275
-1.14892e-274
3.74899e-274
-4.66878e-274
1.55198e-273
-1.95271e-273
6.61125e-273
-8.40768e-273
2.8988e-272
-3.72726e-272
1.30849e-271
-1.70154e-271
6.08149e-271
-7.99991e-271
2.91073e-270
-3.87407e-270
1.43484e-269
-1.93252e-269
7.28552e-269
-9.9308e-269
3.81079e-268
-5.25733e-268
2.05351e-267
-2.86729e-267
1.14005e-266
-1.611e-266
6.52095e-266
-9.32425e-266
3.8428e-265
-5.55892e-265
2.33303e-264
-3.41326e-264
1.45913e-263
-2.15811e-263
9.39983e-263
-1.40478e-262
6.23632e-262
-9.4115e-262
4.26022e-261
-6.4875e-261
2.99586e-260
-4.59928e-260
2.16801e-259
-3.35185e-259
1.61394e-258
-2.50958e-258
1.23538e-257
-1.92896e-257
9.71755e-257
-1.52083e-256
7.84969e-256
-1.22878e-255
6.50634e-255
-1.01646e-254
5.52877e-254
-8.59313e-254
4.81216e-253
-8.44973e-253
4.9942e-252
-8.13019e-252
4.9356e-251
-7.64235e-251
4.77594e-250
-7.01194e-250
4.51808e-249
-6.27365e-249
4.1751e-248
-5.46794e-248
3.76538e-247
-4.63724e-247
3.31092e-246
-3.82206e-246
2.83545e-245
-3.05747e-245
2.36219e-244
-2.37047e-244
1.91193e-243
-1.77845e-243
1.50134e-242
-1.28901e-242
1.14199e-241
-9.00956e-242
8.40009e-241
-6.06093e-241
5.96374e-240
-3.91627e-240
4.07804e-239
-2.4253e-239
2.6795e-238
-1.43627e-238
1.68712e-237
-8.11433e-238
1.0147e-236
-4.36217e-237
5.80693e-236
3.1473e-235
-5.36806e-274
1.65899e-273
-2.0474e-273
6.56636e-273
-8.02655e-273
2.6254e-272
-3.23743e-272
1.07893e-271
-1.34376e-271
4.56196e-271
-5.74091e-271
1.98508e-270
-2.5249e-270
8.89104e-270
-1.14334e-269
4.09967e-269
-5.33125e-269
1.94638e-268
-2.56005e-268
9.51583e-268
-1.26611e-267
4.79129e-267
-6.44952e-267
2.48477e-266
-3.384e-266
1.32732e-265
-1.82888e-265
7.30371e-265
-1.01809e-264
4.13998e-264
-5.83723e-264
2.41732e-263
-3.44678e-263
1.45391e-262
-2.09579e-262
9.00683e-262
-1.31201e-261
5.74632e-261
-8.45447e-261
3.77506e-260
-5.6063e-260
2.55321e-259
-3.82441e-259
1.77733e-258
-2.68272e-258
1.27302e-257
-1.93419e-257
9.37837e-257
-1.43244e-256
7.10304e-256
-1.08891e-255
5.52768e-255
-8.48929e-255
4.41696e-254
-6.78132e-254
3.62104e-253
-5.54505e-253
3.04292e-252
-4.63288e-252
2.6188e-251
-4.4999e-251
2.68694e-250
-4.27646e-250
2.6241e-249
-3.97003e-249
2.50914e-248
-3.59706e-248
2.3454e-247
-3.17787e-247
2.14141e-246
-2.73471e-246
1.90802e-245
-2.28975e-245
1.65745e-244
-1.86311e-244
1.40219e-243
-1.47128e-243
1.15391e-242
-1.12601e-242
9.22521e-242
-8.33903e-242
7.15497e-241
-5.96623e-241
5.37518e-240
-4.11647e-240
3.90469e-239
-2.73381e-239
2.73755e-238
-1.74403e-238
1.84839e-237
-1.0665e-237
1.19907e-236
-6.23783e-237
7.45274e-236
-3.48137e-236
4.42385e-235
-1.8493e-235
2.49802e-234
1.33553e-233
-3.14248e-272
9.72731e-272
-1.18963e-271
3.82285e-271
-4.62823e-271
1.51709e-270
-1.85224e-270
6.1871e-270
-7.62715e-270
2.59571e-269
-3.23218e-269
1.12054e-268
-1.40983e-268
4.97829e-268
-6.33051e-268
2.27661e-267
-2.92661e-267
1.0718e-266
-1.39312e-266
5.19531e-266
-6.82886e-266
2.59316e-265
-3.44723e-265
1.33293e-264
-1.79213e-264
7.05631e-264
-9.59521e-264
3.84732e-263
-5.29072e-263
2.16052e-262
-3.00421e-262
1.24962e-261
-1.75655e-261
7.44378e-261
-1.05743e-260
4.56646e-260
-6.55288e-260
2.88459e-259
-4.17931e-259
1.87604e-258
-2.74254e-258
1.25594e-257
-1.85112e-257
8.6527e-257
-1.28462e-256
6.13286e-256
-9.16148e-256
4.47034e-255
-6.71039e-255
3.34955e-254
-5.04436e-254
2.57846e-253
-3.88838e-253
2.03781e-252
-3.07065e-252
1.65213e-251
-2.48182e-251
1.37284e-250
-2.04921e-250
1.16812e-249
-1.96606e-249
1.18478e-248
-1.84549e-248
1.14335e-247
-1.69207e-247
1.08025e-246
-1.51405e-246
9.97689e-246
-1.32089e-245
8.99979e-245
-1.12241e-244
7.92226e-244
-9.27938e-244
6.79862e-243
-7.45489e-243
5.68173e-242
-5.8124e-242
4.6187e-241
-4.39191e-241
3.64737e-240
-3.21127e-240
2.79414e-239
-2.26841e-239
2.07323e-238
-1.54535e-238
1.48741e-237
-1.0134e-237
1.02982e-236
-6.38456e-237
6.86618e-236
-3.85627e-236
4.3978e-235
-2.22816e-235
2.69845e-234
-1.22874e-234
1.58097e-233
-6.45051e-234
8.80942e-233
4.64649e-232
-1.60691e-270
4.98485e-270
-6.03049e-270
1.9429e-269
-2.32544e-269
7.64354e-269
-9.22302e-269
3.08972e-268
-3.76325e-268
1.28461e-267
-1.58001e-267
5.49501e-267
-6.82706e-267
2.41873e-266
-3.03633e-266
1.09572e-265
-1.39014e-265
5.10944e-265
-6.55253e-265
2.45279e-264
-3.18007e-264
1.2123e-263
-1.58917e-263
6.16973e-263
-8.17756e-263
3.23338e-262
-4.33318e-262
1.74503e-261
-2.36434e-261
9.69875e-261
-1.32836e-260
5.55128e-260
-7.6839e-260
3.27204e-259
-4.57571e-259
1.98592e-258
-2.8046e-258
1.24101e-257
-1.76899e-257
7.98356e-257
-1.14791e-256
5.28612e-256
-7.66085e-256
3.60157e-255
-5.25603e-255
2.52425e-254
-3.70548e-254
1.81926e-253
-2.68274e-253
1.34769e-252
-1.99317e-252
1.02559e-251
-1.51836e-251
8.01221e-251
-1.18483e-250
6.42054e-250
-9.46159e-250
5.27286e-249
-7.71777e-249
4.4338e-248
-7.3117e-248
4.4436e-247
-6.77705e-247
4.23569e-246
-6.13536e-246
3.95292e-245
-5.42051e-245
3.606e-244
-4.66911e-244
3.21286e-243
-3.91724e-243
2.79339e-242
-3.19742e-242
2.36766e-241
-2.53614e-241
1.95429e-240
-1.95228e-240
1.56903e-239
-1.45647e-239
1.22373e-238
-1.05149e-238
9.25847e-238
-7.33413e-238
6.78443e-237
-4.93387e-237
4.80679e-236
-3.19538e-236
3.28644e-235
-1.98842e-235
2.16365e-234
-1.18645e-234
1.36829e-233
-6.77346e-234
8.28839e-233
-3.69133e-233
4.7932e-232
-1.91532e-232
2.6358e-231
1.37172e-230
-7.77475e-269
2.42454e-268
-2.88125e-268
9.33728e-268
-1.097e-267
3.6274e-267
-4.2954e-267
1.44773e-266
-1.73018e-266
5.94255e-266
-7.17054e-266
2.50937e-265
-3.05819e-265
1.09031e-264
-1.34244e-264
4.87531e-264
-6.06592e-264
2.24383e-263
-2.82177e-263
1.0631e-262
-1.35148e-262
5.18567e-262
-6.66483e-262
2.60451e-261
-3.3844e-261
1.34701e-260
-1.76968e-260
7.17407e-260
-9.5285e-260
3.93478e-259
-5.28265e-259
2.22247e-258
-3.01537e-258
1.29271e-257
-1.7719e-257
7.74253e-257
-1.07171e-256
4.77464e-256
-6.6706e-256
3.03116e-255
-4.27153e-255
1.98064e-254
-2.81315e-254
1.33176e-253
-1.90469e-253
9.21172e-253
-1.32515e-252
6.55226e-252
-9.46817e-252
4.79054e-251
-6.94238e-251
3.59817e-250
-5.21937e-250
2.77451e-249
-4.01961e-249
2.19455e-248
-3.16791e-248
1.77897e-247
-2.55016e-247
1.47655e-246
-2.38345e-246
1.46067e-245
-2.17959e-245
1.3739e-244
-1.94693e-244
1.26534e-243
-1.69728e-243
1.1392e-242
-1.44271e-242
1.00181e-241
-1.1945e-241
8.59751e-241
-9.62271e-241
7.1934e-240
-7.53345e-240
5.86142e-239
-5.72428e-239
4.64588e-238
-4.21577e-238
3.5774e-237
-3.00482e-237
2.67228e-236
-2.06943e-236
1.93343e-235
-1.37479e-235
1.35255e-234
-8.79391e-235
9.13075e-234
-5.40569e-234
5.9353e-233
-3.18684e-233
3.70585e-232
-1.79792e-232
2.21618e-231
-9.68433e-232
1.26513e-230
-4.96718e-231
6.86666e-230
3.52662e-229
-4.03911e-267
1.27603e-266
-1.46506e-266
4.81526e-266
-5.45878e-266
1.83092e-265
-2.0917e-265
7.15114e-265
-8.24507e-265
2.87251e-264
-3.34414e-264
1.18703e-263
-1.39591e-263
5.04747e-263
-5.99781e-263
2.20896e-262
-2.65314e-262
9.9514e-262
-1.20842e-261
4.61567e-261
-5.6679e-261
2.20447e-260
-2.73786e-260
1.08429e-259
-1.36211e-259
5.49293e-259
-6.97989e-259
2.86626e-258
-3.68399e-258
1.54063e-257
-2.00268e-257
8.53033e-257
-1.12125e-256
4.86528e-256
-6.46454e-256
2.85827e-255
-3.83756e-255
1.72947e-254
-2.34511e-254
1.07765e-253
-1.47485e-253
6.91379e-253
-9.54267e-253
4.56589e-252
-6.34975e-252
3.10297e-251
-4.34309e-251
2.16926e-250
-3.05167e-250
1.55932e-249
-2.20118e-249
1.15188e-248
-1.62843e-248
8.73828e-248
-1.23441e-247
6.80194e-247
-9.57814e-247
5.42786e-246
-7.59272e-246
4.43602e-245
-6.98686e-245
4.32193e-244
-6.29275e-244
4.00315e-243
-5.53768e-243
3.63176e-242
-4.75729e-242
3.22184e-241
-3.98589e-241
2.79251e-240
-3.2537e-240
2.36264e-239
-2.58484e-239
1.94928e-238
-1.99606e-238
1.56659e-237
-1.49637e-237
1.22494e-236
-1.0875e-236
9.3065e-236
-7.65063e-236
6.86031e-235
-5.20179e-235
4.89886e-234
-3.41239e-234
3.38279e-233
-2.1559e-233
2.25438e-232
-1.30926e-232
1.44675e-231
-7.62733e-232
8.91844e-231
-4.25328e-231
5.26576e-230
-2.26492e-230
2.96785e-229
-1.14864e-229
1.59032e-228
8.06334e-228
-2.5435e-265
8.20976e-265
-8.93899e-265
3.00809e-264
-3.22539e-264
1.10821e-263
-1.19645e-263
4.19162e-263
-4.56446e-263
1.62996e-262
-1.79141e-262
6.51886e-262
-7.23488e-262
2.68224e-261
-3.00755e-261
1.13573e-260
-1.28718e-260
4.95015e-260
-5.673e-260
2.22143e-259
-2.57522e-259
1.02663e-258
-1.20427e-258
4.88719e-258
-5.80239e-258
2.39687e-257
-2.88081e-257
1.21127e-256
-1.47395e-256
6.30814e-256
-7.77194e-256
3.38588e-255
-4.22336e-255
1.87316e-254
-2.36508e-254
1.06812e-253
-1.36473e-253
6.27757e-253
-8.1132e-253
3.80235e-252
-4.96797e-252
2.37323e-251
-3.13241e-251
1.52605e-250
-2.03294e-250
1.01068e-249
-1.3574e-249
6.89172e-249
-9.319e-249
4.83631e-248
-6.57328e-248
3.49085e-247
-4.75943e-247
2.58983e-246
-3.53384e-246
1.97317e-245
-2.68775e-245
1.54239e-244
-2.08987e-244
1.2357e-243
-1.88665e-243
1.18099e-242
-1.66832e-242
1.07327e-241
-1.44246e-241
9.56098e-241
-1.21831e-240
8.33435e-240
-1.00417e-239
7.10278e-239
-8.06851e-239
5.91227e-238
-6.31263e-238
4.8017e-237
-4.80313e-237
3.80062e-236
-3.54945e-236
2.92815e-235
-2.54396e-235
2.19292e-234
-1.7657e-234
1.59404e-233
-1.1849e-233
1.12283e-232
-7.67477e-233
7.65038e-232
-4.78933e-232
5.03198e-231
-2.87391e-231
3.18791e-230
-1.65491e-230
1.94036e-229
-9.12477e-230
1.13136e-228
-4.80585e-229
6.29774e-228
-2.41109e-228
3.33331e-227
1.66956e-226
-1.91983e-263
6.33799e-263
-6.52177e-263
2.25095e-262
-2.27208e-262
8.01573e-262
-8.13009e-262
2.92727e-261
-2.98926e-261
1.09803e-260
-1.12973e-260
4.23236e-260
-4.39008e-260
1.67693e-259
-1.75467e-259
6.83207e-259
-7.21571e-259
2.8631e-258
-3.05393e-258
1.23454e-257
-1.33066e-257
5.47898e-257
-5.97074e-257
2.50351e-256
-2.75972e-256
1.17812e-255
-1.31429e-255
5.71138e-255
-6.45073e-255
2.85316e-254
-3.26367e-254
1.46909e-253
-1.70238e-253
7.79844e-253
-9.15613e-253
4.26854e-252
-5.07805e-252
2.40948e-251
-2.90409e-251
1.40273e-250
-1.71244e-250
8.42247e-250
-1.04097e-249
5.21546e-249
-6.52171e-249
3.33021e-248
-4.20936e-248
2.19216e-247
-2.7975e-247
1.48711e-246
-1.91301e-246
1.03912e-245
-1.34485e-245
7.47403e-245
-9.70917e-245
5.52898e-244
-7.19042e-244
4.20249e-243
-5.45125e-243
3.27849e-242
-4.80146e-242
3.05518e-241
-4.14875e-241
2.70908e-240
-3.50983e-240
2.35825e-239
-2.90424e-239
2.0115e-238
-2.34793e-238
1.6795e-237
-1.85241e-237
1.37122e-236
-1.42446e-236
1.09348e-235
-1.06623e-235
8.50636e-235
-7.75782e-235
6.44664e-234
-5.47862e-234
4.75283e-233
-3.74944e-233
3.40347e-232
-2.48261e-232
2.36322e-231
-1.58759e-231
1.58813e-230
-9.78699e-231
1.03079e-229
-5.80487e-230
6.44707e-229
-3.30572e-229
3.87558e-228
-1.80342e-228
2.23259e-227
-9.40184e-228
1.22824e-226
-4.67059e-227
6.42693e-226
3.18345e-225
-1.55131e-261
5.21899e-261
-5.10993e-261
1.80206e-260
-1.7241e-260
6.22237e-260
-5.96848e-260
2.20072e-259
-2.12077e-259
7.98626e-259
-7.73731e-259
2.9749e-258
-2.89928e-258
1.13786e-257
-1.11617e-257
4.47021e-257
-4.41612e-257
1.80438e-256
-1.79625e-256
7.4856e-256
-7.51353e-256
3.19274e-255
-3.23311e-255
1.40051e-254
-1.43166e-254
6.32032e-254
-6.52605e-254
2.93545e-253
-3.06338e-253
1.40361e-252
-1.48128e-252
6.912e-252
-7.38078e-252
3.50673e-251
-3.79076e-251
1.83353e-250
-2.00738e-250
9.88334e-250
-1.09626e-249
5.49383e-249
-6.17516e-249
3.15001e-248
-3.58819e-248
1.86336e-247
-2.15076e-247
1.13732e-246
-1.32965e-246
7.16274e-246
-8.47589e-246
4.65417e-245
-5.56827e-245
3.11933e-244
-3.76726e-244
2.15545e-243
-2.62238e-243
1.53455e-242
-1.87613e-242
1.12462e-241
-1.37668e-241
8.47549e-241
-1.17496e-240
7.64458e-240
-9.85995e-240
6.56824e-239
-8.11845e-239
5.55284e-238
-6.55128e-238
4.60956e-237
-5.17492e-237
3.75321e-236
-3.99615e-236
2.99382e-235
-3.0126e-235
2.33651e-234
-2.21396e-234
1.78168e-233
-1.58368e-233
1.32546e-232
-1.10088e-232
9.60489e-232
-7.42441e-232
6.7682e-231
-4.84929e-231
4.62933e-230
-3.06193e-230
3.06739e-229
-1.86543e-229
1.96467e-228
-1.09434e-228
1.21352e-227
-6.16869e-228
7.20918e-227
-3.3335e-227
4.10677e-226
-1.72254e-226
2.23552e-225
-8.48639e-226
1.15812e-224
5.68285e-224
-1.22768e-259
4.19634e-259
-3.93152e-259
1.41202e-258
-1.28834e-258
4.74011e-258
-4.32784e-258
1.62824e-257
-1.4909e-257
5.73372e-257