/*--------------------------------*- C++ -*----------------------------------*\
  =========                 |
  \\      /  F ield         | OpenFOAM: The Open Source CFD Toolbox
   \\    /   O peration     | Website:  https://openfoam.org
    \\  /    A nd           | Version:  9
     \\/     M anipulation  |
\*---------------------------------------------------------------------------*/
FoamFile
{
    format      ascii;
    class       volScalarField;
    location    "0.04";
    object      p_rgh;
}
// * * * * * * * * * * * * * * * * * * * * * * * * * * * * * * * * * * * * * //

dimensions      [1 -1 -2 0 0 0 0];

internalField   nonuniform List<scalar> 
5000
(
1.8213e-05
2.38149e-05
2.24265e-05
1.9979e-05
1.63551e-05
1.11604e-05
3.98292e-06
-5.5812e-06
-1.79613e-05
-3.36414e-05
-5.31801e-05
-7.72225e-05
-0.000106511
-0.000141899
-0.000184361
-0.000235013
-0.000295122
-0.000366137
-0.000449703
-0.000547697
-0.00066226
-0.000795833
-0.000951213
-0.00113161
-0.0013407
-0.00158278
-0.00186279
-0.00218654
-0.00256079
-0.00299333
-0.00353592
-0.00419778
-0.00492854
-0.00573233
-0.00661387
-0.00757837
-0.00863137
-0.00977883
-0.0110271
-0.0123833
-0.013855
-0.0154508
-0.0171803
-0.0190542
-0.0210853
-0.0232912
-0.0256967
-0.0283342
-0.031237
-0.0344298
2.11805e-05
2.77086e-05
2.94323e-05
3.1112e-05
3.18394e-05
3.10706e-05
2.85248e-05
2.39014e-05
1.68367e-05
6.90243e-06
-6.40293e-06
-2.36626e-05
-4.55508e-05
-7.28438e-05
-0.000106432
-0.000147336
-0.000196721
-0.000255925
-0.000326478
-0.000410136
-0.000508915
-0.000625135
-0.000761469
-0.000921002
-0.0011073
-0.00132448
-0.00157732
-0.00187134
-0.00221291
-0.00260926
-0.00310815
-0.00372139
-0.00440254
-0.00515526
-0.0059839
-0.0068932
-0.00788833
-0.00897479
-0.0101586
-0.0114461
-0.0128445
-0.0143617
-0.0160064
-0.0177886
-0.0197201
-0.0218157
-0.024094
-0.0265767
-0.0292854
-0.0322365
1.20241e-05
1.51652e-05
1.83798e-05
2.23665e-05
2.55854e-05
2.76442e-05
2.8346e-05
2.73899e-05
2.44125e-05
1.89977e-05
1.06663e-05
-1.1336e-06
-1.7036e-05
-3.77681e-05
-6.41625e-05
-9.71722e-05
-0.000137889
-0.000187566
-0.000247645
-0.000319787
-0.000405909
-0.000508232
-0.000629325
-0.000772169
-0.000940217
-0.00113746
-0.00136853
-0.00163875
-0.00195424
-0.00232184
-0.00278632
-0.00336048
-0.00400133
-0.00471221
-0.00549722
-0.00636079
-0.00730772
-0.00834316
-0.00947266
-0.0107022
-0.0120384
-0.0134883
-0.0150599
-0.0167622
-0.0186053
-0.0206015
-0.0227647
-0.0251105
-0.0276529
-0.0304006
7.16889e-06
1.221e-05
1.79071e-05
2.39488e-05
2.95255e-05
3.44521e-05
3.84959e-05
4.13381e-05
4.26213e-05
4.19423e-05
3.88402e-05
3.27889e-05
2.31884e-05
9.35469e-06
-9.49309e-06
-3.42473e-05
-6.5931e-05
-0.000105721
-0.000154974
-0.000215262
-0.000288408
-0.000376533
-0.000482102
-0.000607988
-0.000757524
-0.000934577
-0.00114361
-0.00138979
-0.00167901
-0.00201791
-0.00244821
-0.00298298
-0.00358274
-0.00425068
-0.00499073
-0.00580702
-0.00670401
-0.00768649
-0.00875957
-0.00992872
-0.0111999
-0.0125795
-0.0140744
-0.0156924
-0.0174419
-0.0193323
-0.0213741
-0.0235776
-0.0259506
-0.028495
6.6895e-06
1.62214e-05
2.61399e-05
3.61476e-05
4.59364e-05
5.53583e-05
6.41936e-05
7.21771e-05
7.90016e-05
8.43079e-05
8.76785e-05
8.8633e-05
8.66213e-05
8.1014e-05
7.10909e-05
5.60263e-05
3.48706e-05
6.52808e-06
-3.02713e-05
-7.70053e-05
-0.000135398
-0.000207464
-0.000295559
-0.000402431
-0.000531283
-0.000685829
-0.000870366
-0.00108984
-0.00134994
-0.00165707
-0.00204965
-0.00254089
-0.00309511
-0.00371538
-0.00440541
-0.00516907
-0.00601046
-0.00693397
-0.00794425
-0.00904623
-0.0102452
-0.0115466
-0.0129565
-0.014481
-0.0161269
-0.017901
-0.01981
-0.0218595
-0.0240519
-0.026383
8.07096e-06
2.21328e-05
3.6723e-05
5.16512e-05
6.6701e-05
8.16866e-05
9.64129e-05
0.000110652
0.000124133
0.00013654
0.0001475
0.000156586
0.000163302
0.000167081
0.000167267
0.000163105
0.000153723
0.000138106
0.000115073
8.32408e-05
4.09864e-05
-1.35961e-05
-8.27435e-05
-0.000169075
-0.000275645
-0.000406005
-0.000564258
-0.000755124
-0.000984041
-0.00125712
-0.00160927
-0.00205401
-0.00255958
-0.00312888
-0.00376539
-0.00447267
-0.00525452
-0.0061149
-0.00705799
-0.00808815
-0.00920994
-0.0104281
-0.0117473
-0.0131727
-0.0147088
-0.0163603
-0.0181306
-0.020021
-0.0220293
-0.0241469
1.02978e-05
2.9102e-05
4.87142e-05
6.90071e-05
8.97616e-05
0.000110803
0.00013197
0.000153061
0.000173839
0.000194018
0.000213272
0.000231216
0.000247411
0.000261342
0.000272418
0.000279951
0.000283142
0.000281056
0.000272595
0.000256468
0.00023115
0.000194845
0.000145437
8.04414e-05
-3.04177e-06
-0.000108385
-0.000239488
-0.000400833
-0.000597584
-0.000835562
-0.00114602
-0.0015428
-0.00199814
-0.00251474
-0.00309586
-0.00374479
-0.00446499
-0.00526004
-0.00613365
-0.00708962
-0.00813182
-0.00926411
-0.0104903
-0.0118139
-0.013238
-0.0147651
-0.0163957
-0.0181281
-0.0199564
-0.0218687
1.29604e-05
3.71498e-05
6.24563e-05
8.87449e-05
0.000115806
0.000143502
0.000171705
0.000200249
0.000228932
0.000257513
0.000285707
0.000313179
0.000339537
0.000364324
0.000387008
0.000406964
0.000423462
0.00043564
0.00044248
0.000442778
0.000435106
0.000417774
0.000388787
0.000345804
0.000286085
0.000206449
0.000103211
-2.78634e-05
-0.000191658
-0.000393709
-0.000661528
-0.00100915
-0.00141291
-0.00187535
-0.00239952
-0.00298845
-0.00364528
-0.00437321
-0.00517551
-0.00605544
-0.00701623
-0.00806093
-0.00919234
-0.0104128
-0.011724
-0.0131263
-0.0146184
-0.0161959
-0.0178505
-0.019568
1.58867e-05
4.6092e-05
7.77473e-05
0.000110682
0.000144714
0.000179741
0.000215665
0.000252359
0.000289659
0.000327366
0.00036524
0.000402996
0.000440293
0.000476728
0.000511826
0.000545026
0.00057566
0.000602937
0.000625913
0.000643469
0.000654272
0.000656739
0.000649002
0.000628863
0.000593757
0.000540697
0.000466231
0.000366383
0.000236558
7.15136e-05
-0.00015242
-0.000449397
-0.00079999
-0.00120658
-0.00167204
-0.00219912
-0.00279067
-0.00344954
-0.00417858
-0.00498054
-0.00585803
-0.00681338
-0.00784849
-0.00896462
-0.0101621
-0.01144
-0.012795
-0.0142212
-0.0157084
-0.0172412
1.90507e-05
5.57702e-05
9.42843e-05
0.0001344
0.000175968
0.000218915
0.000263178
0.000308662
0.000355245
0.000402769
0.00045104
0.000499818
0.000548816
0.000597684
0.000646001
0.000693264
0.000738871
0.000782092
0.000822057
0.000857729
0.000887868
0.000911002
0.000925391
0.00092899
0.000919413
0.000893883
0.000849186
0.000781615
0.000686881
0.000560046
0.000381389
0.000136641
-0.000159138
-0.000508179
-0.000913148
-0.00137656
-0.00190099
-0.00248895
-0.00314288
-0.00386509
-0.00465761
-0.00552211
-0.0064597
-0.00747073
-0.00855445
-0.0097086
-0.0109288
-0.0122077
-0.0135341
-0.014892
2.24558e-05
6.61136e-05
0.000111921
0.000159682
0.000209276
0.000260657
0.000313797
0.000368637
0.000425095
0.000483054
0.000542365
0.000602836
0.000664227
0.00072624
0.00078851
0.00085059
0.000911942
0.000971882
0.00102962
0.0010842
0.00113447
0.00117909
0.00121643
0.00124461
0.00126144
0.00126435
0.00125037
0.00121608
0.0011575
0.00107001
0.00093793
0.000746864
0.00050738
0.000217406
-0.00012553
-0.000523712
-0.00097945
-0.00149495
-0.0020723
-0.00271336
-0.00341968
-0.00419235
-0.00503178
-0.00593757
-0.00690809
-0.00794016
-0.00902846
-0.0101649
-0.0113376
-0.0125307
2.609e-05
7.70865e-05
0.0001306
0.000186444
0.000244521
0.000304813
0.000367327
0.000432044
0.000498918
0.000567879
0.00063882
0.000711596
0.000786014
0.000861826
0.000938712
0.00101627
0.00109412
0.00117147
0.00124769
0.0013219
0.00139305
0.00145989
0.00152095
0.00157451
0.00161856
0.00165076
0.0016684
0.00166832
0.00164687
0.00159974
0.0015154
0.0013793
0.00119741
0.000967802
0.000688211
0.000356561
-2.92148e-05
-0.000471039
-0.000970664
-0.00152958
-0.00214889
-0.00282919
-0.00357036
-0.00437134
-0.00522986
-0.00614206
-0.00710203
-0.0081012
-0.00912776
-0.0101661
2.99227e-05
8.86308e-05
0.000150241
0.000214576
0.000281562
0.000351212
0.000423567
0.000498647
0.000576446
0.000656935
0.000740053
0.000825701
0.000913734
0.00100395
0.00109609
0.0011898
0.00128465
0.0013801
0.00147549
0.00157002
0.00166274
0.00175252
0.00183804
0.00191773
0.0019898
0.00205211
0.00210222
0.00213724
0.00215382
0.00214801
0.00211246
0.00203249
0.00190935
0.00174127
0.00152616
0.00126216
0.000947408
0.00058025
0.000159224
-0.000316826
-0.000848644
-0.00143641
-0.00207954
-0.00277653
-0.00352462
-0.00431952
-0.00515499
-0.00602235
-0.00691006
-0.00780327
3.39217e-05
0.000100682
0.000170748
0.000243951
0.00032024
0.000399659
0.000482287
0.000568179
0.000657373
0.000749879
0.000845681
0.000944722
0.0010469
0.00115207
0.00126001
0.00137043
0.00148295
0.00159708
0.00171225
0.00182773
0.00194268
0.00205609
0.00216677
0.00227335
0.0023742
0.00246743
0.00255082
0.00262179
0.00267729
0.00271368
0.00272791
0.00270515
0.00264181
0.0025363
0.00238668
0.00219128
0.00194846
0.00165678
0.00131503
0.000922342
0.000478278
-1.70115e-05
-0.000562621
-0.00115669
-0.00179616
-0.0024765
-0.00319137
-0.00393226
-0.0046881
-0.00544505
3.80649e-05
0.000113195
0.000192055
0.000274479
0.000360439
0.000450012
0.000543311
0.00064043
0.000741446
0.000846411
0.000955351
0.00106825
0.00118506
0.00130568
0.00142993
0.00155757
0.00168828
0.00182165
0.00195716
0.00209419
0.00223199
0.00236968
0.00250622
0.00264039
0.00277077
0.00289568
0.00301317
0.0031209
0.00321614
0.00329555
0.00336049
0.00339591
0.00339333
0.0033513
0.00326805
0.00314208
0.00297193
0.00275636
0.0024944
0.00218538
0.00182913
0.00142604
0.000977253
0.00048485
-4.79509e-05
-0.000616549
-0.0012147
-0.00183424
-0.00246477
-0.00309358
4.23381e-05
0.000126139
0.000214113
0.000306089
0.000402063
0.000502145
0.000606484
0.00071521
0.000828438
0.000946262
0.00106875
0.00119593
0.00132779
0.00146428
0.00160528
0.0017506
0.00189998
0.00205308
0.00220945
0.00236858
0.0025298
0.00269238
0.00285542
0.00301786
0.00317848
0.00333582
0.00348814
0.00363339
0.00376912
0.00389234
0.00400881
0.00410331
0.00416233
0.00418457
0.00416844
0.00411258
0.0040157
0.00387674
0.00369489
0.00346969
0.00320114
0.0028898
0.00253698
0.00214486
0.0017167
0.00125702
0.000771816
0.000268788
-0.000242497
-0.000750528
4.67332e-05
0.000139489
0.000236878
0.000338715
0.000445023
0.000555944
0.00067166
0.000792339
0.000918133
0.00104917
0.00118557
0.00132739
0.00147468
0.00162743
0.00178557
0.00194897
0.00211744
0.00229069
0.00246839
0.0026501
0.00283528
0.00302331
0.00321345
0.0034048
0.00359632
0.00378675
0.0039746
0.00415806
0.004335
0.00450271
0.00467147
0.00482582
0.00494719
0.00503441
0.00508603
0.00510084
0.00507771
0.00501571
0.00491417
0.00477278
0.00459167
0.00437152
0.0041137
0.00382042
0.00349486
0.00314135
0.00276553
0.00237449
0.00197692
0.00158309
5.12465e-05
0.000153224
0.000260307
0.000372292
0.000489229
0.000611292
0.000738695
0.000871639
0.00101031
0.00115489
0.00130551
0.0014623
0.00162535
0.00179468
0.0019703
0.00215212
0.00234004
0.00253384
0.00273328
0.00293801
0.00314763
0.00336163
0.0035794
0.00380024
0.00402326
0.00424742
0.00447142
0.00469373
0.00491249
0.00512533
0.00534704
0.00556196
0.00574634
0.00589914
0.00601905
0.00610501
0.00615598
0.00617117
0.00615003
0.00609235
0.00599834
0.00586873
0.00570491
0.00550901
0.00528406
0.00503412
0.00476434
0.00448117
0.00419234
0.00390688
5.58725e-05
0.000167315
0.000284346
0.000406739
0.000534574
0.000668052
0.000807418
0.000952908
0.00110474
0.00126313
0.00142827
0.00160031
0.00177938
0.00196559
0.00215897
0.00235953
0.00256721
0.00278191
0.00300345
0.0032316
0.00346608
0.00370651
0.00395243
0.00420327
0.00445833
0.00471675
0.00497748
0.00523919
0.00550034
0.00575887
0.00603415
0.00631026
0.00655822
0.00677713
0.00696579
0.00712325
0.00724861
0.00734114
0.00740041
0.00742625
0.00741893
0.00737918
0.00730834
0.00720841
0.00708219
0.00693337
0.00676659
0.00658756
0.00640306
0.00622087
6.06058e-05
0.000181732
0.000308935
0.000441972
0.000580944
0.000726081
0.000877657
0.00103594
0.00120118
0.00137363
0.00155352
0.00174105
0.0019364
0.00213972
0.00235113
0.00257068
0.0027984
0.00303428
0.00327825
0.00353018
0.0037899
0.00405717
0.00433166
0.00461295
0.00490053
0.0051937
0.00549163
0.00579326
0.00609729
0.00640201
0.00673139
0.00706924
0.00738129
0.00766675
0.00792453
0.0081538
0.00835372
0.00852369
0.00866329
0.00877242
0.00885136
0.00890079
0.00892194
0.00891665
0.00888741
0.00883749
0.00877096
0.00869275
0.0086087
0.00852538
6.54412e-05
0.000196445
0.00033402
0.000477904
0.000628224
0.000785232
0.000949232
0.00112052
0.00129938
0.0014861
0.00168095
0.00188417
0.002096
0.00231665
0.00254629
0.00278506
0.00303307
0.0032904
0.00355707
0.00383308
0.00411836
0.00441281
0.00471624
0.00502837
0.00534886
0.00567719
0.00601275
0.00635471
0.00670206
0.0070534
0.00743736
0.00783743
0.008214
0.00856637
0.00889359
0.00919488
0.0094695
0.00971691
0.00993675
0.0101289
0.0102937
0.0104316
0.0105439
0.010632
0.0106981
0.0107451
0.0107764
0.0107961
0.0108091
0.0108209
7.03694e-05
0.000211416
0.000359532
0.00051444
0.000676286
0.000845346
0.00102195
0.00120642
0.00139908
0.00160025
0.00181023
0.00202932
0.0022578
0.00249595
0.002744
0.00300218
0.00327069
0.00354967
0.00383929
0.00413963
0.00445075
0.00477267
0.00510533
0.00544862
0.00580233
0.00616617
0.0065397
0.00692236
0.0073134
0.00771173
0.00815067
0.00861336
0.00905481
0.00947441
0.00987128
0.0102448
0.0105942
0.010919
0.011219
0.0114939
0.0117441
0.0119699
0.0121724
0.0123529
0.012513
0.0126551
0.012782
0.0128972
0.0130044
0.0131082
7.53785e-05
0.000226603
0.000385399
0.000551474
0.000724994
0.000906255
0.00109561
0.00129342
0.00150002
0.00171577
0.00194103
0.00217613
0.00242141
0.0026772
0.00294383
0.00322158
0.00351073
0.00381157
0.00412432
0.00444919
0.00478636
0.00513597
0.0054981
0.00587278
0.00625998
0.00665958
0.00707137
0.00749501
0.00793005
0.00837569
0.00886993
0.00939558
0.00990219
0.0103892
0.010856
0.0113017
0.011726
0.0121282
0.0125081
0.0128657
0.0132009
0.0135141
0.0138061
0.0140779
0.0143308
0.0145665
0.0147873
0.0149957
0.0151949
0.015388
8.04536e-05
0.000241962
0.000411543
0.000588897
0.000774204
0.00096778
0.00117
0.00138125
0.00160191
0.00183237
0.00207301
0.00232423
0.00258643
0.00285999
0.00314531
0.00344276
0.00375271
0.00407553
0.00441155
0.00476111
0.00512448
0.00550194
0.00589371
0.00629996
0.00672083
0.00715639
0.00760665
0.00807151
0.00855079
0.00904397
0.00959377
0.0101826
0.0107546
0.0113093
0.011846
0.0123641
0.0128632
0.0133428
0.0138026
0.0142425
0.0146624
0.0150626
0.0154436
0.0158059
0.0161504
0.0164785
0.0167917
0.0170917
0.0173807
0.0176611
8.55749e-05
0.00025744
0.000437882
0.000626592
0.000823765
0.00102973
0.00124491
0.00146968
0.00170448
0.00194972
0.00220584
0.00247327
0.00275248
0.0030439
0.003348
0.00366525
0.0039961
0.004341
0.0047004
0.00507473
0.00546441
0.00586982
0.00629131
0.00672924
0.0071839
0.00765556
0.00814445
0.00865069
0.00917436
0.00971526
0.0103208
0.010973
0.0116105
0.012233
0.0128397
0.0134303
0.0140042
0.0145611
0.0151008
0.0156228
0.0161273
0.0166141
0.0170834
0.0175356
0.0179711
0.0183905
0.0187948
0.019185
0.0195625
0.0199287
9.07215e-05
0.000272981
0.000464325
0.000664435
0.000873517
0.00109193
0.00132009
0.00155845
0.00180744
0.00206752
0.00233917
0.00262288
0.00291915
0.00322851
0.00355147
0.00388858
0.00424038
0.00460743
0.00499026
0.00538942
0.00580543
0.00623882
0.0066901
0.00715974
0.00764825
0.00815608
0.00868367
0.00923138
0.00979957
0.0103883
0.0110497
0.0117654
0.0124684
0.0131586
0.0138354
0.0144985
0.0151473
0.0157816
0.0164009
0.0170052
0.017594
0.0181671
0.0187245
0.0192661
0.0197917
0.0203017
0.0207962
0.0212757
0.0217406
0.0221917
9.58744e-05
0.000288536
0.000490789
0.000702306
0.000923308
0.00115417
0.00139534
0.0016473
0.0019105
0.00218545
0.00247267
0.00277269
0.00308607
0.00341339
0.00375525
0.00411226
0.00448505
0.00487425
0.00528052
0.0057045
0.00614684
0.0066082
0.00708923
0.00759058
0.00811294
0.00865694
0.00922325
0.00981247
0.0104252
0.0110617
0.0117789
0.0125581
0.0133268
0.0140847
0.0148316
0.0155671
0.0162909
0.0170025
0.0177017
0.018388
0.0190611
0.0197204
0.0203656
0.0209962
0.0216117
0.0222117
0.0227958
0.0233639
0.0239157
0.0244511
0.000101014
0.000304055
0.000517193
0.000740093
0.000972991
0.00121628
0.00147045
0.00173598
0.00201339
0.00230321
0.00260599
0.00292233
0.00325282
0.00359812
0.00395888
0.00433579
0.00472955
0.00514089
0.00557056
0.00601931
0.00648791
0.00697717
0.00748788
0.00802089
0.00857702
0.00915716
0.00976214
0.0103928
0.01105
0.0117343
0.0125073
0.0133498
0.014184
0.0150097
0.0158267
0.0166347
0.0174334
0.0182224
0.0190014
0.0197699
0.0205272
0.0212727
0.0220056
0.022725
0.02343
0.0241198
0.0247933
0.0254498
0.0260884
0.026708
0.000106125
0.000319492
0.000543464
0.000777693
0.00102243
0.0012781
0.00154521
0.00182428
0.00211585
0.0024205
0.00273881
0.00307144
0.00341902
0.00378227
0.00416189
0.00455865
0.00497333
0.00540674
0.00585972
0.00633314
0.00682791
0.00734495
0.00788524
0.00844977
0.00903958
0.00965573
0.0102993
0.0109712
0.0116728
0.0124047
0.0132333
0.0141391
0.0150386
0.0159321
0.0168191
0.0176996
0.0185733
0.0194398
0.0202987
0.0211494
0.021991
0.0228226
0.0236432
0.0244514
0.0252459
0.0260255
0.0267885
0.0275335
0.0282591
0.0289636
0.000111193
0.000334811
0.000569536
0.000815013
0.00107151
0.00133947
0.00161944
0.00191197
0.00221763
0.00253704
0.00287082
0.00321967
0.00358427
0.00396539
0.0043638
0.00478033
0.00521582
0.00567118
0.00614735
0.00664531
0.00716609
0.00771077
0.00828047
0.00887637
0.00949968
0.0101517
0.0108336
0.0115466
0.0122923
0.0130716
0.0139556
0.0149244
0.0158892
0.0168502
0.0178072
0.0187602
0.019709
0.0206531
0.021592
0.022525
0.023451
0.0243689
0.0252772
0.0261743
0.0270586
0.0279282
0.0287811
0.0296152
0.0304285
0.0312186
0.000116227
0.00035
0.000595374
0.00085199
0.00112014
0.00140028
0.001693
0.00199887
0.00231852
0.00265257
0.00300172
0.00336667
0.00374819
0.00414706
0.00456413
0.00500029
0.00545645
0.00593361
0.00643279
0.00695511
0.00750171
0.00807382
0.00867274
0.00929979
0.00995637
0.0106439
0.0113639
0.0121178
0.0129073
0.0137337
0.0146728
0.0157044
0.0167342
0.0177626
0.0187896
0.0198151
0.020839
0.0218608
0.0228799
0.0238953
0.0249058
0.0259101
0.0269064
0.0278928
0.0288672
0.0298274
0.0307708
0.031695
0.0325971
0.0334741
0.000121179
0.000364994
0.000620903
0.000888536
0.0011682
0.0014604
0.00176573
0.00208481
0.00241829
0.00276685
0.0031312
0.00351211
0.00391037
0.00432684
0.0047624
0.00521799
0.00569463
0.00619337
0.00671537
0.00726181
0.00783401
0.00843333
0.0090612
0.00971913
0.0104087
0.0111315
0.0118893
0.0126837
0.0135165
0.0143897
0.0153835
0.0164775
0.0175721
0.0186679
0.0197647
0.0208628
0.0219618
0.0230613
0.0241606
0.0252586
0.0263539
0.0274449
0.0285295
0.0296057
0.0306709
0.0317224
0.0327574
0.0337728
0.0347652
0.0357309
0.000126168
0.000379904
0.000646179
0.000924665
0.00121568
0.00151976
0.00183752
0.00216963
0.00251676
0.00287963
0.00325899
0.00365565
0.00407045
0.00450429
0.0049581
0.0054329
0.00592977
0.00644985
0.0069944
0.00756472
0.00816224
0.00878847
0.009445
0.0101335
0.0108557
0.0116134
0.0124084
0.0132429
0.0141188
0.0150383
0.0160864
0.0172425
0.0184016
0.0195644
0.0207311
0.0219016
0.0230757
0.0242531
0.0254327
0.0266134
0.0277937
0.0289717
0.0301453
0.0313118
0.0324686
0.0336127
0.0347406
0.0358487
0.0369332
0.0379897
0.000131032
0.000394576
0.000671144
0.000960342
0.00126254
0.0015783
0.0019083
0.00225321
0.00261375
0.00299069
0.00338481
0.00379697
0.00422803
0.00467896
0.00515075
0.00564447
0.00616128
0.00670241
0.0072692
0.0078631
0.00848563
0.00913844
0.00982327
0.0105419
0.0112963
0.0120884
0.0129203
0.0137943
0.0147127
0.0156782
0.0167801
0.0179978
0.0192212
0.0204508
0.0216871
0.0229299
0.0241792
0.0254344
0.0266944
0.0279581
0.0292237
0.0304892
0.0317522
0.03301
0.0342595
0.0354974
0.0367198
0.0379225
0.0391012
0.0402508
0.000135804
0.000409238
0.0006959
0.000995561
0.00130872
0.00163595
0.00197793
0.00233538
0.00270907
0.00309979
0.00350838
0.00393571
0.00438272
0.00485042
0.00533985
0.00585216
0.00638857
0.00695041
0.00753911
0.00815622
0.0088034
0.00948241
0.0101951
0.0109435
0.0117296
0.0125556
0.0134238
0.0143367
0.0152971
0.0163079
0.0174633
0.0187422
0.0200293
0.0213255
0.0226311
0.0239462
0.0252705
0.0266034
0.027944
0.0292908
0.0306421
0.0319956
0.0333489
0.034699
0.0360425
0.0373758
0.0386944
0.0399939
0.0412691
0.0425145
0.000141939
0.000425191
0.000721144
0.00103078
0.00135455
0.00169288
0.00204647
0.0024161
0.00280257
0.00320672
0.0036294
0.00407154
0.00453413
0.00501822
0.00552491
0.00605542
0.00661105
0.00719321
0.00780343
0.00844336
0.00911476
0.00981951
0.0105596
0.0113371
0.0121544
0.0130136
0.0139175
0.0148689
0.0158707
0.0169263
0.0181345
0.019474
0.0208245
0.0221869
0.0235616
0.0249486
0.0263478
0.0277585
0.0291796
0.0306098
0.0320472
0.0334895
0.0349339
0.0363775
0.0378165
0.0392468
0.0406638
0.0420623
0.0434369
0.0447811
0.000150633
0.000443006
0.000747163
0.00106625
0.00140016
0.00174912
0.00211387
0.00249524
0.00289408
0.00331122
0.00374757
0.00420411
0.00468185
0.0051819
0.00570544
0.00625373
0.00682815
0.0074302
0.00806149
0.00872378
0.00941891
0.0101489
0.0109158
0.0117219
0.0125697
0.0134616
0.0144005
0.0153895
0.0164321
0.0175319
0.0187923
0.0201919
0.0216053
0.0230334
0.0244767
0.0259354
0.0274092
0.0288976
0.0303994
0.0319133
0.0334372
0.034969
0.0365057
0.038044
0.03958
0.0411094
0.042627
0.0441272
0.0456039
0.0470503
0.000160215
0.000460811
0.000772788
0.00110105
0.00144476
0.00180397
0.00217953
0.00257229
0.0029831
0.00341284
0.00386246
0.00433297
0.00482543
0.005341
0.00588092
0.00644653
0.00703927
0.00766073
0.00831261
0.00899673
0.00971505
0.0104697
0.0112628
0.0120968
0.0129744
0.0138982
0.0148714
0.0158975
0.0169801
0.0181235
0.0194353
0.0208943
0.0223699
0.0238632
0.0253746
0.0269046
0.0284528
0.0300188
0.0316014
0.0331992
0.0348104
0.0364324
0.0380625
0.039697
0.0413318
0.0429623
0.0445829
0.0461876
0.0477697
0.0493217
0.00016863
0.000477141
0.000796926
0.00113417
0.00148744
0.00185669
0.00224281
0.00264666
0.00306911
0.00351109
0.00397359
0.00445764
0.00496438
0.00549502
0.00605085
0.00663328
0.00724384
0.00788419
0.00855609
0.00926146
0.0100023
0.0107809
0.0115996
0.0124608
0.0133674
0.0143224
0.0153291
0.0163914
0.0175134
0.0186996
0.0200622
0.0215797
0.0231167
0.0246745
0.0262536
0.0278544
0.0294767
0.0311201
0.0327836
0.0344657
0.0361646
0.0378779
0.0396024
0.0413346
0.0430702
0.044804
0.0465302
0.0482423
0.0499333
0.0515949
0.000176347
0.000492366
0.000819726
0.00116574
0.00152831
0.00190728
0.00230358
0.00271813
0.00315183
0.00360564
0.00408057
0.00457773
0.00509828
0.00564348
0.00621472
0.00681345
0.00744128
0.00809993
0.00879125
0.00951722
0.01028
0.0110818
0.0119252
0.0128128
0.0137476
0.0147329
0.0157724
0.0168702
0.0180307
0.0192589
0.0206712
0.0222464
0.023844
0.0254655
0.0271116
0.0287827
0.0304788
0.0321995
0.0339439
0.0357107
0.037498
0.0393033
0.0411236
0.0429551
0.0447932
0.0466327
0.0484673
0.0502902
0.0520936
0.053869
0.000181518
0.000504283
0.000839887
0.00119488
0.00156661
0.00195508
0.00236131
0.00278627
0.00323087
0.00369611
0.00418305
0.00469284
0.00522671
0.00578597
0.00637207
0.00698653
0.00763102
0.00830733
0.00901738
0.00976322
0.0105471
0.0113713
0.0122386
0.0131517
0.0141139
0.0151287
0.0162001
0.0173324
0.0185306
0.0197999
0.021261
0.0228927
0.02455
0.0262343
0.0279466
0.0296874
0.0314568
0.0332546
0.0350801
0.0369318
0.0388081
0.0407064
0.0426238
0.0445562
0.046499
0.0484466
0.0503925
0.0523294
0.0542493
0.056143
0.000181842
0.000511828
0.000856799
0.00122075
0.00160146
0.0019993
0.00241533
0.00285048
0.0033057
0.00378204
0.0042806
0.00480258
0.00534927
0.00592206
0.00652243
0.00715201
0.00781251
0.00850578
0.00923381
0.00999872
0.0108028
0.0116487
0.0125389
0.0134767
0.0144653
0.0155087
0.0166109
0.0177769
0.0190117
0.0203211
0.0218299
0.023517
0.0252328
0.026979
0.0287566
0.0305664
0.0324087
0.0342834
0.0361898
0.0381268
0.0400926
0.042085
0.0441006
0.0461356
0.0481852
0.0502434
0.0523037
0.0543583
0.0563987
0.0584155
0.000180349
0.000518376
0.000872449
0.00124471
0.00163395
0.00204077
0.00246615
0.00291102
0.00337639
0.00386334
0.00437301
0.00490666
0.00546562
0.00605135
0.00666539
0.00730941
0.00798519
0.00869464
0.00943983
0.010223
0.0110464
0.0119129
0.0128252
0.0137866
0.0148007
0.0158716
0.0170038
0.0182022
0.0194726
0.020821
0.0223762
0.0241174
0.0258905
0.0276974
0.0295395
0.0314176
0.0333322
0.0352834
0.0372707
0.0392931
0.0413491
0.0434362
0.0455515
0.0476908
0.0498492
0.0520208
0.0541986
0.0563747
0.0585401
0.060685
0.000179836
0.000525458
0.000887592
0.00126758
0.00166489
0.00208012
0.00251424
0.00296823
0.00344314
0.00394008
0.00446025
0.00500493
0.00557553
0.00617352
0.00680052
0.00745824
0.00814851
0.00887331
0.00963476
0.0104352
0.011277
0.0121631
0.0130964
0.0140804
0.015119
0.0162163
0.0173773
0.0186072
0.019912
0.021298
0.0228983
0.0246921
0.0265212
0.0283877
0.0302931
0.0322386
0.0342248
0.0362521
0.0383202
0.0404282
0.0425747
0.0447575
0.0469736
0.0492188
0.0514883
0.053776
0.0560747
0.0583761
0.0606711
0.0629494
0.00018073
0.000532972
0.000902143
0.00128925
0.00169402
0.00211706
0.00255934
0.00302186
0.00350571
0.00401204
0.00454206
0.00509713
0.00567867
0.00628822
0.00692741
0.00759802
0.00830192
0.00904116
0.00981792
0.0106346
0.0114938
0.0123984
0.0133517
0.0143572
0.0154191
0.0165418
0.0177303
0.0189904
0.0203282
0.0217506
0.0233944
0.0252393
0.027123
0.0290477
0.0310152
0.0330271
0.0350842
0.037187
0.0393355
0.0415291
0.0437665
0.0460458
0.0483638
0.0507168
0.0530995
0.055506
0.0579289
0.0603598
0.0627892
0.0652065
0.000182508
0.000540652
0.000916107
0.0013097
0.00172129
0.00215148
0.00260128
0.0030717
0.00356386
0.00407892
0.00461815
0.00518291
0.00577467
0.006395
0.00704558
0.00772822
0.00844485
0.00919756
0.00998862
0.0108205
0.011696
0.0126181
0.0135901
0.014616
0.0157
0.0168467
0.0180616
0.0193504
0.0207199
0.0221772
0.0238629
0.0257572
0.0276938
0.0296753
0.0317037
0.0337807
0.0359077
0.0380853
0.0403138
0.0425929
0.0449215
0.0472979
0.0497191
0.0521813
0.0546795
0.0572075
0.0597581
0.0623227
0.0648915
0.0674535
0.000184556
0.000548062
0.000929233
0.00132875
0.00174655
0.00218329
0.00263996
0.00311763
0.00361741
0.00414052
0.00468824
0.00526195
0.00586316
0.00649346
0.00715457
0.00784832
0.00857671
0.00934187
0.0101462
0.0109922
0.0118828
0.0128212
0.0138109
0.0148558
0.0159606
0.01713
0.0183698
0.0196859
0.0210855
0.0225761
0.0243021
0.0262439
0.0282317
0.0302683
0.032356
0.0344969
0.0366926
0.0389441
0.041252
0.0436164
0.0460364
0.0485104
0.0510358
0.0536088
0.0562245
0.0588769
0.0615587
0.0642612
0.0669746
0.0696874
0.000186523
0.000554878
0.000941229
0.00134613
0.00176957
0.00221223
0.00267515
0.00315941
0.00366614
0.00419658
0.00475204
0.00533392
0.00594376
0.00658316
0.00725388
0.00795778
0.00869691
0.00947347
0.0102899
0.0111489
0.0120535
0.0130069
0.0140129
0.0150757
0.0161999
0.0173906
0.0186536
0.0199954
0.0214235
0.0229457
0.0247101
0.0266975
0.0287346
0.0308245
0.0329699
0.0351731
0.0374362
0.0397606
0.0421472
0.0445963
0.0471076
0.0496797
0.0523101
0.0549953
0.0577307
0.0605102
0.0633266
0.0661715
0.0690346
0.0719044
0.000188304
0.000560991
0.000951967
0.00136167
0.00179015
0.00223813
0.00270665
0.00319681
0.00370978
0.00424681
0.00480923
0.00539847
0.00601606
0.00666365
0.00734302
0.00805606
0.00880487
0.00959172
0.0104192
0.0112899
0.0122072
0.0131744
0.0141955
0.0152746
0.0164167
0.0176271
0.0189118
0.0202777
0.0217324
0.0232845
0.0250852
0.0271161
0.0292003
0.0313416
0.0335427
0.0358066
0.0381356
0.0405315
0.0429959
0.0455293
0.0481316
0.050802
0.0535381
0.0563368
0.0591937
0.0621029
0.0650575
0.068049
0.0710673
0.0741003
0.000189885
0.00056637
0.000961396
0.0013753
0.00180821
0.00226085
0.00273428
0.00322964
0.0037481
0.00429094
0.00485949
0.00545522
0.00607966
0.00673449
0.00742149
0.00814262
0.00890001
0.00969602
0.0105333
0.0114146
0.0123433
0.013323
0.0143576
0.0154516
0.01661
0.0178384
0.0191431
0.0205312
0.0220108
0.0235909
0.0254257
0.0274977
0.0296269
0.0318172
0.0340721
0.0363947
0.0387878
0.0412539
0.0437947
0.0464115
0.0491045
0.0518731
0.0547155
0.0576287
0.0606088
0.0636502
0.0667464
0.069889
0.0730677
0.0762703
0.000191264
0.000570988
0.000969465
0.00138697
0.00182365
0.00228026
0.0027579
0.00325771
0.00378088
0.0043287
0.00490253
0.00550383
0.00613416
0.00679522
0.00748881
0.00821694
0.00898178
0.00978577
0.0106316
0.0115222
0.012461
0.0134517
0.0144984
0.0156057
0.0167787
0.0180234
0.0193462
0.0207546
0.0222571
0.0238631
0.0257299
0.0278405
0.0300121
0.0322491
0.0345553
0.0369344
0.0393898
0.0419243
0.0445403
0.0472394
0.0500223
0.0528887
0.0558375
0.0588661
0.0619709
0.065147
0.068388
0.0716859
0.0750304
0.0784091
0.000192425
0.000574807
0.000976121
0.00139658
0.00183637
0.00229627
0.00277738
0.00328085
0.00380791
0.00435985
0.00493804
0.00554396
0.00617918
0.00684541
0.00754451
0.0082785
0.00904963
0.00986038
0.0107135
0.0116121
0.0125596
0.0135598
0.014617
0.0157359
0.0169218
0.0181809
0.0195199
0.0209466
0.02247
0.0240997
0.0259959
0.0281423
0.0303537
0.0326347
0.0349897
0.037423
0.0399384
0.0425394
0.0452288
0.0480088
0.0508805
0.0538442
0.0568993
0.0600438
0.0632746
0.0665875
0.0699764
0.0734338
0.0769494
0.0805104
0.000193335
0.000577781
0.000981308
0.00140407
0.00184629
0.00230874
0.00279255
0.00329889
0.00382899
0.00438414
0.00496574
0.00557527
0.00621434
0.00688467
0.00758814
0.00832683
0.00910303
0.00991929
0.0107784
0.0116836
0.0126384
0.0136465
0.0147125
0.0158413
0.0170382
0.0183097
0.0196629
0.021106
0.0226479
0.0242991
0.026222
0.0284012
0.0306494
0.0329716
0.0353727
0.0378575
0.0404306
0.0430958
0.0458566
0.0487156
0.0516747
0.0547347
0.0578956
0.0611562
0.0645141
0.0679656
0.0715054
0.075126
0.0788177
0.0825674
0.000193956
0.000579855
0.000984962
0.00140937
0.0018533
0.00231756
0.00280329
0.00331165
0.00384389
0.00440132
0.00498535
0.00559746
0.00623929
0.00691259
0.00761928
0.00836147
0.00914151
0.00996197
0.0108258
0.0117361
0.0126965
0.013711
0.0147841
0.0159208
0.0171269
0.0184089
0.0197742
0.0212313
0.0227895
0.0244595
0.0264063
0.0286152
0.030897
0.0332573
0.0357015
0.038235
0.0408629
0.0435898
0.0464196
0.0493555
0.0524002
0.0555551
0.0588209
0.0621974
0.0656831
0.0692748
0.0729678
0.0767553
0.0806278
0.0845723
0.000194254