/*--------------------------------*- C++ -*----------------------------------*\
  =========                 |
  \\      /  F ield         | OpenFOAM: The Open Source CFD Toolbox
   \\    /   O peration     | Website:  https://openfoam.org
    \\  /    A nd           | Version:  9
     \\/     M anipulation  |
\*---------------------------------------------------------------------------*/
FoamFile
{
    format      ascii;
    class       volScalarField;
    location    "0.04";
    object      rAU;
}
// * * * * * * * * * * * * * * * * * * * * * * * * * * * * * * * * * * * * * //

dimensions      [-1 3 1 0 0 0 0];

internalField   nonuniform List<scalar> 
5000
(
2.21061e-05
2.06117e-05
2.09099e-05
2.11901e-05
2.14527e-05
2.16987e-05
2.19288e-05
2.2144e-05
2.23452e-05
2.25333e-05
2.27091e-05
2.28736e-05
2.30276e-05
2.31719e-05
2.33074e-05
2.34349e-05
2.35551e-05
2.36687e-05
2.37764e-05
2.38789e-05
2.39768e-05
2.40708e-05
2.41613e-05
2.42489e-05
2.43343e-05
2.44179e-05
2.45002e-05
2.45819e-05
2.46634e-05
2.47568e-05
2.49072e-05
2.49804e-05
2.50446e-05
2.51103e-05
2.51775e-05
2.52465e-05
2.53174e-05
2.53903e-05
2.54653e-05
2.55427e-05
2.56225e-05
2.5705e-05
2.57903e-05
2.58786e-05
2.59703e-05
2.60656e-05
2.61656e-05
2.62712e-05
2.63835e-05
2.65028e-05
2.92722e-05
2.67033e-05
2.71993e-05
2.76679e-05
2.81094e-05
2.85246e-05
2.89143e-05
2.92795e-05
2.96211e-05
2.99405e-05
3.02386e-05
3.05167e-05
3.07759e-05
3.10175e-05
3.12427e-05
3.14525e-05
3.16482e-05
3.18307e-05
3.20012e-05
3.21606e-05
3.23099e-05
3.245e-05
3.25817e-05
3.27059e-05
3.28234e-05
3.2935e-05
3.30413e-05
3.3143e-05
3.32409e-05
3.33567e-05
3.35662e-05
3.36279e-05
3.36716e-05
3.37163e-05
3.37619e-05
3.38086e-05
3.38565e-05
3.39056e-05
3.39561e-05
3.40079e-05
3.40613e-05
3.41162e-05
3.41729e-05
3.42315e-05
3.4292e-05
3.43549e-05
3.44206e-05
3.44898e-05
3.45631e-05
3.46407e-05
2.92726e-05
2.67034e-05
2.71993e-05
2.76679e-05
2.81095e-05
2.85247e-05
2.89144e-05
2.92796e-05
2.96213e-05
2.99407e-05
3.02388e-05
3.0517e-05
3.07763e-05
3.10179e-05
3.12431e-05
3.1453e-05
3.16487e-05
3.18313e-05
3.20018e-05
3.21613e-05
3.23106e-05
3.24508e-05
3.25826e-05
3.27069e-05
3.28244e-05
3.2936e-05
3.30424e-05
3.31442e-05
3.32422e-05
3.33581e-05
3.35675e-05
3.36293e-05
3.36733e-05
3.37181e-05
3.37639e-05
3.38108e-05
3.38589e-05
3.39083e-05
3.39589e-05
3.40111e-05
3.40647e-05
3.412e-05
3.41771e-05
3.4236e-05
3.4297e-05
3.43604e-05
3.44266e-05
3.44964e-05
3.45703e-05
3.46485e-05
2.9273e-05
2.67035e-05
2.71994e-05
2.7668e-05
2.81095e-05
2.85248e-05
2.89145e-05
2.92798e-05
2.96215e-05
2.99409e-05
3.02391e-05
3.05173e-05
3.07766e-05
3.10183e-05
3.12436e-05
3.14535e-05
3.16492e-05
3.18319e-05
3.20025e-05
3.2162e-05
3.23114e-05
3.24516e-05
3.25835e-05
3.27078e-05
3.28255e-05
3.29371e-05
3.30436e-05
3.31455e-05
3.32436e-05
3.33595e-05
3.35689e-05
3.36308e-05
3.36749e-05
3.372e-05
3.3766e-05
3.38131e-05
3.38614e-05
3.3911e-05
3.39619e-05
3.40143e-05
3.40683e-05
3.41239e-05
3.41813e-05
3.42406e-05
3.43021e-05
3.43659e-05
3.44327e-05
3.4503e-05
3.45774e-05
3.46561e-05
2.92731e-05
2.67036e-05
2.71994e-05
2.7668e-05
2.81096e-05
2.85248e-05
2.89146e-05
2.92799e-05
2.96217e-05
2.99411e-05
3.02393e-05
3.05175e-05
3.07769e-05
3.10187e-05
3.12439e-05
3.14539e-05
3.16497e-05
3.18324e-05
3.20031e-05
3.21627e-05
3.23121e-05
3.24524e-05
3.25843e-05
3.27088e-05
3.28265e-05
3.29382e-05
3.30448e-05
3.31468e-05
3.32449e-05
3.33609e-05
3.35703e-05
3.36324e-05
3.36767e-05
3.37219e-05
3.37681e-05
3.38154e-05
3.38639e-05
3.39138e-05
3.3965e-05
3.40176e-05
3.40719e-05
3.41278e-05
3.41856e-05
3.42453e-05
3.43072e-05
3.43715e-05
3.44387e-05
3.45095e-05
3.45843e-05
3.46633e-05
2.92729e-05
2.67034e-05
2.71993e-05
2.76679e-05
2.81095e-05
2.85248e-05
2.89146e-05
2.92799e-05
2.96217e-05
2.99412e-05
3.02394e-05
3.05177e-05
3.07771e-05
3.10189e-05
3.12443e-05
3.14543e-05
3.16502e-05
3.18329e-05
3.20037e-05
3.21633e-05
3.23128e-05
3.24532e-05
3.25852e-05
3.27097e-05
3.28275e-05
3.29393e-05
3.30459e-05
3.3148e-05
3.32463e-05
3.33624e-05
3.35717e-05
3.3634e-05
3.36784e-05
3.37238e-05
3.37702e-05
3.38177e-05
3.38665e-05
3.39166e-05
3.3968e-05
3.4021e-05
3.40755e-05
3.41318e-05
3.41899e-05
3.42499e-05
3.43122e-05
3.43769e-05
3.44446e-05
3.45157e-05
3.45908e-05
3.46699e-05
2.92725e-05
2.67032e-05
2.71991e-05
2.76677e-05
2.81093e-05
2.85246e-05
2.89145e-05
2.92798e-05
2.96217e-05
2.99412e-05
3.02395e-05
3.05178e-05
3.07773e-05
3.10191e-05
3.12445e-05
3.14546e-05
3.16506e-05
3.18334e-05
3.20042e-05
3.21639e-05
3.23135e-05
3.24539e-05
3.2586e-05
3.27105e-05
3.28284e-05
3.29403e-05
3.30471e-05
3.31492e-05
3.32476e-05
3.33638e-05
3.35731e-05
3.36356e-05
3.36802e-05
3.37257e-05
3.37723e-05
3.38201e-05
3.38691e-05
3.39194e-05
3.39711e-05
3.40243e-05
3.40791e-05
3.41357e-05
3.41941e-05
3.42545e-05
3.43171e-05
3.43822e-05
3.44502e-05
3.45216e-05
3.45968e-05
3.46759e-05
2.9272e-05
2.67028e-05
2.71987e-05
2.76673e-05
2.8109e-05
2.85244e-05
2.89142e-05
2.92796e-05
2.96215e-05
2.99411e-05
3.02394e-05
3.05178e-05
3.07773e-05
3.10192e-05
3.12447e-05
3.14549e-05
3.16509e-05
3.18338e-05
3.20046e-05
3.21644e-05
3.23141e-05
3.24545e-05
3.25867e-05
3.27114e-05
3.28293e-05
3.29414e-05
3.30482e-05
3.31504e-05
3.32489e-05
3.33652e-05
3.35746e-05
3.36371e-05
3.36819e-05
3.37277e-05
3.37745e-05
3.38224e-05
3.38716e-05
3.39222e-05
3.39741e-05
3.40276e-05
3.40827e-05
3.41395e-05
3.41982e-05
3.4259e-05
3.43219e-05
3.43872e-05
3.44555e-05
3.45271e-05
3.46024e-05
3.46813e-05
2.92713e-05
2.67022e-05
2.71981e-05
2.76668e-05
2.81085e-05
2.85239e-05
2.89139e-05
2.92793e-05
2.96212e-05
2.99408e-05
3.02392e-05
3.05176e-05
3.07772e-05
3.10192e-05
3.12448e-05
3.1455e-05
3.16511e-05
3.1834e-05
3.20049e-05
3.21648e-05
3.23146e-05
3.24551e-05
3.25874e-05
3.27122e-05
3.28302e-05
3.29423e-05
3.30492e-05
3.31516e-05
3.32502e-05
3.33666e-05
3.3576e-05
3.36387e-05
3.36837e-05
3.37296e-05
3.37766e-05
3.38247e-05
3.38742e-05
3.39249e-05
3.39771e-05
3.40308e-05
3.40862e-05
3.41433e-05
3.42023e-05
3.42633e-05
3.43265e-05
3.43921e-05
3.44605e-05
3.45322e-05
3.46074e-05
3.4686e-05
2.92703e-05
2.67015e-05
2.71974e-05
2.76662e-05
2.81079e-05
2.85234e-05
2.89133e-05
2.92788e-05
2.96208e-05
2.99404e-05
3.02389e-05
3.05174e-05
3.07771e-05
3.10191e-05
3.12447e-05
3.1455e-05
3.16512e-05
3.18342e-05
3.20052e-05
3.21652e-05
3.2315e-05
3.24557e-05
3.2588e-05
3.27129e-05
3.2831e-05
3.29432e-05
3.30502e-05
3.31527e-05
3.32514e-05
3.33679e-05
3.35774e-05
3.36403e-05
3.36854e-05
3.37315e-05
3.37787e-05
3.3827e-05
3.38767e-05
3.39276e-05
3.39801e-05
3.4034e-05
3.40896e-05
3.4147e-05
3.42062e-05
3.42674e-05
3.43308e-05
3.43967e-05
3.44652e-05
3.45369e-05
3.46119e-05
3.469e-05
2.92691e-05
2.67006e-05
2.71966e-05
2.76653e-05
2.81071e-05
2.85226e-05
2.89126e-05
2.92781e-05
2.96202e-05
2.99399e-05
3.02385e-05
3.0517e-05
3.07767e-05
3.10189e-05
3.12446e-05
3.14549e-05
3.16512e-05
3.18343e-05
3.20054e-05
3.21654e-05
3.23154e-05
3.24561e-05
3.25885e-05
3.27135e-05
3.28317e-05
3.29441e-05
3.30512e-05
3.31538e-05
3.32526e-05
3.33692e-05
3.35788e-05
3.36418e-05
3.36871e-05
3.37334e-05
3.37807e-05
3.38293e-05
3.38791e-05
3.39303e-05
3.3983e-05
3.40371e-05
3.4093e-05
3.41505e-05
3.421e-05
3.42714e-05
3.4335e-05
3.44009e-05
3.44695e-05
3.45411e-05
3.46159e-05
3.46934e-05
2.92677e-05
2.66994e-05
2.71955e-05
2.76643e-05
2.81061e-05
2.85217e-05
2.89117e-05
2.92773e-05
2.96194e-05
2.99392e-05
3.02379e-05
3.05165e-05
3.07763e-05
3.10185e-05
3.12443e-05
3.14547e-05
3.1651e-05
3.18343e-05
3.20054e-05
3.21656e-05
3.23156e-05
3.24564e-05
3.2589e-05
3.2714e-05
3.28324e-05
3.29448e-05
3.3052e-05
3.31548e-05
3.32537e-05
3.33704e-05
3.35801e-05
3.36433e-05
3.36888e-05
3.37352e-05
3.37827e-05
3.38315e-05
3.38815e-05
3.39329e-05
3.39857e-05
3.40401e-05
3.40962e-05
3.41539e-05
3.42136e-05
3.42752e-05
3.43389e-05
3.44049e-05
3.44735e-05
3.45449e-05
3.46192e-05
3.46962e-05
2.9266e-05
2.66981e-05
2.71942e-05
2.7663e-05
2.81049e-05
2.85205e-05
2.89107e-05
2.92763e-05
2.96185e-05
2.99384e-05
3.02371e-05
3.05158e-05
3.07757e-05
3.1018e-05
3.12438e-05
3.14544e-05
3.16508e-05
3.18341e-05
3.20054e-05
3.21656e-05
3.23157e-05
3.24567e-05
3.25893e-05
3.27145e-05
3.2833e-05
3.29455e-05
3.30528e-05
3.31557e-05
3.32547e-05
3.33716e-05
3.35814e-05
3.36448e-05
3.36904e-05
3.3737e-05
3.37847e-05
3.38336e-05
3.38838e-05
3.39354e-05
3.39884e-05
3.4043e-05
3.40992e-05
3.41572e-05
3.4217e-05
3.42787e-05
3.43425e-05
3.44085e-05
3.4477e-05
3.45482e-05
3.46221e-05
3.46983e-05
2.9264e-05
2.66965e-05
2.71926e-05
2.76616e-05
2.81035e-05
2.85192e-05
2.89094e-05
2.92751e-05
2.96174e-05
2.99373e-05
3.02361e-05
3.05149e-05
3.07749e-05
3.10173e-05
3.12432e-05
3.14539e-05
3.16504e-05
3.18338e-05
3.20052e-05
3.21655e-05
3.23157e-05
3.24568e-05
3.25896e-05
3.27148e-05
3.28334e-05
3.29461e-05
3.30535e-05
3.31565e-05
3.32557e-05
3.33727e-05
3.35826e-05
3.36461e-05
3.36919e-05
3.37387e-05
3.37865e-05
3.38356e-05
3.3886e-05
3.39378e-05
3.3991e-05
3.40457e-05
3.41021e-05
3.41602e-05
3.42201e-05
3.42819e-05
3.43458e-05
3.44118e-05
3.44802e-05
3.45511e-05
3.46244e-05
3.46999e-05
2.92617e-05
2.66947e-05
2.71909e-05
2.76599e-05
2.81019e-05
2.85176e-05
2.89079e-05
2.92737e-05
2.9616e-05
2.99361e-05
3.02349e-05
3.05138e-05
3.07739e-05
3.10164e-05
3.12424e-05
3.14532e-05
3.16498e-05
3.18334e-05
3.20048e-05
3.21653e-05
3.23156e-05
3.24568e-05
3.25897e-05
3.27151e-05
3.28338e-05
3.29466e-05
3.30541e-05
3.31572e-05
3.32565e-05
3.33737e-05
3.35838e-05
3.36474e-05
3.36933e-05
3.37403e-05
3.37883e-05
3.38375e-05
3.38881e-05
3.394e-05
3.39934e-05
3.40483e-05
3.41048e-05
3.41631e-05
3.42231e-05
3.4285e-05
3.43488e-05
3.44147e-05
3.44829e-05
3.45535e-05
3.46262e-05
3.47009e-05
2.92591e-05
2.66927e-05
2.71889e-05
2.7658e-05
2.81e-05
2.85158e-05
2.89062e-05
2.92721e-05
2.96145e-05
2.99346e-05
3.02336e-05
3.05126e-05
3.07728e-05
3.10154e-05
3.12415e-05
3.14524e-05
3.16491e-05
3.18328e-05
3.20044e-05
3.21649e-05
3.23154e-05
3.24567e-05
3.25897e-05
3.27152e-05
3.2834e-05
3.29469e-05
3.30546e-05
3.31579e-05
3.32573e-05
3.33746e-05
3.35849e-05
3.36487e-05
3.36947e-05
3.37418e-05
3.379e-05
3.38394e-05
3.38901e-05
3.39422e-05
3.39957e-05
3.40507e-05
3.41074e-05
3.41657e-05
3.42258e-05
3.42877e-05
3.43515e-05
3.44173e-05
3.44853e-05
3.45554e-05
3.46276e-05
3.47014e-05
2.92562e-05
2.66904e-05
2.71867e-05
2.76558e-05
2.80979e-05
2.85138e-05
2.89043e-05
2.92702e-05
2.96128e-05
2.9933e-05
3.0232e-05
3.05111e-05
3.07714e-05
3.10141e-05
3.12404e-05
3.14514e-05
3.16482e-05
3.1832e-05
3.20037e-05
3.21644e-05
3.2315e-05
3.24564e-05
3.25895e-05
3.27152e-05
3.28341e-05
3.29472e-05
3.3055e-05
3.31584e-05
3.32579e-05
3.33753e-05
3.35859e-05
3.36498e-05
3.3696e-05
3.37432e-05
3.37915e-05
3.38411e-05
3.38919e-05
3.39442e-05
3.39978e-05
3.4053e-05
3.41098e-05
3.41682e-05
3.42283e-05
3.42902e-05
3.43539e-05
3.44196e-05
3.44873e-05
3.4557e-05
3.46285e-05
3.47014e-05
2.9253e-05
2.66879e-05
2.71842e-05
2.76534e-05
2.80956e-05
2.85116e-05
2.89021e-05
2.92681e-05
2.96108e-05
2.99311e-05
3.02303e-05
3.05095e-05
3.07699e-05
3.10127e-05
3.12391e-05
3.14502e-05
3.16472e-05
3.18311e-05
3.20029e-05
3.21637e-05
3.23145e-05
3.2456e-05
3.25893e-05
3.2715e-05
3.28341e-05
3.29473e-05
3.30553e-05
3.31588e-05
3.32585e-05
3.3376e-05
3.35868e-05
3.36509e-05
3.36972e-05
3.37445e-05
3.3793e-05
3.38427e-05
3.38937e-05
3.3946e-05
3.39998e-05
3.40551e-05
3.41119e-05
3.41704e-05
3.42305e-05
3.42924e-05
3.43561e-05
3.44216e-05
3.44889e-05
3.45582e-05
3.4629e-05
3.4701e-05
2.92494e-05
2.66851e-05
2.71815e-05
2.76507e-05
2.8093e-05
2.85091e-05
2.88997e-05
2.92658e-05
2.96086e-05
2.9929e-05
3.02283e-05
3.05076e-05
3.07682e-05
3.10111e-05
3.12376e-05
3.14489e-05
3.1646e-05
3.183e-05
3.2002e-05
3.21629e-05
3.23138e-05
3.24555e-05
3.25888e-05
3.27147e-05
3.2834e-05
3.29473e-05
3.30554e-05
3.3159e-05
3.32589e-05
3.33766e-05
3.35877e-05
3.36518e-05
3.36982e-05
3.37457e-05
3.37943e-05
3.38441e-05
3.38952e-05
3.39477e-05
3.40016e-05
3.4057e-05
3.41139e-05
3.41724e-05
3.42326e-05
3.42944e-05
3.43579e-05
3.44232e-05
3.44902e-05
3.4559e-05
3.46291e-05
3.47002e-05
2.92455e-05
2.6682e-05
2.71785e-05
2.76478e-05
2.80902e-05
2.85063e-05
2.8897e-05
2.92633e-05
2.96061e-05
2.99267e-05
3.02261e-05
3.05055e-05
3.07662e-05
3.10093e-05
3.1236e-05
3.14473e-05
3.16446e-05
3.18287e-05
3.20008e-05
3.21619e-05
3.23129e-05
3.24547e-05
3.25883e-05
3.27143e-05
3.28337e-05
3.29471e-05
3.30554e-05
3.31592e-05
3.32592e-05
3.3377e-05
3.35884e-05
3.36527e-05
3.36992e-05
3.37468e-05
3.37955e-05
3.38454e-05
3.38967e-05
3.39492e-05
3.40032e-05
3.40587e-05
3.41156e-05
3.41742e-05
3.42343e-05
3.42961e-05
3.43595e-05
3.44245e-05
3.44912e-05
3.45594e-05
3.46289e-05
3.4699e-05
2.92413e-05
2.66787e-05
2.71752e-05
2.76446e-05
2.80871e-05
2.85033e-05
2.88941e-05
2.92605e-05
2.96034e-05
2.99241e-05
3.02237e-05
3.05033e-05
3.07641e-05
3.10073e-05
3.12341e-05
3.14456e-05
3.1643e-05
3.18273e-05
3.19995e-05
3.21608e-05
3.23119e-05
3.24539e-05
3.25875e-05
3.27137e-05
3.28333e-05
3.29469e-05
3.30553e-05
3.31592e-05
3.32593e-05
3.33773e-05
3.3589e-05
3.36534e-05
3.37e-05
3.37477e-05
3.37966e-05
3.38466e-05
3.38979e-05
3.39506e-05
3.40047e-05
3.40602e-05
3.41172e-05
3.41757e-05
3.42358e-05
3.42975e-05
3.43607e-05
3.44255e-05
3.44918e-05
3.45595e-05
3.46283e-05
3.46975e-05
2.92367e-05
2.6675e-05
2.71716e-05
2.76411e-05
2.80837e-05
2.85e-05
2.88909e-05
2.92574e-05
2.96005e-05
2.99213e-05
3.0221e-05
3.05007e-05
3.07617e-05
3.1005e-05
3.1232e-05
3.14437e-05
3.16412e-05
3.18256e-05
3.19981e-05
3.21594e-05
3.23107e-05
3.24528e-05
3.25867e-05
3.2713e-05
3.28327e-05
3.29464e-05
3.3055e-05
3.3159e-05
3.32593e-05
3.33775e-05
3.35895e-05
3.3654e-05
3.37007e-05
3.37485e-05
3.37975e-05
3.38476e-05
3.3899e-05
3.39518e-05
3.40059e-05
3.40615e-05
3.41185e-05
3.41771e-05
3.42371e-05
3.42987e-05
3.43617e-05
3.44262e-05
3.44922e-05
3.45593e-05
3.46274e-05
3.46957e-05
2.92317e-05
2.66711e-05
2.71678e-05
2.76373e-05
2.808e-05
2.84965e-05
2.88875e-05
2.92541e-05
2.95973e-05
2.99183e-05
3.02181e-05
3.0498e-05
3.07591e-05
3.10026e-05
3.12297e-05
3.14415e-05
3.16392e-05
3.18238e-05
3.19964e-05
3.21579e-05
3.23094e-05
3.24516e-05
3.25856e-05
3.27121e-05
3.28319e-05
3.29458e-05
3.30545e-05
3.31588e-05
3.32592e-05
3.33775e-05
3.35899e-05
3.36544e-05
3.37013e-05
3.37492e-05
3.37982e-05
3.38485e-05
3.39e-05
3.39528e-05
3.4007e-05
3.40626e-05
3.41196e-05
3.41781e-05
3.42381e-05
3.42996e-05
3.43624e-05
3.44267e-05
3.44922e-05
3.45588e-05
3.46262e-05
3.46936e-05
2.92263e-05
2.66669e-05
2.71636e-05
2.76333e-05
2.80761e-05
2.84926e-05
2.88838e-05
2.92505e-05
2.95939e-05
2.9915e-05
3.0215e-05
3.0495e-05
3.07563e-05
3.09999e-05
3.12272e-05
3.14392e-05
3.1637e-05
3.18218e-05
3.19945e-05
3.21562e-05
3.23078e-05
3.24503e-05
3.25844e-05
3.2711e-05
3.2831e-05
3.29451e-05
3.30539e-05
3.31583e-05
3.32589e-05
3.33773e-05
3.35901e-05
3.36548e-05
3.37017e-05
3.37497e-05
3.37988e-05
3.38492e-05
3.39007e-05
3.39536e-05
3.40079e-05
3.40635e-05
3.41205e-05
3.4179e-05
3.42389e-05
3.43002e-05
3.43629e-05
3.44268e-05
3.44919e-05
3.45581e-05
3.46247e-05
3.46913e-05
2.92206e-05
2.66624e-05
2.71592e-05
2.7629e-05
2.80719e-05
2.84885e-05
2.88798e-05
2.92467e-05
2.95902e-05
2.99115e-05
3.02116e-05
3.04918e-05
3.07532e-05
3.0997e-05
3.12245e-05
3.14366e-05
3.16346e-05
3.18196e-05
3.19925e-05
3.21543e-05
3.23061e-05
3.24487e-05
3.2583e-05
3.27098e-05
3.28299e-05
3.29442e-05
3.30532e-05
3.31577e-05
3.32584e-05
3.3377e-05
3.35903e-05
3.3655e-05
3.3702e-05
3.37501e-05
3.37993e-05
3.38497e-05
3.39013e-05
3.39542e-05
3.40085e-05
3.40642e-05
3.41212e-05
3.41796e-05
3.42394e-05
3.43006e-05
3.4363e-05
3.44267e-05
3.44914e-05
3.4557e-05
3.4623e-05
3.46887e-05
2.92145e-05
2.66576e-05
2.71545e-05
2.76244e-05
2.80674e-05
2.84842e-05
2.88756e-05
2.92426e-05
2.95863e-05
2.99077e-05
3.0208e-05
3.04883e-05
3.07499e-05
3.09939e-05
3.12215e-05
3.14339e-05
3.1632e-05
3.18172e-05
3.19902e-05
3.21523e-05
3.23042e-05
3.2447e-05
3.25814e-05
3.27084e-05
3.28287e-05
3.29431e-05
3.30523e-05
3.3157e-05
3.32578e-05
3.33766e-05
3.35902e-05
3.3655e-05
3.37021e-05
3.37503e-05
3.37996e-05
3.385e-05
3.39017e-05
3.39547e-05
3.4009e-05
3.40646e-05
3.41216e-05
3.418e-05
3.42397e-05
3.43007e-05
3.43629e-05
3.44263e-05
3.44906e-05
3.45557e-05
3.4621e-05
3.4686e-05
2.92081e-05
2.66525e-05
2.71495e-05
2.76195e-05
2.80626e-05
2.84795e-05
2.88711e-05
2.92383e-05
2.95821e-05
2.99037e-05
3.02041e-05
3.04846e-05
3.07464e-05
3.09906e-05
3.12184e-05
3.14309e-05
3.16292e-05
3.18145e-05
3.19878e-05
3.215e-05
3.23021e-05
3.2445e-05
3.25797e-05
3.27068e-05
3.28273e-05
3.29418e-05
3.30512e-05
3.3156e-05
3.32571e-05
3.3376e-05
3.35901e-05
3.36549e-05
3.37021e-05
3.37503e-05
3.37997e-05
3.38502e-05
3.39019e-05
3.39549e-05
3.40092e-05
3.40649e-05
3.41218e-05
3.41802e-05
3.42398e-05
3.43006e-05
3.43626e-05
3.44257e-05
3.44896e-05
3.45542e-05
3.46188e-05
3.4683e-05
2.92012e-05
2.66471e-05
2.71442e-05
2.76143e-05
2.80575e-05
2.84746e-05
2.88663e-05
2.92337e-05
2.95776e-05
2.98994e-05
3.02e-05
3.04807e-05
3.07427e-05
3.0987e-05
3.1215e-05
3.14277e-05
3.16262e-05
3.18117e-05
3.19851e-05
3.21475e-05
3.22998e-05
3.24429e-05
3.25777e-05
3.27051e-05
3.28257e-05
3.29404e-05
3.30499e-05
3.31549e-05
3.32561e-05
3.33752e-05
3.35898e-05
3.36547e-05
3.37019e-05
3.37502e-05
3.37996e-05
3.38501e-05
3.39019e-05
3.39549e-05
3.40093e-05
3.40649e-05
3.41218e-05
3.41801e-05
3.42396e-05
3.43002e-05
3.4362e-05
3.44248e-05
3.44883e-05
3.45524e-05
3.46165e-05
3.46799e-05
2.9194e-05
2.66414e-05
2.71386e-05
2.76088e-05
2.80522e-05
2.84694e-05
2.88613e-05
2.92288e-05
2.95729e-05
2.98948e-05
3.01957e-05
3.04765e-05
3.07387e-05
3.09832e-05
3.12114e-05
3.14243e-05
3.1623e-05
3.18087e-05
3.19823e-05
3.21449e-05
3.22973e-05
3.24406e-05
3.25756e-05
3.27031e-05
3.28239e-05
3.29388e-05
3.30485e-05
3.31537e-05
3.3255e-05
3.33742e-05
3.35893e-05
3.36543e-05
3.37016e-05
3.37499e-05
3.37993e-05
3.38499e-05
3.39017e-05
3.39548e-05
3.40091e-05
3.40647e-05
3.41216e-05
3.41797e-05
3.42391e-05
3.42996e-05
3.43612e-05
3.44237e-05
3.44868e-05
3.45504e-05
3.46139e-05
3.46766e-05
2.91865e-05
2.66354e-05
2.71328e-05
2.76031e-05
2.80466e-05
2.84639e-05
2.8856e-05
2.92236e-05
2.9568e-05
2.98901e-05
3.01911e-05
3.04721e-05
3.07345e-05
3.09792e-05
3.12076e-05
3.14207e-05
3.16196e-05
3.18054e-05
3.19792e-05
3.2142e-05
3.22947e-05
3.24382e-05
3.25733e-05
3.2701e-05
3.2822e-05
3.2937e-05
3.30469e-05
3.31522e-05
3.32537e-05
3.33731e-05
3.35887e-05
3.36537e-05
3.3701e-05
3.37494e-05
3.37989e-05
3.38495e-05
3.39013e-05
3.39544e-05
3.40087e-05
3.40643e-05
3.41211e-05
3.41792e-05
3.42384e-05
3.42988e-05
3.43601e-05
3.44223e-05
3.44851e-05
3.45482e-05
3.46111e-05
3.46732e-05
2.91786e-05
2.66292e-05
2.71266e-05
2.75971e-05
2.80407e-05
2.84582e-05
2.88504e-05
2.92182e-05
2.95628e-05
2.9885e-05
3.01862e-05
3.04675e-05
3.073e-05
3.0975e-05
3.12035e-05
3.14168e-05
3.16159e-05
3.1802e-05
3.1976e-05
3.2139e-05
3.22918e-05
3.24355e-05
3.25708e-05
3.26987e-05
3.28198e-05
3.29351e-05
3.30451e-05
3.31506e-05
3.32523e-05
3.33718e-05
3.35879e-05
3.3653e-05
3.37003e-05
3.37487e-05
3.37982e-05
3.38489e-05
3.39007e-05
3.39537e-05
3.4008e-05
3.40636e-05
3.41204e-05
3.41784e-05
3.42375e-05
3.42977e-05
3.43588e-05
3.44207e-05
3.44831e-05
3.45458e-05
3.46082e-05
3.46696e-05
2.91703e-05
2.66226e-05
2.71202e-05
2.75908e-05
2.80346e-05
2.84522e-05
2.88446e-05
2.92126e-05
2.95573e-05
2.98798e-05
3.01812e-05
3.04626e-05
3.07254e-05
3.09705e-05
3.11993e-05
3.14128e-05
3.16121e-05
3.17984e-05
3.19726e-05
3.21357e-05
3.22888e-05
3.24326e-05
3.25681e-05
3.26962e-05
3.28175e-05
3.29329e-05
3.30431e-05
3.31488e-05
3.32506e-05
3.33703e-05
3.3587e-05
3.36521e-05
3.36994e-05
3.37479e-05
3.37974e-05
3.3848e-05
3.38999e-05
3.39529e-05
3.40072e-05
3.40627e-05
3.41194e-05
3.41773e-05
3.42363e-05
3.42963e-05
3.43572e-05
3.44188e-05
3.4481e-05
3.45432e-05
3.46051e-05
3.46659e-05
2.91617e-05
2.66158e-05
2.71135e-05
2.75842e-05
2.80281e-05
2.8446e-05
2.88385e-05
2.92067e-05
2.95516e-05
2.98743e-05
3.01758e-05
3.04575e-05
3.07205e-05
3.09658e-05
3.11948e-05
3.14085e-05
3.1608e-05
3.17945e-05
3.19689e-05
3.21323e-05
3.22855e-05
3.24296e-05
3.25653e-05
3.26935e-05
3.2815e-05
3.29306e-05
3.30409e-05
3.31468e-05
3.32488e-05
3.33686e-05
3.35858e-05
3.3651e-05
3.36984e-05
3.37468e-05
3.37963e-05
3.3847e-05
3.38988e-05
3.39519e-05
3.40061e-05
3.40616e-05
3.41182e-05
3.4176e-05
3.42349e-05
3.42947e-05
3.43554e-05
3.44168e-05
3.44786e-05
3.45404e-05
3.46018e-05
3.46621e-05
2.91527e-05
2.66087e-05
2.71065e-05
2.75774e-05
2.80215e-05
2.84395e-05
2.88322e-05
2.92006e-05
2.95456e-05
2.98685e-05
3.01703e-05
3.04522e-05
3.07154e-05
3.09609e-05
3.11901e-05
3.1404e-05
3.16038e-05
3.17905e-05
3.19651e-05
3.21286e-05
3.22821e-05
3.24263e-05
3.25622e-05
3.26906e-05
3.28123e-05
3.29281e-05
3.30386e-05
3.31446e-05
3.32468e-05
3.33667e-05
3.35846e-05
3.36497e-05
3.36971e-05
3.37456e-05
3.37951e-05
3.38457e-05
3.38975e-05
3.39506e-05
3.40048e-05
3.40602e-05
3.41168e-05
3.41745e-05
3.42332e-05
3.42929e-05
3.43534e-05
3.44145e-05
3.44759e-05
3.45374e-05
3.45983e-05
3.46581e-05
2.91433e-05
2.66013e-05
2.70992e-05
2.75702e-05
2.80145e-05
2.84327e-05
2.88256e-05
2.91942e-05
2.95395e-05
2.98625e-05
3.01645e-05
3.04467e-05
3.071e-05
3.09558e-05
3.11852e-05
3.13994e-05
3.15993e-05
3.17862e-05
3.1961e-05
3.21248e-05
3.22784e-05
3.24229e-05
3.2559e-05
3.26876e-05
3.28094e-05
3.29254e-05
3.30361e-05
3.31422e-05
3.32445e-05
3.33647e-05
3.35831e-05
3.36482e-05
3.36957e-05
3.37441e-05
3.37936e-05
3.38443e-05
3.38961e-05
3.3949e-05
3.40032e-05
3.40586e-05
3.41151e-05
3.41727e-05
3.42313e-05
3.42908e-05
3.43511e-05
3.4412e-05
3.44731e-05
3.45342e-05
3.45947e-05
3.4654e-05
2.91336e-05
2.65937e-05
2.70917e-05
2.75629e-05
2.80074e-05
2.84257e-05
2.88188e-05
2.91876e-05
2.95331e-05
2.98563e-05
3.01586e-05
3.04409e-05
3.07045e-05
3.09505e-05
3.11801e-05
3.13945e-05
3.15947e-05
3.17818e-05
3.19568e-05
3.21207e-05
3.22746e-05
3.24192e-05
3.25555e-05
3.26843e-05
3.28064e-05
3.29225e-05
3.30333e-05
3.31397e-05
3.32421e-05
3.33624e-05
3.35815e-05
3.36466e-05
3.3694e-05
3.37424e-05
3.37919e-05
3.38426e-05
3.38943e-05
3.39473e-05
3.40014e-05
3.40567e-05
3.41131e-05
3.41706e-05
3.42291e-05
3.42885e-05
3.43486e-05
3.44092e-05
3.44701e-05
3.45308e-05
3.4591e-05
3.46498e-05
2.91236e-05
2.65859e-05
2.70841e-05
2.75554e-05
2.8e-05
2.84185e-05
2.88118e-05
2.91808e-05
2.95264e-05
2.98499e-05
3.01524e-05
3.04349e-05
3.06987e-05
3.0945e-05
3.11748e-05
3.13894e-05
3.15898e-05
3.17771e-05
3.19523e-05
3.21165e-05
3.22706e-05
3.24154e-05
3.25519e-05
3.26809e-05
3.28031e-05
3.29194e-05
3.30304e-05
3.31369e-05
3.32395e-05
3.336e-05
3.35797e-05
3.36448e-05
3.36922e-05
3.37406e-05
3.379e-05
3.38406e-05
3.38924e-05
3.39453e-05
3.39993e-05
3.40545e-05
3.41109e-05
3.41683e-05
3.42266e-05
3.42859e-05
3.43458e-05
3.44062e-05
3.44668e-05
3.45273e-05
3.4587e-05
3.46455e-05
2.91135e-05
2.6578e-05
2.70763e-05
2.75478e-05
2.79925e-05
2.84112e-05
2.88046e-05
2.91737e-05
2.95196e-05
2.98433e-05
3.0146e-05
3.04287e-05
3.06928e-05
3.09392e-05
3.11693e-05
3.13841e-05
3.15847e-05
3.17723e-05
3.19477e-05
3.21121e-05
3.22664e-05
3.24114e-05
3.25481e-05
3.26772e-05
3.27996e-05
3.29161e-05
3.30273e-05
3.31339e-05
3.32367e-05
3.33573e-05
3.35777e-05
3.36427e-05
3.36901e-05
3.37385e-05
3.37879e-05
3.38385e-05
3.38901e-05
3.3943e-05
3.3997e-05
3.40521e-05
3.41084e-05
3.41657e-05
3.42239e-05
3.4283e-05
3.43427e-05
3.44029e-05
3.44633e-05
3.45235e-05
3.45829e-05
3.46411e-05
2.91035e-05
2.657e-05
2.70684e-05
2.75399e-05
2.79847e-05
2.84036e-05
2.87972e-05
2.91665e-05
2.95126e-05
2.98365e-05
3.01394e-05
3.04224e-05
3.06866e-05
3.09333e-05
3.11636e-05
3.13786e-05
3.15795e-05
3.17672e-05
3.19429e-05
3.21075e-05
3.22619e-05
3.24072e-05
3.2544e-05
3.26734e-05
3.2796e-05
3.29126e-05
3.3024e-05
3.31308e-05
3.32337e-05
3.33544e-05
3.35755e-05
3.36405e-05
3.36878e-05
3.37362e-05
3.37856e-05
3.38361e-05
3.38877e-05
3.39405e-05
3.39944e-05
3.40495e-05
3.41056e-05
3.41628e-05
3.42209e-05
3.42799e-05
3.43394e-05
3.43994e-05
3.44596e-05
3.45195e-05
3.45787e-05
3.46365e-05
2.90934e-05
2.65619e-05
2.70603e-05
2.75318e-05
2.79768e-05
2.83957e-05
2.87895e-05
2.9159e-05
2.95053e-05
2.98295e-05
3.01325e-05
3.04158e-05
3.06802e-05
3.09272e-05
3.11577e-05
3.13729e-05
3.1574e-05
3.1762e-05
3.19379e-05
3.21027e-05
3.22574e-05
3.24028e-05
3.25398e-05
3.26694e-05
3.27921e-05
3.29089e-05
3.30205e-05
3.31274e-05
3.32305e-05
3.33514e-05
3.35731e-05
3.36381e-05
3.36853e-05
3.37336e-05
3.3783e-05
3.38334e-05
3.3885e-05
3.39377e-05
3.39915e-05
3.40465e-05
3.41026e-05
3.41597e-05
3.42176e-05
3.42764e-05
3.43359e-05
3.43957e-05
3.44556e-05
3.45153e-05
3.45742e-05
3.46318e-05
2.90832e-05
2.65537e-05
2.70519e-05
2.75235e-05
2.79685e-05
2.83876e-05
2.87816e-05
2.91513e-05
2.94978e-05
2.98222e-05
3.01255e-05
3.0409e-05
3.06737e-05
3.09208e-05
3.11516e-05
3.13671e-05
3.15684e-05
3.17566e-05
3.19327e-05
3.20977e-05
3.22526e-05
3.23982e-05
3.25355e-05
3.26652e-05
3.27881e-05
3.29051e-05
3.30168e-05
3.31239e-05
3.32271e-05
3.33481e-05
3.35705e-05
3.36354e-05
3.36826e-05
3.37309e-05
3.37801e-05
3.38305e-05
3.3882e-05
3.39346e-05
3.39884e-05
3.40433e-05
3.40992e-05
3.41562e-05
3.42141e-05
3.42727e-05
3.4332e-05
3.43916e-05
3.44514e-05
3.45109e-05
3.45696e-05
3.46269e-05
2.90728e-05
2.65451e-05
2.70433e-05
2.75148e-05
2.796e-05
2.83793e-05
2.87735e-05
2.91434e-05
2.94901e-05
2.98147e-05
3.01183e-05
3.0402e-05
3.06669e-05
3.09143e-05
3.11453e-05
3.1361e-05
3.15626e-05
3.1751e-05
3.19273e-05
3.20925e-05
3.22476e-05
3.23934e-05
3.25309e-05
3.26608e-05
3.27839e-05
3.2901e-05
3.30129e-05
3.31201e-05
3.32235e-05
3.33446e-05
3.35677e-05
3.36326e-05
3.36797e-05
3.37279e-05
3.37771e-05
3.38273e-05
3.38788e-05
3.39313e-05
3.3985e-05
3.40398e-05
3.40956e-05
3.41525e-05
3.42102e-05
3.42687e-05
3.43278e-05
3.43873e-05
3.44469e-05
3.45062e-05
3.45647e-05
3.46218e-05
2.90619e-05
2.65362e-05
2.70343e-05
2.7506e-05
2.79513e-05
2.83707e-05
2.87651e-05
2.91353e-05
2.94822e-05
2.98071e-05
3.01109e-05
3.03948e-05
3.066e-05
3.09076e-05
3.11388e-05
3.13548e-05
3.15566e-05
3.17452e-05
3.19218e-05
3.20872e-05
3.22425e-05
3.23885e-05
3.25261e-05
3.26562e-05
3.27795e-05
3.28968e-05
3.30088e-05
3.31162e-05
3.32197e-05
3.33409e-05
3.35647e-05
3.36295e-05
3.36766e-05
3.37246e-05
3.37737e-05
3.38239e-05
3.38752e-05
3.39277e-05
3.39813e-05
3.40359e-05
3.40917e-05
3.41484e-05
3.4206e-05
3.42644e-05
3.43234e-05
3.43827e-05
3.44422e-05
3.45013e-05
3.45596e-05
3.46166e-05
2.90506e-05
2.65271e-05
2.70252e-05
2.74969e-05
2.79424e-05
2.8362e-05
2.87566e-05
2.9127e-05
2.94742e-05
2.97992e-05
3.01033e-05
3.03874e-05
3.06529e-05
3.09007e-05
3.11322e-05
3.13484e-05
3.15504e-05
3.17393e-05
3.1916e-05
3.20817e-05
3.22372e-05
3.23834e-05
3.25212e-05
3.26514e-05
3.27749e-05
3.28923e-05
3.30045e-05
3.3112e-05
3.32157e-05
3.3337e-05
3.35616e-05
3.36262e-05
3.36732e-05
3.37212e-05
3.37702e-05
3.38202e-05
3.38714e-05
3.39238e-05
3.39772e-05
3.40318e-05
3.40874e-05
3.4144e-05
3.42015e-05
3.42598e-05
3.43186e-05
3.43778e-05
3.44371e-05
3.44961e-05
3.45543e-05
3.46111e-05
2.90389e-05
2.65178e-05
2.7016e-05
2.74878e-05
2.79334e-05
2.83532e-05
2.87479e-05
2.91185e-05
2.94659e-05
2.97912e-05
3.00955e-05
3.03799e-05
3.06456e-05
3.08937e-05
3.11254e-05
3.13418e-05
3.15441e-05
3.17331e-05
3.19101e-05
3.2076e-05
3.22317e-05
3.23781e-05
3.25161e-05
3.26465e-05
3.27701e-05
3.28877e-05
3.3e-05
3.31077e-05
3.32114e-05
3.33329e-05
3.35582e-05
3.36227e-05
3.36696e-05
3.37174e-05
3.37663e-05
3.38163e-05
3.38674e-05
3.39196e-05
3.39729e-05
3.40273e-05
3.40828e-05
3.41393e-05
3.41967e-05
3.42548e-05
3.43135e-05
3.43726e-05
3.44317e-05
3.44906e-05
3.45487e-05
3.46055e-05
2.90269e-05
2.65082e-05
2.70065e-05
2.74785e-05
2.79242e-05
2.83442e-05
2.87391e-05
2.91099e-05
2.94576e-05
2.97831e-05
3.00876e-05
3.03722e-05
3.06381e-05
3.08865e-05
3.11185e-05
3.13351e-05
3.15376e-05
3.17269e-05
3.19041e-05
3.20701e-05
3.2226e-05
3.23726e-05
3.25108e-05
3.26414e-05
3.27651e-05
3.28829e-05
3.29953e-05
3.31031e-05
3.3207e-05
3.33286e-05
3.35546e-05
3.3619e-05
3.36657e-05
3.37134e-05
3.37622e-05
3.3812e-05
3.3863e-05
3.39151e-05
3.39682e-05
3.40225e-05
3.40779e-05
3.41342e-05
3.41915e-05
3.42495e-05
3.4308e-05
3.4367e-05
3.4426e-05
3.44848e-05
3.45428e-05
3.45995e-05
2.90146e-05
2.64985e-05
2.6997e-05
2.7469e-05
2.79149e-05
2.8335e-05
2.87302e-05
2.91012e-05
2.9449e-05
2.97748e-05
3.00795e-05
3.03644e-05
3.06306e-05
3.08792e-05
3.11114e-05
3.13282e-05
3.15309e-05
3.17204e-05
3.18979e-05
3.20641e-05
3.22202e-05
3.2367e-05
3.25053e-05
3.26361e-05
3.276e-05
3.28779e-05
3.29904e-05
3.30984e-05
3.32024e-05
3.3324e-05
3.35508e-05
3.36151e-05
3.36616e-05
3.37092e-05
3.37578e-05
3.38075e-05
3.38583e-05
3.39102e-05
3.39633e-05
3.40174e-05
3.40726e-05
3.41288e-05
3.41859e-05
3.42437e-05
3.43022e-05
3.4361e-05
3.442e-05
3.44787e-05
3.45366e-05
3.45933e-05
2.90022e-05
2.64887e-05
2.69872e-05
2.74594e-05
2.79054e-05
2.83258e-05
2.87211e-05
2.90923e-05
2.94404e-05
2.97663e-05
3.00713e-05
3.03564e-05
3.06228e-05
3.08717e-05
3.11041e-05
3.13212e-05
3.15241e-05
3.17139e-05
3.18915e-05
3.2058e-05
3.22142e-05
3.23612e-05
3.24997e-05
3.26306e-05
3.27547e-05
3.28727e-05
3.29854e-05
3.30934e-05
3.31975e-05
3.33192e-05
3.35467e-05
3.36109e-05
3.36573e-05
3.37047e-05
3.37531e-05
3.38027e-05
3.38533e-05
3.39051e-05
3.39579e-05
3.40119e-05
3.40669e-05
3.4123e-05
3.41799e-05
3.42377e-05
3.4296e-05
3.43547e-05
3.44136e-05
3.44722e-05
3.45301e-05
3.45868e-05
2.89896e-05
2.64787e-05
2.69773e-05
2.74497e-05
2.78959e-05
2.83163e-05
2.87119e-05
2.90833e-05
2.94316e-05
2.97578e-05
3.0063e-05
3.03484e-05
3.0615e-05
3.08641e-05
3.10967e-05
3.13141e-05
3.15172e-05
3.17072e-05
3.1885e-05
3.20516e-05
3.22081e-05
3.23552e-05
3.24939e-05
3.2625e-05
3.27492e-05
3.28673e-05
3.29801e-05
3.30883e-05
3.31924e-05
3.33142e-05
3.35425e-05
3.36065e-05
3.36527e-05
3.36999e-05
3.37482e-05
3.37975e-05
3.3848e-05
3.38996e-05
3.39522e-05
3.4006e-05
3.40609e-05
3.41168e-05
3.41736e-05
3.42311e-05
3.42894e-05
3.4348e-05
3.44067e-05
3.44653e-05
3.45232e-05
3.458e-05
2.89769e-05
2.64685e-05
2.69673e-05
2.74398e-05
2.78862e-05
2.83068e-05
2.87025e-05
2.90742e-05
2.94227e-05
2.97491e-05
3.00546e-05
3.03402e-05
3.0607e-05
3.08563e-05
3.10892e-05
3.13068e-05
3.15101e-05
3.17003e-05