/*--------------------------------*- C++ -*----------------------------------*\
  =========                 |
  \\      /  F ield         | OpenFOAM: The Open Source CFD Toolbox
   \\    /   O peration     | Website:  https://openfoam.org
    \\  /    A nd           | Version:  9
     \\/     M anipulation  |
\*---------------------------------------------------------------------------*/
FoamFile
{
    format      ascii;
    class       surfaceVectorField;
    location    "0.04";
    object      Uf;
}
// * * * * * * * * * * * * * * * * * * * * * * * * * * * * * * * * * * * * * //

dimensions      [0 1 -1 0 0 0 0];

internalField   nonuniform List<vector> 
9850
(
(-8.41664e-06 0 -0.00207245)
(-3.44031e-05 0 -0.00176094)
(-5.78307e-07 0 -0.00297427)
(-1.00164e-05 0 -0.00248459)
(2.22768e-06 0 -0.00408086)
(-1.29237e-06 0 -0.00352714)
(3.76353e-06 0 -0.00526551)
(2.18618e-06 0 -0.0046802)
(5.29318e-06 0 -0.00650957)
(5.27611e-06 0 -0.00589373)
(7.00109e-06 0 -0.00782115)
(8.65161e-06 0 -0.00717008)
(8.87379e-06 0 -0.0092101)
(1.22841e-05 0 -0.00851937)
(1.09052e-05 0 -0.0106849)
(1.61603e-05 0 -0.00995061)
(1.31102e-05 0 -0.0122536)
(2.03133e-05 0 -0.0114718)
(1.55126e-05 0 -0.013924)
(2.47951e-05 0 -0.0130909)
(1.81379e-05 0 -0.0157045)
(2.96619e-05 0 -0.014816)
(2.10111e-05 0 -0.0176037)
(3.49685e-05 0 -0.0166555)
(2.41569e-05 0 -0.0196305)
(4.07679e-05 0 -0.0186183)
(2.76003e-05 0 -0.0217938)
(4.7112e-05 0 -0.0207131)
(3.13665e-05 0 -0.0241028)
(5.40532e-05 0 -0.0229492)
(3.54819e-05 0 -0.0265671)
(6.16451e-05 0 -0.0253358)
(3.99746e-05 0 -0.0291962)
(6.99437e-05 0 -0.0278826)
(4.48748e-05 0 -0.0320004)
(7.90092e-05 0 -0.0305994)
(5.02161e-05 0 -0.03499)
(8.89066e-05 0 -0.0334964)
(5.60362e-05 0 -0.0381762)
(9.97081e-05 0 -0.0365845)
(6.23778e-05 0 -0.0415706)
(0.000111494 0 -0.0398749)
(6.92908e-05 0 -0.045186)
(0.000124358 0 -0.04338)
(7.68342e-05 0 -0.0490362)
(0.000138406 0 -0.0471128)
(8.5079e-05 0 -0.0531363)
(0.000153764 0 -0.0510878)
(9.41122e-05 0 -0.0575035)
(0.000170584 0 -0.0553211)
(0.000104042 0 -0.0621573)
(0.000189047 0 -0.0598308)
(0.000114998 0 -0.0671203)
(0.000209374 0 -0.064638)
(0.000127126 0 -0.0724191)
(0.000231815 0 -0.0697672)
(0.000140558 0 -0.0780826)
(0.000256627 0 -0.0752467)
(0.000155342 0 -0.0841377)
(0.000284068 0 -0.0811062)
(0.000173131 0 -0.0916708)
(0.000315864 0 -0.0879032)
(0.000192086 0 -0.0993149)
(0.000351884 0 -0.0954916)
(0.000212388 0 -0.107082)
(0.000390423 0 -0.103196)
(0.000234218 0 -0.114989)
(0.000431697 0 -0.111031)
(0.000257734 0 -0.123051)
(0.000476056 0 -0.119013)
(0.000283082 0 -0.131282)
(0.000523792 0 -0.127159)
(0.000310413 0 -0.139697)
(0.000575192 0 -0.135482)
(0.000339904 0 -0.148306)
(0.000630569 0 -0.143993)
(0.000371778 0 -0.157123)
(0.000690299 0 -0.152706)
(0.000406305 0 -0.16616)
(0.000754839 0 -0.161633)
(0.000443799 0 -0.175433)
(0.000824732 0 -0.170788)
(0.000484614 0 -0.184956)
(0.000900606 0 -0.180186)
(0.000529219 0 -0.194747)
(0.00098323 0 -0.189843)
(0.000578413 0 -0.204825)
(0.00107373 0 -0.199776)
(0.000633689 0 -0.215223)
(0.00117404 0 -0.21001)
(0.000697376 0 -0.226004)
(0.00128726 0 -0.220587)
(0.000771868 0 -0.237262)
(0.00141719 0 -0.231587)
(0.000857821 0 -0.249104)
(0.00156618 0 -0.243123)
(0.000953381 0 -0.261591)
(0.00173287 0 -0.255292)
(0.00191398 0 -0.268117)
(-2.63977e-05 0 -0.00215853)
(-4.82772e-05 0 -0.00186445)
(-9.37231e-06 0 -0.00301539)
(-1.83697e-05 0 -0.00253756)
(-1.63206e-06 0 -0.00410161)
(-6.58463e-06 0 -0.00355008)
(3.52243e-06 0 -0.00528201)
(-5.49219e-07 0 -0.00469475)
(8.52751e-06 0 -0.0065263)
(5.37786e-06 0 -0.00590719)
(1.38263e-05 0 -0.00783867)
(1.18507e-05 0 -0.00718366)
(1.94513e-05 0 -0.00922838)
(1.878e-05 0 -0.00853311)
(2.54357e-05 0 -0.010704)
(2.61746e-05 0 -0.00996454)
(3.18498e-05 0 -0.0122734)
(3.41074e-05 0 -0.0114861)
(3.8779e-05 0 -0.0139448)
(4.26774e-05 0 -0.0131056)
(4.63091e-05 0 -0.0157263)
(5.19913e-05 0 -0.0148312)
(5.45229e-05 0 -0.0176267)
(6.21547e-05 0 -0.0166713)
(6.35006e-05 0 -0.0196545)
(7.32716e-05 0 -0.0186347)
(7.33216e-05 0 -0.0218191)
(8.54452e-05 0 -0.0207303)
(8.40661e-05 0 -0.0241294)
(9.87805e-05 0 -0.0229671)
(9.58174e-05 0 -0.026595)
(0.000113386 0 -0.0253545)
(0.000108663 0 -0.0292256)
(0.000129375 0 -0.0279021)
(0.000122698 0 -0.0320313)
(0.000146869 0 -0.0306197)
(0.000138025 0 -0.0350226)
(0.000166 0 -0.0335176)
(0.000154758 0 -0.0382105)
(0.000186913 0 -0.0366065)
(0.000173028 0 -0.0416068)
(0.000209771 0 -0.0398979)
(0.000192983 0 -0.0452242)
(0.000234756 0 -0.0434039)
(0.000214796 0 -0.0490766)
(0.000262081 0 -0.0471377)
(0.000238671 0 -0.0531791)
(0.00029199 0 -0.0511138)
(0.000264854 0 -0.0575489)
(0.000324774 0 -0.0553482)
(0.000293637 0 -0.0622055)
(0.000360778 0 -0.0598593)
(0.000325365 0 -0.0671717)
(0.000400408 0 -0.0646679)
(0.00036041 0 -0.0724739)
(0.000444118 0 -0.0697986)
(0.00039909 0 -0.0781411)
(0.00049236 0 -0.0752798)
(0.000441451 0 -0.0841996)
(0.000545617 0 -0.0811407)
(0.000493997 0 -0.0917371)
(0.000607822 0 -0.0879383)
(0.000549624 0 -0.0993863)
(0.000678745 0 -0.0955287)
(0.000609025 0 -0.107159)
(0.000754481 0 -0.103235)
(0.000672756 0 -0.115072)
(0.000835457 0 -0.111073)
(0.00074127 0 -0.12314)
(0.000922359 0 -0.119059)
(0.000814993 0 -0.131378)
(0.00101575 0 -0.127208)
(0.000894366 0 -0.139799)
(0.00111618 0 -0.135535)
(0.000979892 0 -0.148416)
(0.00122425 0 -0.14405)
(0.00107218 0 -0.15724)
(0.00134066 0 -0.152768)
(0.00117195 0 -0.166286)
(0.00146626 0 -0.1617)
(0.00128008 0 -0.175568)
(0.00160204 0 -0.17086)
(0.00139756 0 -0.185102)
(0.00174916 0 -0.180264)
(0.00152576 0 -0.194904)
(0.00190905 0 -0.189928)
(0.00166684 0 -0.204996)
(0.00208375 0 -0.19987)
(0.00182432 0 -0.21541)
(0.0022765 0 -0.210115)
(0.00200305 0 -0.22621)
(0.00249218 0 -0.220706)
(0.00220746 0 -0.237491)
(0.00273634 0 -0.231723)
(0.00243825 0 -0.249358)
(0.00301197 0 -0.243277)
(0.00269155 0 -0.261871)
(0.00331603 0 -0.255461)
(0.0036418 0 -0.268299)
(-2.92581e-05 0 -0.00223144)
(-3.97917e-05 0 -0.00193881)
(-1.48355e-05 0 -0.00305287)
(-1.93183e-05 0 -0.00258241)
(-6.1488e-06 0 -0.00412136)
(-9.89834e-06 0 -0.00357582)
(1.05509e-06 0 -0.0052971)
(-3.16324e-06 0 -0.00471508)
(8.53508e-06 0 -0.00654085)
(4.32894e-06 0 -0.0059273)
(1.6608e-05 0 -0.0078533)
(1.27386e-05 0 -0.00720435)
(2.52844e-05 0 -0.00924314)
(2.19621e-05 0 -0.00855429)
(3.46069e-05 0 -0.010719)
(3.20184e-05 0 -0.00998623)
(4.46716e-05 0 -0.0122888)
(4.29849e-05 0 -0.0115084)
(5.55993e-05 0 -0.0139607)
(5.49754e-05 0 -0.0131287)
(6.75167e-05 0 -0.0157429)
(6.81209e-05 0 -0.0148552)
(8.05509e-05 0 -0.0176439)
(8.2558e-05 0 -0.0166964)
(9.48289e-05 0 -0.0196726)
(9.84263e-05 0 -0.0186609)
(0.000110479 0 -0.0218379)
(0.00011587 0 -0.0207577)
(0.000127635 0 -0.0241491)
(0.000135038 0 -0.0229958)
(0.000146434 0 -0.0266156)
(0.000156089 0 -0.0253845)
(0.000167024 0 -0.0292471)
(0.000179192 0 -0.0279334)
(0.000189564 0 -0.0320537)
(0.000204526 0 -0.0306524)
(0.000214225 0 -0.0350458)
(0.000232289 0 -0.0335516)
(0.0002412 0 -0.0382347)
(0.000262698 0 -0.036642)
(0.000270705 0 -0.041632)
(0.000295993 0 -0.0399349)
(0.000302983 0 -0.0452505)
(0.000332448 0 -0.0434425)
(0.000338317 0 -0.0491039)
(0.000372374 0 -0.047178)
(0.000377038 0 -0.0532075)
(0.000416131 0 -0.0511559)
(0.000419532 0 -0.0575786)
(0.000464139 0 -0.0553923)
(0.000466257 0 -0.0622366)
(0.000516889 0 -0.0599054)
(0.000517735 0 -0.0672043)
(0.000574954 0 -0.0647164)
(0.000574522 0 -0.0725081)
(0.000638963 0 -0.0698496)
(0.000637087 0 -0.0781768)
(0.000709528 0 -0.0753333)
(0.000705543 0 -0.0842361)
(0.000787325 0 -0.0811966)
(0.000791731 0 -0.0917747)
(0.000878709 0 -0.0879957)
(0.000882832 0 -0.0994262)
(0.000983419 0 -0.0955894)
(0.000979975 0 -0.107202)
(0.00109513 0 -0.1033)
(0.00108403 0 -0.115117)
(0.00121443 0 -0.111143)
(0.00119572 0 -0.123189)
(0.00134229 0 -0.119134)
(0.00131574 0 -0.13143)
(0.00147952 0 -0.127288)
(0.00144477 0 -0.139856)
(0.0016269 0 -0.135621)
(0.00158362 0 -0.148477)
(0.00178528 0 -0.144143)
(0.00173321 0 -0.157307)
(0.00195562 0 -0.152868)
(0.00189465 0 -0.166358)
(0.00213908 0 -0.161807)
(0.00206924 0 -0.175647)
(0.00233701 0 -0.170976)
(0.00225853 0 -0.185188)
(0.00255096 0 -0.18039)
(0.00246457 0 -0.194998)
(0.00278286 0 -0.190066)
(0.00269043 0 -0.205101)
(0.00303533 0 -0.200021)
(0.00294074 0 -0.215529)
(0.00331235 0 -0.210282)
(0.00322137 0 -0.226346)
(0.00361956 0 -0.220893)
(0.003537 0 -0.237646)
(0.00396286 0 -0.231934)
(0.00388721 0 -0.249529)
(0.0043445 0 -0.24351)
(0.00426548 0 -0.262054)
(0.00475889 0 -0.255713)
(0.00519513 0 -0.268566)
(-2.34702e-05 0 -0.00227404)
(-3.05745e-05 0 -0.00197578)
(-1.46735e-05 0 -0.00308117)
(-1.98518e-05 0 -0.00260977)
(-7.51948e-06 0 -0.00414213)
(-1.3181e-05 0 -0.00359701)
(-1.22966e-07 0 -0.00531649)
(-6.51617e-06 0 -0.00473594)
(8.29368e-06 0 -0.0065608)
(1.50494e-06 0 -0.00594992)
(1.78086e-05 0 -0.0078739)
(1.08344e-05 0 -0.00722871)
(2.83891e-05 0 -0.00926428)
(2.14266e-05 0 -0.00858012)
(4.00652e-05 0 -0.0107407)
(3.3305e-05 0 -0.0100134)
(5.29282e-05 0 -0.0123112)
(4.65435e-05 0 -0.0115369)
(6.71032e-05 0 -0.0139839)
(6.12601e-05 0 -0.0131586)
(8.2731e-05 0 -0.015767)
(7.75967e-05 0 -0.0148867)
(9.99608e-05 0 -0.017669)
(9.57077e-05 0 -0.0167295)
(0.000118949 0 -0.0196988)
(0.000115757 0 -0.0186958)
(0.000139861 0 -0.0218652)
(0.00013792 0 -0.0207943)
(0.000162871 0 -0.0241776)
(0.000162384 0 -0.0230342)
(0.000188166 0 -0.0266453)
(0.000189349 0 -0.0254248)
(0.000215948 0 -0.029278)
(0.000219032 0 -0.0279756)
(0.000246435 0 -0.0320858)
(0.00025167 0 -0.0306965)
(0.000279868 0 -0.0350792)
(0.000287521 0 -0.0335978)
(0.000316512 0 -0.0382693)
(0.000326871 0 -0.0366903)
(0.000356664 0 -0.0416679)
(0.000370036 0 -0.0399854)
(0.000400664 0 -0.0452877)
(0.000417376 0 -0.0434952)
(0.000448898 0 -0.0491425)
(0.000469298 0 -0.0472331)
(0.000501814 0 -0.0532476)
(0.000526269 0 -0.0512135)
(0.000559934 0 -0.0576202)
(0.000588831 0 -0.0554526)
(0.000623863 0 -0.06228)
(0.000657613 0 -0.0599686)
(0.000694283 0 -0.0672496)
(0.000733336 0 -0.0647827)
(0.000771916 0 -0.0725553)
(0.000816796 0 -0.0699193)
(0.000857398 0 -0.0782257)
(0.000908755 0 -0.0754064)
(0.000950981 0 -0.084286)
(0.00101005 0 -0.0812729)
(0.00106955 0 -0.0918261)
(0.00112947 0 -0.0880747)
(0.001195 0 -0.0994803)
(0.00126679 0 -0.095673)
(0.00132869 0 -0.107259)
(0.00141323 0 -0.103389)
(0.00147173 0 -0.115179)
(0.00156947 0 -0.111238)
(0.00162505 0 -0.123255)
(0.00173675 0 -0.119236)
(0.00178957 0 -0.131502)
(0.00191604 0 -0.127398)
(0.00196621 0 -0.139933)
(0.00210832 0 -0.135738)
(0.00215599 0 -0.14856)
(0.00231462 0 -0.14427)
(0.00236009 0 -0.157396)
(0.00253613 0 -0.153004)
(0.00257991 0 -0.166455)
(0.00277421 0 -0.161954)
(0.00281705 0 -0.175752)
(0.00303046 0 -0.171134)
(0.00307344 0 -0.185302)
(0.00330668 0 -0.180561)
(0.00335153 0 -0.195125)
(0.00360505 0 -0.190251)
(0.00365487 0 -0.205241)
(0.00392848 0 -0.200223)
(0.00398848 0 -0.215686)
(0.00428115 0 -0.210504)
(0.00435827 0 -0.226524)
(0.00466867 0 -0.22114)
(0.00476808 0 -0.237845)
(0.00509625 0 -0.232207)
(0.00521531 0 -0.249744)
(0.00556438 0 -0.243808)
(0.00568976 0 -0.262279)
(0.0060642 0 -0.256029)
(0.00657993 0 -0.268892)
(-2.41977e-05 0 -0.00229561)
(-3.5244e-05 0 -0.00199331)
(-1.86742e-05 0 -0.00310103)
(-2.90513e-05 0 -0.00262693)
(-1.25189e-05 0 -0.0041624)
(-2.34543e-05 0 -0.00361522)
(-5.11676e-06 0 -0.00533895)
(-1.66478e-05 0 -0.00475681)
(3.7599e-06 0 -0.00658568)
(-8.24145e-06 0 -0.00597377)
(1.41255e-05 0 -0.00790089)
(1.76351e-06 0 -0.00725525)
(2.59845e-05 0 -0.00929311)
(1.33926e-05 0 -0.00860906)
(3.93894e-05 0 -0.0107712)
(2.67035e-05 0 -0.0100446)
(5.44415e-05 0 -0.0123435)
(4.17914e-05 0 -0.0115703)
(7.1276e-05 0 -0.014018)
(5.87919e-05 0 -0.0131943)
(9.0048e-05 0 -0.0158029)
(7.78658e-05 0 -0.0149246)
(0.000110926 0 -0.0177069)
(9.91897e-05 0 -0.0167697)
(0.000134093 0 -0.0197386)
(0.000122954 0 -0.0187383)
(0.000159746 0 -0.0219071)
(0.000149366 0 -0.0208392)
(0.000188096 0 -0.0242215)
(0.000178647 0 -0.0230815)
(0.000219375 0 -0.0266912)
(0.00021104 0 -0.0254746)
(0.000253833 0 -0.0293261)
(0.000246809 0 -0.0280279)
(0.000291745 0 -0.0321361)
(0.000286241 0 -0.0307514)
(0.000333415 0 -0.0351317)
(0.000329654 0 -0.0336554)
(0.000379179 0 -0.0383241)
(0.000377397 0 -0.0367506)
(0.000429414 0 -0.0417251)
(0.000429863 0 -0.0400485)
(0.000484547 0 -0.0453474)
(0.00048749 0 -0.0435612)
(0.000545063 0 -0.0492049)
(0.000550776 0 -0.0473021)
(0.000611522 0 -0.0533128)
(0.00062029 0 -0.0512858)
(0.00068457 0 -0.0576884)
(0.000696689 0 -0.0555283)
(0.000764949 0 -0.0623514)
(0.000780725 0 -0.060048)
(0.000853491 0 -0.0673244)
(0.00087326 0 -0.0648661)
(0.000951076 0 -0.0726337)
(0.000975244 0 -0.0700069)
(0.0010585 0 -0.0783076)
(0.00108759 0 -0.0754983)
(0.00117618 0 -0.0843708)
(0.00121128 0 -0.0813689)
(0.00132586 0 -0.0919149)
(0.00135749 0 -0.0881745)
(0.00148432 0 -0.0995744)
(0.00152602 0 -0.0957786)
(0.00165315 0 -0.10736)
(0.00170568 0 -0.103502)
(0.0018336 0 -0.115286)
(0.00189721 0 -0.111358)
(0.00202677 0 -0.12337)
(0.00210204 0 -0.119365)
(0.00223375 0 -0.131625)
(0.00232127 0 -0.127536)
(0.00245562 0 -0.140065)
(0.00255603 0 -0.135886)
(0.00269358 0 -0.148702)
(0.00280748 0 -0.144428)
(0.002949 0 -0.157549)
(0.00307695 0 -0.153174)
(0.00322343 0 -0.16662)
(0.00336593 0 -0.162137)
(0.00351865 0 -0.17593)
(0.00367612 0 -0.171331)
(0.00383675 0 -0.185495)
(0.00400941 0 -0.180773)
(0.00418034 0 -0.195333)
(0.00436801 0 -0.19048)
(0.00455298 0 -0.205469)
(0.00475479 0 -0.200472)
(0.00495949 0 -0.215938)
(0.00517367 0 -0.210775)
(0.005405 0 -0.226801)
(0.00562954 0 -0.221437)
(0.00589161 0 -0.238147)
(0.00612615 0 -0.232531)
(0.00641382 0 -0.250067)
(0.00666147 0 -0.244157)
(0.00695717 0 -0.262612)
(0.00722295 0 -0.256392)
(0.00778961 0 -0.269256)
(-3.87515e-05 0 -0.00230933)
(-5.61588e-05 0 -0.00200543)
(-3.40189e-05 0 -0.00311736)
(-5.09769e-05 0 -0.00264163)
(-2.78312e-05 0 -0.00418214)
(-4.52887e-05 0 -0.00363353)
(-2.00245e-05 0 -0.00536224)
(-3.80547e-05 0 -0.00477882)
(-1.05362e-05 0 -0.00661229)
(-2.90882e-05 0 -0.00599925)
(6.89371e-07 0 -0.00793053)
(-1.83224e-05 0 -0.00728399)
(1.3725e-05 0 -0.00932558)
(-5.67412e-06 0 -0.00864087)
(2.86697e-05 0 -0.0108064)
(8.96551e-06 0 -0.0100794)
(4.56547e-05 0 -0.0123814)
(2.57293e-05 0 -0.011608)
(6.48394e-05 0 -0.0140585)
(4.47825e-05 0 -0.0132348)
(8.64055e-05 0 -0.0158462)
(6.63137e-05 0 -0.0149681)
(0.000110551 0 -0.0177529)
(9.05303e-05 0 -0.0168162)
(0.00013749 0 -0.0197873)
(0.000117656 0 -0.0187877)
(0.000167454 0 -0.0219586)
(0.000147932 0 -0.0208916)
(0.000200695 0 -0.0242758)
(0.00018162 0 -0.023137)
(0.000237488 0 -0.0267485)
(0.000219004 0 -0.0255332)
(0.000278132 0 -0.0293863)
(0.000260394 0 -0.0280897)
(0.000322957 0 -0.0321993)
(0.00030613 0 -0.0308164)
(0.000372326 0 -0.0351981)
(0.000356584 0 -0.0337236)
(0.000426642 0 -0.0383937)
(0.000412169 0 -0.0368221)
(0.000486359 0 -0.041798)
(0.000473347 0 -0.0401234)
(0.000551985 0 -0.0454237)
(0.000540633 0 -0.0436398)
(0.000624099 0 -0.0492847)
(0.000614611 0 -0.0473844)
(0.000703366 0 -0.0533965)
(0.000695945 0 -0.051372)
(0.000790545 0 -0.0577762)
(0.000785395 0 -0.0556186)
(0.000886506 0 -0.0624436)
(0.000883833 0 -0.0601428)
(0.000992221 0 -0.0674213)
(0.000992246 0 -0.0649656)
(0.00110872 0 -0.0727355)
(0.00111173 0 -0.0701115)
(0.00123695 0 -0.0784142)
(0.00124334 0 -0.0756081)
(0.0013775 0 -0.0844819)
(0.00138821 0 -0.0814836)
(0.00155682 0 -0.0920319)
(0.00155982 0 -0.088294)
(0.00174671 0 -0.0996987)
(0.001758 0 -0.0959052)
(0.00194892 0 -0.107492)
(0.00196914 0 -0.103636)
(0.00216482 0 -0.115428)
(0.00219405 0 -0.111502)
(0.00239565 0 -0.123522)
(0.00243431 0 -0.119519)
(0.00264261 0 -0.131788)
(0.00269108 0 -0.127701)
(0.00290689 0 -0.140239)
(0.00296561 0 -0.136063)
(0.0031898 0 -0.148889)
(0.00325913 0 -0.144617)
(0.00349279 0 -0.15775)
(0.00357303 0 -0.153376)
(0.00381748 0 -0.166835)
(0.00390884 0 -0.162353)
(0.00416569 0 -0.176161)
(0.00426822 0 -0.171564)
(0.00453944 0 -0.185744)
(0.004653 0 -0.181023)
(0.00494123 0 -0.195602)
(0.00506523 0 -0.190748)
(0.00537428 0 -0.20576)
(0.00550741 0 -0.20076)
(0.00584267 0 -0.216254)
(0.00598282 0 -0.211087)
(0.00635006 0 -0.227145)
(0.00649511 0 -0.221775)
(0.00689624 0 -0.238517)
(0.00704596 0 -0.232895)
(0.00747232 0 -0.250455)
(0.00763039 0 -0.244541)
(0.00805937 0 -0.263006)
(0.00823198 0 -0.256783)
(0.00882456 0 -0.269639)
(-6.72957e-05 0 -0.00232251)
(-9.11928e-05 0 -0.00201739)
(-6.23818e-05 0 -0.00313414)
(-8.59424e-05 0 -0.0026569)
(-5.57756e-05 0 -0.00420291)
(-7.99501e-05 0 -0.00365307)
(-4.73942e-05 0 -0.00538677)
(-7.22835e-05 0 -0.00480244)
(-3.71862e-05 0 -0.00664038)
(-6.27211e-05 0 -0.00602667)
(-2.50478e-05 0 -0.00796204)
(-5.11779e-05 0 -0.00731507)
(-1.08492e-05 0 -0.00936042)
(-3.75369e-05 0 -0.00867552)
(5.5528e-06 0 -0.0108445)
(-2.16467e-05 0 -0.0101175)
(2.43242e-05 0 -0.0124227)
(-3.33554e-06 0 -0.0116496)
(4.56582e-05 0 -0.0141032)
(1.75946e-05 0 -0.01328)
(6.97697e-05 0 -0.0158941)
(4.13646e-05 0 -0.0150168)
(9.68906e-05 0 -0.0178041)
(6.82162e-05 0 -0.0168684)
(0.000127271 0 -0.0198419)
(9.8408e-05 0 -0.0188435)
(0.000161182 0 -0.0220165)
(0.000132219 0 -0.020951)
(0.000198916 0 -0.0243372)
(0.00016995 0 -0.0232)
(0.000240791 0 -0.0268133)
(0.000211927 0 -0.0255999)
(0.000287157 0 -0.0294547)
(0.000258508 0 -0.0281601)
(0.000338396 0 -0.0322713)
(0.000310082 0 -0.0308906)
(0.000394931 0 -0.0352737)
(0.000367077 0 -0.0338017)
(0.000457228 0 -0.0384731)
(0.000429968 0 -0.0369042)
(0.000525813 0 -0.0418812)
(0.000499279 0 -0.0402095)
(0.000601272 0 -0.045511)
(0.000575602 0 -0.0437301)
(0.000684273 0 -0.0493763)
(0.000659599 0 -0.0474791)
(0.000775575 0 -0.0534926)
(0.000752024 0 -0.0514713)
(0.000876047 0 -0.057877)
(0.000853736 0 -0.0557228)
(0.000986674 0 -0.0625495)
(0.000965714 0 -0.0602521)
(0.00110856 0 -0.0675326)
(0.00108906 0 -0.0650804)
(0.00124286 0 -0.0728524)
(0.00122501 0 -0.070232)
(0.0013907 0 -0.0785367)
(0.00137476 0 -0.0757346)
(0.00155283 0 -0.0846098)
(0.00153956 0 -0.0816158)
(0.0017602 0 -0.0921668)
(0.00173514 0 -0.0884323)
(0.0019798 0 -0.0998422)
(0.00196135 0 -0.0960516)
(0.00221351 0 -0.107645)
(0.00220216 0 -0.103792)
(0.00246277 0 -0.115592)
(0.00245849 0 -0.111668)
(0.00272892 0 -0.123697)
(0.00273198 0 -0.119696)
(0.00301323 0 -0.131975)
(0.00302386 0 -0.12789)
(0.00331696 0 -0.140439)
(0.0033354 0 -0.136265)
(0.00364144 0 -0.149103)
(0.00366787 0 -0.144833)
(0.00398814 0 -0.157978)
(0.00402265 0 -0.153607)
(0.00435862 0 -0.16708)
(0.00440119 0 -0.1626)
(0.00475458 0 -0.176423)
(0.00480504 0 -0.171828)
(0.00517787 0 -0.186025)
(0.00523581 0 -0.181305)
(0.00563058 0 -0.195904)
(0.00569518 0 -0.19105)
(0.00611528 0 -0.206085)
(0.00618507 0 -0.201083)
(0.00663489 0 -0.216604)
(0.00670777 0 -0.211434)
(0.00719121 0 -0.227521)
(0.00726535 0 -0.222146)
(0.00778127 0 -0.238914)
(0.00785708 0 -0.233289)
(0.00839267 0 -0.250863)
(0.00847481 0 -0.244948)
(0.00900196 0 -0.263409)
(0.00909822 0 -0.257189)
(0.00969624 0 -0.270023)
(-0.00010873 0 -0.00233647)
(-0.000139423 0 -0.00202971)
(-0.000103642 0 -0.003152)
(-0.000134086 0 -0.0026727)
(-9.67393e-05 0 -0.0042251)
(-0.000127962 0 -0.00367349)
(-8.78945e-05 0 -0.00541305)
(-0.000120007 0 -0.00482737)
(-7.70387e-05 0 -0.00667055)
(-0.000109955 0 -0.00605584)
(-6.40518e-05 0 -0.00799602)
(-9.77258e-05 0 -0.00734832)
(-4.87782e-05 0 -0.00939816)
(-8.31889e-05 0 -0.00871281)
(-3.10412e-05 0 -0.010886)
(-6.61653e-05 0 -0.0101588)
(-1.06397e-05 0 -0.0124679)
(-4.64512e-05 0 -0.0116949)
(1.26524e-05 0 -0.0141521)
(-2.38172e-05 0 -0.0133293)
(3.90825e-05 0 -0.0159469)
(1.98999e-06 0 -0.0150701)
(6.89182e-05 0 -0.0178607)
(3.12449e-05 0 -0.0169258)
(0.000102446 0 -0.0199023)
(6.42398e-05 0 -0.0189051)
(0.000139975 0 -0.0220809)
(0.00010129 0 -0.0210167)
(0.00018184 0 -0.0244055)
(0.000142737 0 -0.02327)
(0.000228403 0 -0.0268856)
(0.000188949 0 -0.025674)
(0.000280061 0 -0.029531)
(0.000240328 0 -0.0282386)
(0.000337249 0 -0.0323517)
(0.000297313 0 -0.0309734)
(0.000400446 0 -0.0353583)
(0.000360385 0 -0.033889)
(0.000470182 0 -0.038562)
(0.000430076 0 -0.036996)
(0.000547048 0 -0.0419746)
(0.000506976 0 -0.040306)
(0.000631706 0 -0.045609)
(0.000591744 0 -0.0438314)
(0.000724907 0 -0.0494791)
(0.000685118 0 -0.0475854)
(0.000827499 0 -0.0536003)
(0.000787938 0 -0.0515828)
(0.000940451 0 -0.0579902)
(0.000901153 0 -0.0558399)
(0.00106486 0 -0.0626682)
(0.00102584 0 -0.060375)
(0.00120194 0 -0.0676574)
(0.00116322 0 -0.0652095)
(0.00135299 0 -0.0729834)
(0.00131465 0 -0.0703676)
(0.00151927 0 -0.078674)
(0.00148145 0 -0.0758769)
(0.00170173 0 -0.0847532)
(0.00166498 0 -0.0817647)
(0.00193552 0 -0.0923181)
(0.00188311 0 -0.0885881)
(0.00218312 0 -0.100003)
(0.00213569 0 -0.0962167)
(0.00244644 0 -0.107816)
(0.0024044 0 -0.103968)
(0.00272699 0 -0.115774)
(0.00269018 0 -0.111855)
(0.00302617 0 -0.123891)
(0.00299473 0 -0.119895)
(0.00334525 0 -0.132183)
(0.0033193 0 -0.128103)
(0.00368553 0 -0.140661)
(0.00366514 0 -0.136492)
(0.00404829 0 -0.14934)
(0.00403351 0 -0.145075)
(0.00443491 0 -0.158231)
(0.00442567 0 -0.153865)
(0.00484684 0 -0.16735)
(0.00484296 0 -0.162875)
(0.00528555 0 -0.176711)
(0.0052867 0 -0.17212)
(0.00575249 0 -0.186332)
(0.00575814 0 -0.181616)
(0.00624919 0 -0.196231)
(0.00625845 0 -0.191381)
(0.00677734 0 -0.206434)
(0.00678877 0 -0.201436)
(0.00733841 0 -0.216977)
(0.0073502 0 -0.211808)
(0.00793207 0 -0.227915)
(0.00794297 0 -0.222541)
(0.00855245 0 -0.239325)
(0.00856382 0 -0.233702)
(0.0091836 0 -0.251276)
(0.00920134 0 -0.245369)
(0.00979777 0 -0.263805)
(0.00983153 0 -0.257599)
(0.0104189 0 -0.270397)
(-0.000163662 0 -0.00235056)
(-0.000202056 0 -0.00204201)
(-0.000158551 0 -0.00317024)
(-0.000196703 0 -0.00268858)
(-0.000151514 0 -0.00424813)
(-0.000190531 0 -0.00369432)
(-0.000142355 0 -0.00544072)
(-0.000182366 0 -0.0048532)
(-0.000130979 0 -0.00670263)
(-0.000171916 0 -0.00608641)
(-0.000117265 0 -0.00803239)
(-0.000159096 0 -0.00738346)
(-0.000101043 0 -0.00943877)
(-0.000143768 0 -0.00875243)
(-8.21113e-05 0 -0.0109309)
(-0.00012573 0 -0.0102029)
(-6.02402e-05 0 -0.012517)
(-0.00010475 0 -0.0117435)
(-3.51726e-05 0 -0.0142055)
(-8.057e-05 0 -0.0133824)
(-6.62967e-06 0 -0.0160045)
(-5.2906e-05 0 -0.0151278)
(2.56878e-05 0 -0.0179227)
(-2.1454e-05 0 -0.0169881)
(6.21008e-05 0 -0.0199688)
(1.41107e-05 0 -0.0189719)
(0.000102956 0 -0.0221518)
(5.41391e-05 0 -0.0210883)
(0.000148627 0 -0.0244808)
(9.90092e-05 0 -0.0233462)
(0.000199521 0 -0.0269655)
(0.00014913 0 -0.0257551)
(0.000256081 0 -0.0296155)
(0.000204949 0 -0.0283245)
(0.000318793 0 -0.0324408)
(0.000266951 0 -0.0310642)
(0.000388188 0 -0.0354522)
(0.000335669 0 -0.0339848)
(0.000464857 0 -0.0386608)
(0.00041169 0 -0.0370969)
(0.000549455 0 -0.0420784)
(0.000495664 0 -0.0404122)
(0.000642716 0 -0.045718)
(0.000588315 0 -0.043943)
(0.000745466 0 -0.0495935)
(0.000690454 0 -0.0477026)
(0.00085864 0 -0.0537204)
(0.000802998 0 -0.0517058)
(0.000983298 0 -0.0581162)
(0.000926983 0 -0.055969)
(0.00112064 0 -0.0628006)
(0.00106358 0 -0.0605107)
(0.00127199 0 -0.0677964)
(0.00121412 0 -0.065352)
(0.00143878 0 -0.0731294)
(0.00138004 0 -0.0705174)
(0.00162238 0 -0.0788269)
(0.00156283 0 -0.076034)
(0.00182395 0 -0.084913)
(0.00176393 0 -0.0819292)
(0.00208255 0 -0.0924868)
(0.00200319 0 -0.0887605)
(0.00235641 0 -0.100182)
(0.00228046 0 -0.0963993)
(0.00264748 0 -0.108007)
(0.00257526 0 -0.104162)
(0.00295727 0 -0.115977)
(0.00288852 0 -0.112062)
(0.00328719 0 -0.124107)
(0.00322196 0 -0.120115)
(0.0036385 0 -0.132413)
(0.00357678 0 -0.128337)
(0.00401244 0 -0.140906)
(0.00395421 0 -0.136741)
(0.00441023 0 -0.149601)
(0.00435541 0 -0.14534)
(0.00483309 0 -0.158509)
(0.0047815 0 -0.154147)
(0.00528223 0 -0.167645)
(0.00523361 0 -0.163175)
(0.00575879 0 -0.177025)
(0.00571273 0 -0.172438)
(0.00626374 0 -0.186665)
(0.00621967 0 -0.181953)
(0.00679787 0 -0.196585)
(0.00675496 0 -0.191737)
(0.00736178 0 -0.206809)
(0.00731882 0 -0.201812)
(0.00795536 0 -0.217372)
(0.00791099 0 -0.212204)
(0.00857603 0 -0.228328)
(0.0085298 0 -0.222955)
(0.009215 0 -0.239746)
(0.00916938 0 -0.234128)
(0.0098529 0 -0.251691)
(0.0098152 0 -0.245794)
(0.0104581 0 -0.264189)
(0.0104399 0 -0.258002)
(0.011004 0 -0.27075)
(-0.00023399 0 -0.00236457)
(-0.000281144 0 -0.00205432)
(-0.000228839 0 -0.0031886)
(-0.000275702 0 -0.00270458)
(-0.000221666 0 -0.00427166)
(-0.000269407 0 -0.00371555)
(-0.000212219 0 -0.00546938)
(-0.00026099 0 -0.00487985)
(-0.00020038 0 -0.00673619)
(-0.000250137 0 -0.00611824)
(-0.000186015 0 -0.00807072)
(-0.000236751 0 -0.00742028)
(-0.000168941 0 -0.00948181)
(-0.000220683 0 -0.00879416)
(-0.00014893 0 -0.0109786)
(-0.000201707 0 -0.0102495)
(-0.000125724 0 -0.0125695)
(-0.000179564 0 -0.011795)
(-9.90365e-05 0 -0.0142628)
(-0.000153963 0 -0.0134389)
(-6.85608e-05 0 -0.0160666)
(-0.000124594 0 -0.0151893)
(-3.39668e-05 0 -0.0179897)
(-9.11234e-05 0 -0.0170547)
(5.09929e-06 0 -0.0200407)
(-5.31943e-05 0 -0.0190437)
(4.90184e-05 0 -0.0222286)
(-1.04227e-05 0 -0.0211652)
(9.82034e-05 0 -0.0245627)
(3.76051e-05 0 -0.0234284)
(0.000153103 0 -0.0270524)
(9.13367e-05 0 -0.0258425)
(0.000214204 0 -0.0297075)
(0.000151262 0 -0.0284173)
(0.000282041 0 -0.0325381)
(0.000217912 0 -0.0311625)
(0.000357197 0 -0.0355548)
(0.000291867 0 -0.0340885)
(0.00044032 0 -0.0387688)
(0.000373767 0 -0.0372063)
(0.000532124 0 -0.042192)
(0.000464317 0 -0.0405274)
(0.000633411 0 -0.0458374)
(0.000564304 0 -0.0440641)
(0.000745079 0 -0.0497189)
(0.000674608 0 -0.0478299)
(0.000868142 0 -0.0538522)
(0.000796215 0 -0.0518396)
(0.00100375 0 -0.0582546)
(0.000930243 0 -0.0561096)
(0.00115319 0 -0.062946)
(0.00107795 0 -0.0606583)
(0.00131789 0 -0.0679491)
(0.00124075 0 -0.0655072)
(0.0014994 0 -0.0732897)
(0.00142021 0 -0.0706804)
(0.00169921 0 -0.0789949)
(0.00161792 0 -0.0762051)
(0.00191864 0 -0.0850887)
(0.00183539 0 -0.0821082)
(0.00220042 0 -0.0926724)
(0.00209433 0 -0.0889484)
(0.00249879 0 -0.100379)
(0.0023946 0 -0.0965983)
(0.00281569 0 -0.108216)
(0.00271361 0 -0.104373)
(0.00315262 0 -0.1162)
(0.00305233 0 -0.112287)
(0.00351095 0 -0.124345)
(0.00341241 0 -0.120354)
(0.00389189 0 -0.132665)
(0.00379501 0 -0.128591)
(0.00429659 0 -0.141174)
(0.00420126 0 -0.137011)
(0.00472613 0 -0.149885)
(0.00463219 0 -0.145627)
(0.00518152 0 -0.158811)
(0.00508875 0 -0.154451)
(0.00566367 0 -0.167966)
(0.00557175 0 -0.163496)
(0.00617329 0 -0.177364)
(0.00608182 0 -0.172778)
(0.00671075 0 -0.187023)
(0.00661923 0 -0.182311)
(0.00727601 0 -0.196962)
(0.00718377 0 -0.192114)
(0.00786847 0 -0.207204)
(0.00777465 0 -0.202207)
(0.00848636 0 -0.217784)
(0.00839021 0 -0.212615)
(0.0091248 0 -0.228753)
(0.0090268 0 -0.223381)
(0.00977218 0 -0.240173)
(0.00967603 0 -0.23456)
(0.010406 0 -0.252102)
(0.0103205 0 -0.246217)
(0.0109912 0 -0.264559)
(0.0109297 0 -0.258392)
(0.0114611 0 -0.271078)
(-0.000321737 0 -0.00237878)
(-0.000378492 0 -0.00206696)
(-0.000316431 0 -0.00320736)
(-0.000372839 0 -0.00272106)
(-0.000309013 0 -0.00429589)
(-0.000366297 0 -0.00373751)
(-0.000299203 0 -0.00549909)
(-0.000357529 0 -0.00490754)
(-0.000286864 0 -0.00677118)
(-0.000346205 0 -0.00615144)
(-0.000271848 0 -0.00811085)
(-0.000332218 0 -0.00745879)
(-0.000253953 0 -0.00952704)
(-0.000315406 0 -0.00883791)
(-0.000232925 0 -0.011029)
(-0.000295521 0 -0.0102985)
(-0.000208476 0 -0.0126251)
(-0.000272274 0 -0.0118494)
(-0.000180291 0 -0.0143235)
(-0.000245347 0 -0.0134986)
(-0.000148031 0 -0.0161327)
(-0.000214395 0 -0.0152545)
(-0.000111339 0 -0.018061)
(-0.000179057 0 -0.0171254)
(-6.98273e-05 0 -0.0201174)
(-0.000138944 0 -0.01912)
(-2.30811e-05 0 -0.0223108)
(-9.36404e-05 0 -0.0212471)
(2.93482e-05 0 -0.0246504)
(-4.2698e-05 0 -0.023516)
(8.79457e-05 0 -0.0271457)
(1.43615e-05 0 -0.0259359)
(0.000153251 0 -0.0298064)
(7.80796e-05 0 -0.0285164)
(0.000225833 0 -0.0326427)
(0.00014903 0 -0.0312676)
(0.000306328 0 -0.0356653)
(0.000227826 0 -0.0341996)
(0.000395436 0 -0.0388853)
(0.000315164 0 -0.0373236)
(0.00049393 0 -0.0423147)
(0.000411803 0 -0.040651)
(0.000602672 0 -0.0459664)
(0.000518586 0 -0.0441942)
(0.000722629 0 -0.0498545)
(0.000636455 0 -0.0479667)
(0.000854887 0 -0.0539946)
(0.000766464 0 -0.0519834)
(0.00100067 0 -0.0584042)
(0.000909804 0 -0.0562607)
(0.00116137 0 -0.0631032)
(0.00106782 0 -0.0608171)
(0.00133849 0 -0.0681143)
(0.00124199 0 -0.065674)
(0.00153369 0 -0.0734632)
(0.00143399 0 -0.0708556)
(0.00174856 0 -0.0791768)
(0.00164551 0 -0.076389)
(0.00198459 0 -0.085279)
(0.00187815 0 -0.0823008)
(0.00228787 0 -0.0928736)
(0.0021553 0 -0.0891507)
(0.00260894 0 -0.100592)
(0.00247681 0 -0.0968124)
(0.00294969 0 -0.108443)
(0.00281814 0 -0.1046)
(0.00331159 0 -0.11644)
(0.00318022 0 -0.112528)
(0.00369593 0 -0.1246)
(0.00356467 0 -0.120611)
(0.00410386 0 -0.132937)
(0.00397252 0 -0.128863)
(0.00453637 0 -0.141463)
(0.00440481 0 -0.1373)
(0.00499436 0 -0.150191)
(0.00486238 0 -0.145932)
(0.00547859 0 -0.159134)
(0.00534594 0 -0.154774)
(0.0059896 0 -0.168307)
(0.00585598 0 -0.163837)
(0.0065276 0 -0.177723)
(0.00639269 0 -0.173136)
(0.00709229 0 -0.1874)
(0.00695574 0 -0.182688)
(0.00768273 0 -0.197357)
(0.00754414 0 -0.192508)
(0.00829707 0 -0.207616)
(0.00815603 0 -0.202616)
(0.00893183 0 -0.218209)
(0.00878829 0 -0.213039)
(0.0095799 0 -0.229185)
(0.00943536 0 -0.223813)
(0.0102271 0 -0.2406)
(0.0100865 0 -0.234991)
(0.010848 0 -0.252504)
(0.0107216 0 -0.246631)
(0.0114049 0 -0.264907)
(0.0113077 0 -0.258763)
(0.0117997 0 -0.271374)
(-0.000428432 0 -0.0023936)
(-0.000495322 0 -0.00208021)
(-0.00042287 0 -0.00322692)
(-0.000489374 0 -0.00273835)
(-0.000415102 0 -0.00432118)
(-0.000482502 0 -0.00376053)
(-0.000404834 0 -0.00553013)
(-0.000473306 0 -0.00493653)
(-0.000391926 0 -0.00680777)
(-0.000461447 0 -0.00618619)
(-0.000376219 0 -0.00815286)
(-0.000446815 0 -0.0074991)
(-0.000357495 0 -0.00957446)
(-0.000429241 0 -0.00888372)
(-0.000335477 0 -0.0110818)
(-0.000408458 0 -0.0103499)
(-0.000309846 0 -0.0126835)
(-0.000384151 0 -0.0119064)
(-0.000280254 0 -0.0143876)
(-0.000355969 0 -0.0135614)
(-0.000246335 0 -0.0162024)
(-0.000323538 0 -0.0153231)
(-0.000207698 0 -0.0181365)
(-0.000286465 0 -0.0171999)