/*--------------------------------*- C++ -*----------------------------------*\
  =========                 |
  \\      /  F ield         | OpenFOAM: The Open Source CFD Toolbox
   \\    /   O peration     | Website:  https://openfoam.org
    \\  /    A nd           | Version:  9
     \\/     M anipulation  |
\*---------------------------------------------------------------------------*/
FoamFile
{
    format      ascii;
    class       volScalarField;
    location    "0.12";
    object      p_rgh;
}
// * * * * * * * * * * * * * * * * * * * * * * * * * * * * * * * * * * * * * //

dimensions      [1 -1 -2 0 0 0 0];

internalField   nonuniform List<scalar> 
5000
(
2.08821e-05
4.42686e-05
6.5649e-05
8.5456e-05
0.000101409
0.000113416
0.000121508
0.000125417
0.000124598
0.000118011
0.000103854
7.93868e-05
4.06471e-05
-1.77471e-05
-0.000103379
-0.000225854
-0.000397582
-0.00063384
-0.000952338
-0.00137164
-0.00190786
-0.00256948
-0.00335206
-0.00423781
-0.00520769
-0.00627026
-0.00749899
-0.00906155
-0.01123
-0.014373
-0.0193076
-0.0266627
-0.0356323
-0.0450337
-0.05366
-0.0618411
-0.0719323
-0.0877802
-0.114274
-0.151315
-0.158736
-0.073993
-0.0563229
-0.192943
-0.670634
-1.34806
-0.333819
-0.453457
-0.397219
-0.411879
2.78586e-05
7.74638e-05
0.000131783
0.000184365
0.000231368
0.000273814
0.000311636
0.000344057
0.000370755
0.000390717
0.000402097
0.000402416
0.000388353
0.000355539
0.000298495
0.000210495
8.33085e-05
-9.19301e-05
-0.000324241
-0.000621288
-0.000987661
-0.00142393
-0.00192858
-0.00250487
-0.00317351
-0.00398849
-0.00505017
-0.00650902
-0.00855733
-0.0114061
-0.0155713
-0.021336
-0.0279458
-0.0347602
-0.0413871
-0.0483564
-0.0571357
-0.0693
-0.0847552
-0.0992731
-0.0998178
-0.0565227
-0.0690879
-0.166737
-0.478361
-0.719738
-0.325784
-0.140381
-0.266
-0.348186
2.68316e-05
0.000103362
0.000196391
0.000290725
0.000384232
0.000479009
0.000574352
0.00066983
0.000764203
0.000855757
0.000942516
0.00102223
0.00109219
0.00114917
0.00118935
0.00120808
0.00119964
0.00115739
0.00107398
0.000942131
0.000755667
0.000509991
0.000200318
-0.000183098
-0.000662798
-0.00128361
-0.00212033
-0.00327926
-0.00489212
-0.00710035
-0.0102838
-0.0146369
-0.019602
-0.0247472
-0.0297855
-0.034979
-0.0410651
-0.0486116
-0.0568443
-0.0629671
-0.0627505
-0.0317359
-0.0362152
-0.0621676
-0.143097
-0.300725
-0.0903052
0.179589
-0.0943047
-0.221232
3.95179e-05
0.000153114
0.00028935
0.000429773
0.000573162
0.00072255
0.000877174
0.00103609
0.00119814
0.00136189
0.00152571
0.00168768
0.00184568
0.00199744
0.00214046
0.00227152
0.0023862
0.00247879
0.00254275
0.00257079
0.00255665
0.00249507
0.00238028
0.00220239
0.00194215
0.00156571
0.00102112
0.000237627
-0.00087404
-0.00241533
-0.00466124
-0.00775193
-0.0112623
-0.0148304
-0.0181641
-0.0213038
-0.0245422
-0.0280594
-0.0312665
-0.0316449
-0.0282095
0.00228019
0.0153913
0.0335402
0.0811634
-0.0228801
0.145296
0.391025
0.0453277
-0.0823366
5.86833e-05
0.000218248
0.000406355
0.000601719
0.000803091
0.00101436
0.001235
0.00146413
0.00170074
0.00194366
0.00219154
0.0024429
0.00269638
0.00295076
0.0032047
0.00345616
0.00370179
0.00393676
0.00415531
0.00435183
0.00452199
0.0046625
0.00476902
0.00483246
0.00483558
0.00475201
0.00454795
0.00418249
0.00360177
0.00273944
0.001431
-0.000391623
-0.00240482
-0.0043088
-0.00584515
-0.00691603
-0.00748596
-0.00736606
-0.00589956
-0.000437569
0.00654156
0.0354625
0.0601134
0.0933356
0.196533
0.150114
0.296351
0.493975
0.130604
0.0362125
7.9443e-05
0.000288917
0.000533155
0.000787684
0.00105124
0.00132868
0.00161971
0.00192373
0.00224001
0.00256754
0.00290524
0.00325217
0.00360783
0.00397205
0.00434457
0.00472431
0.00510871
0.00549378
0.00587501
0.00624889
0.00661392
0.00696977
0.00731429
0.00763964
0.00793068
0.00816866
0.00833725
0.00842177
0.00839685
0.00822481
0.00785027
0.00727595
0.00673144
0.00646115
0.00669411
0.00764097
0.00958345
0.01297
0.0184076
0.0279488
0.0392867
0.0657356
0.098563
0.135982
0.262259
0.252843
0.365167
0.514628
0.198398
0.128859
9.99547e-05
0.000360191
0.00066152
0.000976023
0.00130254
0.00164692
0.00200908
0.00238864
0.00278513
0.00319783
0.00362605
0.00406957
0.00452881
0.00500462
0.00549768
0.00600761
0.00653239
0.00706876
0.00761357
0.00816564
0.00872663
0.00929954
0.00988473
0.0104759
0.0110611
0.0116308
0.0121865
0.0127353
0.0132711
0.0137752
0.0142913
0.0148782
0.015679
0.0169053
0.0187908
0.0216448
0.0258779
0.0320037
0.0404801
0.0529951
0.0676187
0.0931549
0.132877
0.174086
0.310561
0.31626
0.384445
0.497341
0.243959
0.19869
0.000119919
0.000431528
0.000790822
0.00116608
0.00155627
0.00196821
0.00240197
0.00285733
0.00333406
0.00383173
0.00435024
0.00489014
0.00545284
0.0060402
0.00665368
0.00729341
0.00795776
0.00864412
0.00935083
0.0100793
0.0108346
0.0116234
0.0124482
0.0133041
0.0141825
0.0150848
0.0160297
0.0170409
0.0181234
0.0192721
0.0206205
0.0222717
0.0242849
0.0268509
0.0302326
0.0348191
0.0410461
0.0493971
0.0602123
0.0749039
0.0923848
0.117866
0.162362
0.207066
0.344605
0.354426
0.384334
0.453109
0.269493
0.249776
0.000139266
0.000503018
0.000921267
0.00135831
0.00181322
0.00229376
0.00280014
0.00333224
0.00389002
0.00447342
0.0050829
0.00571987
0.00638672
0.00708625
0.00782062
0.00859032
0.00939403
0.0102298
0.0110976
0.0120016
0.0129509
0.0139552
0.0150188
0.0161372
0.0173059
0.0185377
0.0198671
0.0213291
0.0229347
0.0246911
0.0268172
0.029452
0.0325637
0.0363198
0.0410211
0.0471221
0.0550189
0.0651647
0.0778849
0.0942292
0.114027
0.139616
0.186875
0.231772
0.362538
0.37146
0.369293
0.405374
0.283411
0.28567
0.000157723
0.000573972
0.00105148
0.00155068
0.00207078
0.00262042
0.0031999
0.00380921
0.00444848
0.005118
0.00581883
0.00655323
0.00732459
0.00813656
0.0089919
0.00989138
0.0108339
0.0118183
0.0128461
0.0139247
0.015067
0.0162859
0.017586
0.0189627
0.0204163
0.0219718
0.0236767
0.025572
0.0276713
0.0299942
0.0328435
0.0363863
0.0404927
0.045305
0.05115
0.0585181
0.0677705
0.0793531
0.0935562
0.111064
0.132526
0.158018
0.204735
0.250147
0.366704
0.371841
0.345602
0.360298
0.289365
0.3091
0.000174948
0.000643559
0.00117985
0.00174079
0.00232576
0.00294419
0.00359643
0.00428256
0.00500286
0.00575797
0.00654954
0.00738071
0.00825579
0.00917928
0.0101545
0.0111823
0.012262
0.0133928
0.0145781
0.0158287
0.0171614
0.0185915
0.0201229
0.0217504
0.02348
0.025349
0.0274159
0.029723
0.032282
0.0351255
0.0386353
0.0430019
0.0479983
0.0537476
0.060586
0.0689792
0.0792878
0.0919606
0.107252
0.125502
0.148026
0.173419
0.218989
0.261003
0.360595
0.361639
0.319837
0.321997
0.289984
0.322806
0.000190541
0.000711025
0.0013051
0.00192684
0.00257581
0.00326215
0.00398628
0.00474826
0.00554853
0.00638802
0.00726899
0.00819538
0.00917244
0.0102055
0.0112983
0.0124522
0.0136662
0.0149401
0.0162791
0.0176976
0.0192162
0.0208517
0.0226063
0.0244742
0.0264676
0.028636
0.0310468
0.0337407
0.0367242
0.0400393
0.044138
0.0492268
0.054997
0.0615664
0.0692565
0.0784746
0.0895917
0.103055
0.119051
0.137688
0.160652
0.185734
0.229261
0.266676
0.348084
0.346249
0.296649
0.29431
0.288117
0.329696
0.000204
0.000775529
0.00142604
0.00210727
0.00281901
0.00357204
0.00436678
0.0052033
0.0060821
0.00700437
0.00797287
0.00899236
0.010069
0.0112089
0.0124166
0.0136933
0.0150379
0.0164507
0.0179387
0.0195198
0.0212186
0.0230521
0.0250203
0.0271166
0.0293595
0.0318099
0.0345429
0.0375964
0.0409703
0.0447132
0.0493311
0.0550277
0.061439
0.0686998
0.0770991
0.0869646
0.0986582
0.112623
0.128972
0.147697
0.17052
0.194966
0.235523
0.268879
0.332535
0.329646
0.278394
0.278224
0.285763
0.332212
0.000214744
0.000836111
0.0015414
0.00228049
0.00305344
0.00387162
0.00473544
0.00564489
0.00660046
0.00760352
0.0086573
0.00976727
0.0109405
0.0121841
0.0135031
0.0148989
0.0163701
0.0179169
0.0195483
0.0212861
0.0231579
0.025181
0.0273521
0.0296642
0.0321415
0.0348545
0.0378844
0.0412667
0.0449977
0.0491336
0.0542155
0.060416
0.067336
0.0751441
0.0840894
0.0944182
0.10649
0.120698
0.137102
0.155666
0.17793
0.201511
0.238534
0.268787
0.316773
0.314211
0.26552
0.272309
0.283531
0.331877
0.000222166
0.000891789
0.00164992
0.00244492
0.00327723
0.00415874
0.0050898
0.00607029
0.00710061
0.00818217
0.00931855
0.0105159
0.0117822
0.0131258
0.0145522
0.016063
0.0176561
0.0193316
0.0211004
0.022988
0.025025
0.0272279
0.0295907
0.0321056
0.0348015
0.0377565
0.0410551
0.0447293
0.0487789
0.0532746
0.0587783
0.0654072
0.0727302
0.0809537
0.0902959
0.100922
0.113203
0.12745
0.143692
0.161886
0.18333
0.205921
0.239243
0.267186
0.30265
0.30123
0.260443
0.268257
0.282433
0.329359
0.000225673
0.000941615
0.00175042
0.00259917
0.00348875
0.00443152
0.00542776
0.00647717
0.00757996
0.00873746
0.00995343
0.0112346
0.0125901
0.0140293
0.0155589
0.0171801
0.0188901
0.0206886
0.0225884
0.0246185
0.0268119
0.0291844
0.0317271
0.0344314
0.0373305
0.0405084
0.0440477
0.0479727
0.0522929
0.057104
0.0629854
0.0699914
0.0776481
0.086187
0.095804
0.106604
0.11895
0.133075
0.149002
0.166653
0.1871
0.208611
0.238342
0.264495
0.290617
0.290171
0.257291
0.267574
0.281238
0.324541
0.000224799
0.000984891
0.001842
0.00274215
0.00368671
0.0046885
0.0057477
0.00686377
0.00803657
0.0092672
0.0105594
0.0119206
0.0133609
0.0148913
0.0165193
0.0182461
0.0200677
0.0219834
0.0240074
0.0261719
0.0285123
0.0310438
0.0337545
0.0366346
0.0397218
0.0431066
0.0468647
0.0510042
0.055543
0.0606085
0.0668029
0.0741305
0.0820617
0.0908378
0.100625
0.111504
0.1238
0.13767
0.153162
0.170137
0.189454
0.209807
0.236221
0.260869
0.280317
0.280358
0.254144
0.266582
0.278387
0.318734
0.00021914
0.00102109
0.00192403
0.00287309
0.0038702
0.00492862
0.00604843
0.00722878
0.00846905
0.00976985
0.0111348
0.0125718
0.0140923
0.0157089
0.0174304
0.0192577
0.0211857
0.0232127
0.0253539
0.0276443
0.0301217
0.0328011
0.0356672
0.0387077
0.0419666
0.0455436
0.049506
0.0538371
0.0585526
0.0638057
0.0702298
0.0778023
0.0859361
0.0948697
0.104734
0.115601
0.127751
0.141263
0.156216
0.172422
0.190544
0.209688
0.233158
0.256389
0.271127
0.271022
0.249645
0.263593
0.275114
0.310805
0.000208266
0.00104966
0.00199589
0.00299129
0.00403844
0.00515104
0.00632906
0.00757124
0.00887631
0.0102442
0.0116783
0.0131868
0.0147826
0.0164803
0.01829
0.0202129
0.0222421
0.0243747
0.0266261
0.0290334
0.0316375
0.0344538
0.0374625
0.0406463
0.0440557
0.047805
0.0519585
0.0564732
0.0613458
0.0667378
0.0733143
0.0810465
0.0893036
0.0983048
0.10816
0.118926
0.130841
0.143922
0.158259
0.173647
0.190572
0.208494
0.229404
0.251166
0.26245
0.261591
0.243379
0.258337
0.270034
0.301217
0.000191793
0.00107018
0.00205712
0.00309629
0.00419095
0.00535523
0.00658898
0.00789045
0.00925757
0.0106894
0.0121888
0.0137644
0.0154306
0.0172041
0.0190968
0.02111
0.0232356
0.0254686
0.0278235
0.0303389
0.0330598
0.0360032
0.0391435
0.0424542
0.0459892
0.0498808
0.0542031
0.0588964
0.0639252
0.0694372
0.0761187
0.0839403
0.0922511
0.101238
0.111006
0.121595
0.133197
0.145798
0.159478
0.174026
0.189784
0.206484
0.225152
0.245308
0.253905
0.252398
0.235406
0.2513
0.263823
0.291785
0.000169432
0.00108246
0.00210768
0.00318815
0.00432779
0.00554119
0.00682803
0.00818608
0.0096124
0.0111051
0.0126662
0.0143046
0.0160362
0.0178799
0.01985
0.0219483
0.0241654
0.0264938
0.0289455
0.0315603
0.0343882
0.0374505
0.0407153
0.0441422
0.0477801
0.0517762
0.0562285
0.0610801
0.0662632
0.0718944
0.078662
0.0865308
0.0948468
0.103765
0.113384
0.12374
0.134976
0.147062
0.16006
0.173759
0.18838
0.203855
0.220508
0.238862
0.245255
0.242415
0.227526
0.24333
0.257157
0.283173
0.000140972
0.00108652
0.00214785
0.00326731
0.00444945
0.00570926
0.00704638
0.00845813
0.00994074
0.0114911
0.0131105
0.0148076
0.0165997
0.0185082
0.0205497
0.0227276
0.0250317
0.0274506
0.0299922
0.0326961
0.0356196
0.0387919
0.0421773
0.0457185
0.0494469
0.0535129
0.0580452
0.0630121
0.0683266
0.0740705
0.080913
0.0888073
0.0970989
0.10592
0.115353
0.125437
0.136274
0.147818
0.160115
0.172957
0.186467
0.200707
0.215515
0.231822
0.236737
0.232787
0.219345
0.235343
0.250441
0.274983
0.000106244
0.00108254
0.00217813
0.00333444
0.00455655
0.00585994
0.00724429
0.00870668
0.0102426
0.0118477
0.0135221
0.0152743
0.0171224
0.0190901
0.0211972
0.0234494
0.025836
0.0283412
0.0309662
0.0337483
0.0367525
0.0400209
0.0435215
0.0471815
0.0510033
0.0551214
0.0596902
0.0647169
0.0701171
0.0759452
0.0828378
0.090736
0.0989804
0.107684
0.116908
0.12669
0.137106
0.148093
0.159678
0.171662
0.184095
0.197108
0.210233
0.22451
0.228262
0.22388
0.212048
0.228318
0.243987
0.267253
6.51234e-05
0.0010708
0.00219914
0.00339032
0.00464991
0.00599387
0.00742215
0.00893181
0.0105178
0.0121748
0.0139015
0.0157057
0.0176057
0.0196273
0.021794
0.0241149
0.0265805
0.0291697
0.0318739
0.0347243
0.037792
0.0411358
0.0447377
0.0485188
0.0524472
0.0566228
0.0612076
0.0662477
0.0716809
0.0775458
0.0844462
0.0923127
0.100482
0.10904
0.118037
0.127492
0.137475
0.1479
0.158779
0.169922
0.18133
0.193152
0.204747
0.217121
0.220002
0.216022
0.206395
0.222618
0.238031
0.260022
1.75684e-05
0.00105174
0.00221175
0.00343615
0.00473078
0.00611215
0.00758067
0.00913379
0.0107663
0.0124723
0.014249
0.0161026
0.0180512
0.0201217
0.0223413
0.0247248
0.0272654
0.0299377
0.0327209
0.0356345
0.03875
0.0421434
0.0458211
0.0497125
0.0537574
0.0580097
0.0626165
0.0676494
0.0730772
0.0789315
0.0857938
0.0935847
0.101646
0.110025
0.118772
0.127889
0.137431
0.147304
0.157498
0.167836
0.178287
0.188994
0.199236
0.209947
0.212431
0.20937
0.20225
0.218116
0.232696
0.25344
-3.63503e-05
0.00102609
0.00221724
0.00347357
0.00480094
0.00621634
0.00772094
0.00931311
0.0109883
0.0127402
0.0145649
0.0164666
0.0184613
0.0205761
0.0228416
0.0252794
0.0278886
0.0306424
0.0335076
0.0364863
0.0396413
0.04306
0.0467793
0.0507522
0.0549055
0.05925
0.0638989
0.0689298
0.0743396
0.0801553
0.0869482
0.0946288
0.10255
0.110724
0.119202
0.127975
0.13708
0.146418
0.155962
0.165545
0.175124
0.184821
0.193917
0.203255
0.205731
0.203929
0.199285
0.214528
0.22796
0.247486
-9.64705e-05
0.000994721
0.00221709
0.00350446
0.00486233
0.00630818
0.00784423
0.00947047
0.0111838
0.0129785
0.0148498
0.0167992
0.0188394
0.0209955
0.0233
0.0257819
0.0284495
0.0312794
0.0342291
0.0372806
0.0404778
0.0439083
0.0476365
0.0516497
0.0558814
0.0603135
0.0650182
0.0700633
0.0754621
0.0812352
0.0879498
0.0955053
0.103265
0.11122
0.11942
0.127853
0.136532
0.145359
0.154297
0.163187
0.171987
0.180796
0.188962
0.197213
0.199927
0.199483
0.19707
0.211478
0.223663
0.241994
-0.000162621
0.000958431
0.00221256
0.00353036
0.00491664
0.00638928
0.00795186
0.00960666
0.011353
0.013187
0.0151034
0.0171013
0.0191885
0.0213855
0.0237243
0.0262399
0.0289521
0.0318463
0.0348778
0.0380107
0.0412626
0.0447071
0.0484256
0.0524397
0.0567059
0.0611977
0.0659511
0.0710178
0.0764145
0.0821541
0.0887958
0.0962278
0.103819
0.111555
0.119481
0.127584
0.135859
0.144207
0.152588
0.160856
0.168976
0.177026
0.18446
0.191878
0.194933
0.195727
0.195134
0.208569
0.219581
0.236787
-0.000234728
0.000917637
0.00220429
0.00355218
0.00496503
0.00646102
0.00804526
0.00972288
0.0114966
0.0133654
0.015325
0.0173721
0.0195092
0.0217496
0.0241215
0.0266628
0.0294041
0.0323446
0.0354462
0.0386628
0.0419843
0.045459
0.0491691
0.0531611
0.0574207
0.0619314
0.0667059
0.0717825
0.0771731
0.0828838
0.0894579
0.0967723
0.104196
0.111724
0.11939
0.127182
0.135083
0.142992
0.150875
0.158597
0.166136
0.173553
0.180419
0.187201
0.190581
0.192355
0.193101
0.205497
0.215513
0.231729
-0.000312852
0.000872242
0.00219217
0.00356997
0.00500805
0.00652463
0.00812631
0.0098213
0.0116165
0.0135146
0.0155139
0.0176099
0.0197996
0.0220881
0.0244958
0.0270593
0.0298166
0.0327821
0.0359324
0.0392225
0.0426209
0.046146
0.0498655
0.0538347
0.0580648
0.0625583
0.0673188
0.0723787
0.0777431
0.0834158
0.0899174
0.0971152
0.104378
0.111711
0.119138
0.126642
0.134201
0.141719
0.149165
0.156419
0.163472
0.170373
0.176797
0.183078
0.186687
0.189135
0.190757
0.202099
0.211332
0.226735
-0.000397218
0.000821552
0.00217517
0.00358282
0.0050454
0.00658089
0.00819708
0.00990508
0.0117161
0.0136376
0.0156716
0.017814
0.0200576
0.022399
0.0248486
0.0274365
0.0302028
0.0331739
0.0363459
0.0396862
0.043154
0.0467409
0.0504917
0.0544547
0.0586552
0.0631136
0.0678338
0.0728496
0.0781612
0.0837754
0.0901898
0.0972649
0.104373
0.111522
0.118729
0.12597
0.133223
0.140397
0.147466
0.154326
0.16098
0.167462
0.173533
0.179395
0.183105
0.185929
0.188036
0.198336
0.206989
0.221769
-0.000488322
0.000764077
0.00215106
0.00358832
0.0050753
0.00662936
0.00825896
0.0099775
0.0118001
0.0137392
0.0158014
0.017985
0.0202808
0.0226784
0.0251773
0.0277972
0.0305735
0.0335391
0.036708
0.0400677
0.0435815
0.0472252
0.0510197
0.0549966
0.0591828
0.0636084
0.0682806
0.0732363
0.0784755
0.0840102
0.0903206
0.0972649
0.104222
0.111196
0.118196
0.125196
0.132176
0.139051
0.1458
0.152334
0.15866
0.1648
0.170572
0.176056
0.179739
0.182686
0.184977
0.194265
0.202507
0.216854
-0.000586975
0.000697488
0.00211633
0.0035825
0.00509417
0.00666788
0.00831198
0.0100412
0.0118733
0.0138252
0.0159084
0.0181251
0.0204673
0.0229202
0.0254738
0.0281356
0.0309308
0.0338908
0.0370418
0.0403925
0.0439207
0.0475991
0.0514323
0.0554334
0.0596219
0.0640283
0.0686607
0.0735571
0.0787186
0.0841632
0.0903605
0.0971705
0.10398
0.110785
0.117591
0.124372
0.131108
0.137726
0.144204
0.150465
0.15652
0.162371
0.16787
0.172992
0.176537
0.179412
0.181679
0.189997
0.197965
0.212061
-0.000694147
0.000618997
0.00206672
0.0035603
0.00509717
0.00669286
0.00835487
0.0100978
0.0119406
0.0139028
0.016
0.0182397
0.0206177
0.0231189
0.0257271
0.0284383
0.0312646
0.0342289
0.0373608
0.0406853
0.0441988
0.0478817
0.0517323
0.055751
0.0599477
0.0643465
0.0689533
0.073802
0.0788948
0.0842524
0.0903404
0.0970214
0.10369
0.110336
0.116963
0.123545
0.130068
0.136463
0.142711
0.148742
0.154563
0.160158
0.165392
0.170152
0.173476
0.176146
0.17826
0.185671
0.193472
0.207486
-0.000810651
0.000526068
0.00199817
0.0035167
0.00507911
0.0066999
0.00838508
0.0101477
0.012006
0.0139795
0.0160862
0.0183387
0.0207386
0.0232749
0.0259297
0.0286906
0.0315571
0.0345399
0.0376633
0.0409596
0.044441
0.048101
0.0519409
0.0559567
0.0601525
0.064544
0.0691338
0.0739474
0.0789866
0.0842708
0.0902642
0.0968298
0.103371
0.109871
0.116336
0.122745
0.129081
0.135286
0.141336
0.147166
0.152779
0.158136
0.163102
0.167499
0.170548
0.172934
0.174832
0.181422
0.189148
0.203227
-0.000936809
0.000417227
0.00190803
0.0034481
0.0050357
0.00668448
0.00839869
0.0101889
0.0120704
0.0140603
0.0161763
0.0184341
0.0208424
0.0233969
0.0260829
0.0288846
0.0317924
0.0348046
0.037935
0.0412135
0.0446609
0.0482828
0.052088
0.0560762
0.0602512
0.0646236
0.0691932
0.0739769
0.0789742
0.0842007
0.0901177
0.0965857
0.103015
0.109389
0.115713
0.121972
0.12815
0.13419
0.140068
0.14572
0.15114
0.15627
0.160967
0.165007
0.167754
0.169824
0.17149
0.17737
0.185105
0.199376
-0.00107217
0.00029287
0.00179636
0.00335388
0.0049652
0.00664346
0.00839129
0.0102164
0.0121298
0.014144
0.0162735
0.0185346
0.0209415
0.0234982
0.0261964
0.0290222
0.0319623
0.0350063
0.0381561
0.0414323
0.0448559
0.0484392
0.0521983
0.0561403
0.0602736
0.0646084
0.069145
0.0738937
0.0788523
0.0840308
0.0898858
0.096272
0.102605
0.108871
0.115078
0.121211
0.127254
0.133154
0.138881
0.144373
0.149614
0.154528
0.158958
0.162654
0.1651
0.166858
0.168312
0.173614
0.181442
0.19601
-0.00121548
0.000155612
0.00166667
0.00323764
0.00487018
0.00657729
0.00836056
0.010225
0.0121771
0.0142234
0.0163732
0.0186408
0.0210429
0.0235905
0.0262834
0.0291132
0.0320687
0.0351362
0.0383085
0.0415946
0.0450089
0.048564
0.0522794
0.0561691
0.0602479
0.0645291
0.069017
0.0737193
0.0786338
0.0837659
0.0895653
0.0958793
0.102129
0.108304
0.114413
0.120441
0.126372
0.132151
0.137747
0.143097
0.148172
0.152881
0.157057
0.160434
0.162597
0.164071
0.165358
0.170233
0.178242
0.193186
-0.00136499
9.62925e-06
0.00152528
0.00310672
0.00475758
0.00649107
0.00830838
0.0102124
0.0122055
0.0142887
0.0164655
0.0187458
0.0211457
0.02368
0.0263555
0.0291713
0.032122
0.0351965
0.0383836
0.0416822
0.0450975
0.0486378
0.0523209
0.0561643
0.0601877
0.0644086
0.0688369
0.073482
0.0783439
0.0834253
0.0891684
0.0954142
0.101589
0.107686
0.113713
0.119654
0.125489
0.131166
0.136648
0.141872
0.146797
0.151317
0.155256
0.158345
0.160256
0.161494
0.162673
0.167278
0.175561
0.190939
-0.001519
-0.000140641
0.00137939
0.00297
0.00463655
0.00639289
0.00824027
0.0101801
0.0122115
0.0143317
0.0165392
0.0188388
0.0212429
0.0237662
0.0264197
0.0292096
0.032138
0.0352001
0.0383858
0.0416884
0.0451056
0.0486393
0.0523026
0.0561122
0.0600891
0.0642538
0.0686216
0.0732054
0.0780089
0.0830348
0.0887183
0.0948972
0.101004
0.107032
0.112988
0.118855
0.124608
0.130197
0.13558
0.140694
0.145484
0.149833
0.153556
0.156391
0.15809
0.159146
0.160286
0.164781
0.173432
0.189283
-0.00167613
-0.00029131
0.00123543
0.00283552
0.00451582
0.00629108
0.00816287
0.0101316
0.0121946
0.0143471
0.0165847
0.0189076
0.0213227
0.0238415
0.0264759
0.0292364
0.0321319
0.0351649
0.0383303
0.0416209
0.0450306
0.048557
0.0522073
0.0559945
0.0599377
0.0640577
0.0683731
0.0729002
0.0776468
0.0826165
0.0882394
0.0943537
0.100397
0.106364
0.112257
0.118058
0.123739
0.129251
0.13455
0.139567
0.144236
0.148431
0.151961
0.154578
0.156105
0.157039
0.158211
0.162743
0.171856
0.188205
-0.00183518
-0.000439109
0.00109841
0.00270954
0.00440235
0.00619259
0.00808216
0.0100709
0.0121558
0.0143321
0.0165948
0.0189407
0.0213714
0.0238932
0.0265158
0.0292511
0.0321117
0.0351063
0.0382358
0.0414966
0.0448836
0.0483931
0.0520285
0.0557984
0.0597182
0.0638063
0.0680823
0.0725642
0.0772622
0.0821811
0.0877475
0.0938026
0.0997893
0.1057
0.111535
0.117275
0.122893
0.128339
0.133564
0.138495
0.143058
0.147116
0.150476
0.152908
0.154302
0.155169
0.156441
0.161144
0.170809
0.187678
-0.00199528
-0.000581795
0.000971402
0.00259604
0.00430104
0.00610277
0.00800322
0.0100024
0.0120982
0.0142874
0.0165662
0.0189301
0.0213762
0.0239058
0.0265249
0.0292434
0.0320745
0.0350298
0.0381153
0.0413329
0.0446818
0.0481607
0.0517721
0.055522
0.0594218
0.0634871
0.0677359
0.0721858
0.0768474
0.0817256
0.0872441
0.0932482
0.0991848
0.105045
0.110826
0.116512
0.122073
0.127461
0.132622
0.137481
0.141951
0.145888
0.1491
0.151379
0.152674
0.153522
0.154954
0.159945
0.170243
0.18766
-0.00215641
-0.000719461
0.000854209
0.00249558
0.00421362
0.00602438
0.00792973
0.00993046
0.0120265
0.0142174
0.0165013
0.0188737
0.0213299
0.0238673
0.0264879
0.0291982
0.0320085
0.03493
0.0379717
0.0411402
0.0444406
0.0478764
0.0514521
0.0551734
0.0590499
0.0630947
0.0673236
0.0717521
0.0763887
0.0812369
0.0867181
0.0926802
0.0985733
0.104388
0.110121
0.115759
0.121272
0.126611
0.13172
0.136518
0.140909
0.144744
0.147829
0.14998
0.151206
0.152073
0.153715
0.159092
0.170104
0.188103
-0.00231973
-0.000855387
0.000742424
0.00240388
0.00413671
0.00595551
0.00786183
0.00985786
0.0119461
0.0141288
0.0164064
0.018776
0.0212328
0.0237728
0.0263949
0.0291018
0.031899
0.0347948
0.0377985
0.0409198
0.0441687
0.0475541
0.0510842
0.0547671
0.0586127
0.0626336
0.0668436
0.0712551
0.0758735
0.0806998
0.0861526
0.0920801
0.0979357
0.10371
0.109404
0.115001
0.120475
0.125777
0.130846
0.135597
0.139924
0.143672
0.14665
0.148697
0.149873
0.150789
0.152683
0.158533
0.170334
0.188958
-0.00248707
-0.000994841
0.000628651
0.00231234
0.00406148
0.00588838
0.0077943
0.00978293
0.011859
0.014027
0.0162892
0.018645
0.0210913
0.023625
0.0262436
0.0289461
0.0317338
0.0346108
0.0375844
0.0406655
0.043867
0.0472015
0.0506815
0.0543186
0.0581256
0.0621161
0.066303
0.070696
0.0752971
0.0801045
0.085533
0.0914302
0.097253
0.102994
0.108654
0.114221
0.119667
0.124943
0.129986
0.134704
0.138983
0.14266
0.145548
0.147508
0.148651
0.149637
0.151819
0.15822
0.170883
0.190175
-0.0026598
-0.00114239
0.000505551
0.00221103
0.00397624
0.00581131
0.00771733
0.00969908
0.0117625
0.0139129
0.0161541
0.0184878
0.0209139
0.0234313
0.0260377
0.0287302
0.0315066
0.0343675
0.0373179
0.0403675
0.0435294
0.0468185
0.05025
0.0538395
0.0576034
0.0615576
0.0657151
0.0700839
0.0746633
0.0794493
0.0848529
0.0907201
0.0965124
0.102224
0.107858
0.113404
0.118833
0.124096
0.129126
0.133824
0.138069
0.141692
0.144506
0.146394
0.147515
0.148585
0.151089
0.158117
0.171712
0.191708
-0.00283826
-0.00130023
0.000368172
0.00209177
0.00387039
0.00571282
0.00762008
0.00959711
0.0116496
0.0137826
0.0160009
0.0183081
0.0207073
0.0231998
0.0257843
0.0284578
0.0312169
0.0340601
0.0369904
0.0400153
0.0431466
0.0463986
0.0497882
0.0533339
0.0570552
0.0609703
0.0650931
0.0694308
0.0739813
0.0787397
0.0841132
0.0899477
0.0957095
0.101395
0.107008
0.11254
0.117963
0.123224
0.128253
0.132945
0.137169
0.140752
0.143508
0.145338
0.146444
0.147612
0.150476
0.158203
0.172795
0.19352
-0.00302216
-0.0014689
0.000213809
0.00194942
0.00373693
0.00558484
0.007494
0.0094684
0.0115123
0.01363
0.0158262
0.0181063
0.0204754
0.0229366
0.0254907
0.0281356
0.0308688
0.0336891
0.0365981
0.0396015
0.0427085
0.045932
0.0492885
0.0527979
0.0564815
0.0603589
0.0644445
0.0687456
0.0732602
0.0779835
0.0833197
0.0891164
0.0948459
0.100506
0.106103
0.111627
0.117051
0.12232
0.127357
0.132054
0.136271
0.139827
0.14254
0.144326
0.145428
0.14671
0.149977
0.158478
0.174123
0.195577
-0.00321148
-0.0016491
4.0509e-05
0.00178113
0.0035725
0.00542336
0.00733395
0.00930658
0.0113437
0.0134484
0.0156253
0.0178801
0.0202188
0.0226457
0.0251631
0.0277712
0.0304701
0.0332602
0.0361435
0.0391241
0.0422092
0.0454097
0.0487411
0.0522228
0.0558758
0.0597198
0.063769
0.0680308
0.0725042
0.0771858
0.0824776
0.0882311
0.0939253
0.0995596
0.105142
0.110663
0.116093
0.121377
0.126432
0.131143
0.135363
0.138907
0.141591
0.143349
0.144462
0.145884
0.149608
0.158958
0.175697
0.197852
-0.00340672
-0.00184225
-0.000153344
0.00158581
0.00337638
0.00522716
0.0071373
0.00910739
0.0111383
0.0132321
0.0153928
0.0176255
0.0199357
0.0223277
0.0248054
0.0273717
0.0300298
0.0327827
0.0356337
0.038587
0.0416484
0.0448276
0.0481387
0.0515992
0.0552284
0.059044
0.0630592
0.0672816
0.0717111
0.0763467
0.0815886
0.0872943
0.0929504
0.0985583
0.104127
0.109647
0.115088
0.120392
0.12547
0.130202
0.134434
0.137979
0.140654
0.142404
0.143553
0.145154
0.149402
0.159673
0.177522
0.200317
-0.00360816
-0.00204903
-0.000367653
0.00136461
0.00315007
0.00499693
0.00690326
0.00886842
0.0108924
0.0129765
0.0151235
0.0173371
0.0196213
0.0219801
0.0244183
0.0269414
0.0295554
0.0322661
0.0350788
0.0379986
0.0410319
0.0441879
0.0474792
0.0509213
0.0545304
0.0583211
0.0623048
0.0664888
0.0708738
0.0754612
0.08065
0.0863047
0.091921
0.0975017
0.103057
0.108578
0.114032
0.119356
0.12446
0.129218
0.133472
0.137033
0.139719
0.14149
0.142712
0.144551
0.149402
0.160658
0.179597
0.202931
-0.00381511
-0.00226773
-0.000599255
0.00112156
0.00289735
0.0047354
0.00663314
0.0085896
0.0106045
0.0126783
0.0148125
0.0170087
0.0192692
0.0215976
0.0239991
0.0264808
0.0290509
0.0317175
0.0344877
0.0373688
0.0403687
0.0434972
0.0467661
0.0501884
0.053777
0.0575431
0.061496
0.0656421
0.0699826
0.0745211
0.0796552
0.0852574
0.0908327
0.0963858
0.101927
0.107449
0.112914
0.11826
0.12339
0.128177
0.132462
0.136053
0.138776
0.140606
0.141953
0.144109
0.149652
0.161938
0.181898
0.205625
-0.00402584
-0.00249439
-0.000842628
0.000862612
0.00262373
0.00444732
0.00633095
0.00827399
0.0102761
0.0123372
0.0144569
0.0166353
0.0188733
0.0211738
0.0235424
0.0259868
0.028516
0.0311392
0.0338659
0.0367053
0.0396677
0.042764
0.0460056
0.0494035
0.0529673
0.0567057
0.0606256
0.0647326
0.0690279
0.0735167
0.0785955
0.0841442
0.0896779
0.0952025
0.100729
0.106249
0.111723
0.117087
0.122242
0.12706
0.131383
0.135023
0.137813
0.139747
0.141287
0.143854
0.15018
0.163506
0.184363
0.208294
-0.00423838
-0.00272485
-0.00109249
0.000593331
0.00233485
0.00413856
0.00600272
0.00792729
0.0099119
0.0119556
0.0140569
0.0162148
0.0184297
0.020704
0.0230432
0.0254545
0.0279468
0.0305299
0.0332145
0.0360122
0.0389351
0.0419955
0.0452043
0.048571
0.0521033
0.0558077
0.0596898
0.0637539
0.0680015
0.0724392
0.0774613
0.0829554
0.0884462
0.0939404
0.0994496
0.104963
0.110442
0.115818
0.120995
0.125845
0.130215
0.133923
0.136814
0.138905
0.140714
0.143796
0.150979
0.165313
0.186877
0.210783
-0.00445148
-0.00295681
-0.00134611
0.000316928
0.00203484
0.0038144
0.00565466
0.0075559
0.00951752
0.011538
0.0136155
0.0157489
0.0179385
0.0201868
0.0224985
0.02488
0.0273392
0.0298861
0.032532
0.0352901
0.0381738
0.0411957
0.0443667
0.0476952
0.0511879
0.0548504
0.0586874
0.0627028
0.0668981
0.0712814
0.0762443
0.0816815
0.0871266
0.0925869
0.0980738
0.103575
0.109051
0.114433
0.119627
0.12451
0.128935
0.132732
0.135759
0.13806
0.14022
0.143912
0.151999
0.167251
0.189276
0.212899
-0.00466478
-0.00319025
-0.00160343
3.41647e-05
0.00172573
0.00347829
0.00529121
0.00716471
0.00909791
0.0110893
0.0131373
0.0152416
0.017403
0.0196239
0.0219082
0.0242613
0.0266902
0.0292044
0.0318158
0.0345376
0.0373836
0.0403659
0.043495
0.0467789
0.0502241
0.0538361
0.0576195
0.0615786
0.0657151
0.070039
0.0749386
0.0803147
0.0857097
0.0911307
0.0965882
0.102069
0.107532
0.112912
0.118118
0.123034
0.127522
0.131425
0.13462
0.137182
0.139766
0.144142
0.153137
0.169157
0.191352
0.214427
-0.0048783
-0.00342595
-0.00186526
-0.000255096
0.00140833
0.00313178
0.00491443
0.00675616
0.00865609
0.0106132
0.012627
0.0146982
0.0168281
0.0190191
0.0212746
0.023599
0.0259989
0.0284833
0.0310636
0.0337525
0.0365625
0.0395049
0.0425891
0.0458232
0.0492139
0.0527673
0.0564886
0.0603828
0.064453
0.0687111
0.0735417
0.0788508
0.0841893
0.0895634
0.0949823
0.100431
0.105871
0.111239
0.116449
0.121398
0.125955
0.129979
0.133366
0.136228
0.13929
0.14439
0.154241
0.170829
0.192881
0.215153
-0.00509176
-0.00366394
-0.00213145
-0.000550385
0.00108322
0.00277534
0.00452469
0.00633096
0.00819364
0.0101127
0.0120888
0.0141235
0.0162187
0.0183769
0.020601
0.0228954
0.0252664
0.0277226
0.0302744
0.0329326
0.035708
0.03861
0.0416473
0.0448276
0.0481583
0.0516461
0.0552974
0.0591185
0.0631144
0.0672998
0.0720544
0.077289
0.0825628
0.0878801
0.0932489
0.0986534
0.104057
0.1094
0.114608
0.119584
0.124212
0.128364
0.131958
0.135142
0.138708
0.144524
0.155127
0.172048
0.193651
0.214899