/*--------------------------------*- C++ -*----------------------------------*\
  =========                 |
  \\      /  F ield         | OpenFOAM: The Open Source CFD Toolbox
   \\    /   O peration     | Website:  https://openfoam.org
    \\  /    A nd           | Version:  9
     \\/     M anipulation  |
\*---------------------------------------------------------------------------*/
FoamFile
{
    format      ascii;
    class       volVectorField;
    location    "0.12";
    object      U;
}
// * * * * * * * * * * * * * * * * * * * * * * * * * * * * * * * * * * * * * //

dimensions      [0 1 -1 0 0 0 0];

internalField   nonuniform List<vector> 
5000
(
(-2.35102e-05 0 0.000480502)
(-2.07464e-05 0 0.000851774)
(-2.06744e-05 0 0.00102394)
(-2.0154e-05 0 0.00110887)
(-1.91286e-05 0 0.00105229)
(-1.79245e-05 0 0.000798858)
(-1.65923e-05 0 0.000299658)
(-1.5055e-05 0 -0.000491957)
(-1.3168e-05 0 -0.00162298)
(-1.07268e-05 0 -0.00314211)
(-7.51008e-06 0 -0.00510012)
(-3.23992e-06 0 -0.00755111)
(2.38315e-06 0 -0.010555)
(9.84342e-06 0 -0.0141808)
(1.96413e-05 0 -0.0185094)
(3.23113e-05 0 -0.0236369)
(4.85047e-05 0 -0.0296745)
(6.87691e-05 0 -0.0367426)
(9.33875e-05 0 -0.0449552)
(0.000121904 0 -0.0543857)
(0.000152647 0 -0.0650102)
(0.000182396 0 -0.0766353)
(0.000206914 0 -0.0888418)
(0.000223089 0 -0.101013)
(0.000232502 0 -0.112524)
(0.000244239 0 -0.123083)
(0.00027435 0 -0.133099)
(0.000341989 0 -0.143835)
(0.000465164 0 -0.157269)
(0.000656626 0 -0.175715)
(0.000927165 0 -0.203491)
(0.00122898 0 -0.241298)
(0.00143165 0 -0.282891)
(0.00144239 0 -0.321378)
(0.00135852 0 -0.35124)
(0.00146656 0 -0.374094)
(0.00207611 0 -0.398573)
(0.00346896 0 -0.43749)
(0.0055103 0 -0.51054)
(0.0044423 0 -0.627144)
(-0.00596357 0 -0.654125)
(-0.00810289 0 -0.366944)
(0.0064628 0 0.0800332)
(0.0318484 0 0.472457)
(0.0571175 0 0.771988)
(0.234667 0 -2.0331)
(-0.217398 0 -2.33357)
(-0.045473 0 0.906961)
(-0.0143437 0 0.877309)
(0.00586484 0 0.874584)
(-0.000147713 0 0.000455738)
(-0.000141703 0 0.000844501)
(-0.000143266 0 0.00101578)
(-0.000142001 0 0.00109666)
(-0.000138678 0 0.00103782)
(-0.00013469 0 0.000783318)
(-0.00012985 0 0.000283328)
(-0.000123862 0 -0.0005093)
(-0.000116624 0 -0.00164179)
(-0.000107761 0 -0.00316284)
(-9.6533e-05 0 -0.00512325)
(-8.21896e-05 0 -0.00757727)
(-6.38771e-05 0 -0.010585)
(-4.04919e-05 0 -0.0142154)
(-1.07825e-05 0 -0.0185496)
(2.66512e-05 0 -0.0236836)
(7.33441e-05 0 -0.0297285)
(0.000130561 0 -0.0368044)
(0.000198724 0 -0.0450244)
(0.000276666 0 -0.0544605)
(0.000360663 0 -0.0650874)
(0.000443869 0 -0.0767108)
(0.000517729 0 -0.0889132)
(0.000576691 0 -0.101084)
(0.000625842 0 -0.112605)
(0.00068711 0 -0.123194)
(0.000798411 0 -0.13326)
(0.00100494 0 -0.144063)
(0.00134798 0 -0.157572)
(0.00185289 0 -0.176092)
(0.00254707 0 -0.203916)
(0.00331166 0 -0.241722)
(0.0038426 0 -0.283229)
(0.00395912 0 -0.321645)
(0.00390618 0 -0.351638)
(0.00432364 0 -0.374897)
(0.00581978 0 -0.400013)
(0.00869055 0 -0.439676)
(0.0122461 0 -0.512336)
(0.009986 0 -0.623255)
(-0.00951816 0 -0.647302)
(-0.0120186 0 -0.374899)
(0.0212346 0 0.0621857)
(0.0837601 0 0.443926)
(0.132444 0 0.683733)
(0.359105 0 -1.84953)
(-0.308708 0 -2.13656)
(-0.11881 0 0.807845)
(-0.0340124 0 0.854075)
(0.016964 0 0.857391)
(-0.000357219 0 0.000454966)
(-0.000352088 0 0.000847569)
(-0.000356116 0 0.00101487)
(-0.000354423 0 0.00109068)
(-0.000349759 0 0.00102822)
(-0.000343822 0 0.000770665)
(-0.000336286 0 0.000267411)
(-0.000326719 0 -0.000529161)
(-0.000314553 0 -0.00166666)
(-0.000299184 0 -0.00319379)
(-0.000279732 0 -0.00516148)
(-0.000255201 0 -0.00762417)
(-0.00022432 0 -0.0106422)
(-0.000185517 0 -0.0142846)
(-0.000136958 0 -0.0186327)
(-7.66458e-05 0 -0.0237825)
(-2.5115e-06 0 -0.0298444)
(8.73687e-05 0 -0.0369374)
(0.000193613 0 -0.0451724)
(0.000314619 0 -0.054618)
(0.000445638 0 -0.0652447)
(0.000577934 0 -0.0768551)
(0.000700779 0 -0.0890336)
(0.00080765 0 -0.10118)
(0.000906207 0 -0.112694)
(0.00102664 0 -0.123314)
(0.0012209 0 -0.13346)
(0.00155097 0 -0.144386)
(0.00207249 0 -0.158047)
(0.00281683 0 -0.176709)
(0.00382251 0 -0.204598)
(0.00491964 0 -0.242313)
(0.00569325 0 -0.283522)
(0.00592327 0 -0.321647)
(0.00594542 0 -0.351738)
(0.00657628 0 -0.375645)
(0.00852574 0 -0.40179)
(0.0119401 0 -0.442263)
(0.0156577 0 -0.512989)
(0.0127 0 -0.614505)
(-0.00946865 0 -0.635561)
(-0.0112921 0 -0.38905)
(0.029876 0 0.0266491)
(0.109905 0 0.389012)
(0.186387 0 0.565891)
(0.347178 0 -1.66742)
(-0.287858 0 -1.94967)
(-0.135356 0 0.670978)
(-0.0272062 0 0.805613)
(0.0308962 0 0.821597)
(-0.000652494 0 0.000459415)
(-0.000645681 0 0.000851215)
(-0.000649922 0 0.0010131)
(-0.000646935 0 0.00108391)
(-0.000640461 0 0.0010177)
(-0.00063221 0 0.000756907)
(-0.000621638 0 0.000250268)
(-0.000608339 0 -0.000550215)
(-0.000591504 0 -0.0016925)
(-0.000570176 0 -0.00322559)
(-0.00054335 0 -0.00520064)
(-0.000509735 0 -0.00767233)
(-0.000467724 0 -0.0107012)
(-0.000415394 0 -0.0143565)
(-0.000350513 0 -0.0187196)
(-0.000270667 0 -0.0238863)
(-0.000173408 0 -0.0299662)
(-5.66797e-05 0 -0.0370768)
(8.02095e-05 0 -0.0453264)
(0.00023548 0 -0.0547795)
(0.000403659 0 -0.065402)
(0.000575132 0 -0.076994)
(0.000738557 0 -0.089143)
(0.000887951 0 -0.101261)
(0.00103378 0 -0.112772)
(0.00121208 0 -0.123434)
(0.00148331 0 -0.13368)
(0.00191872 0 -0.144758)
(0.00258036 0 -0.158596)
(0.00349904 0 -0.177412)
(0.0047161 0 -0.205344)
(0.00602057 0 -0.242897)
(0.00692603 0 -0.283716)
(0.00719954 0 -0.321489)
(0.00723008 0 -0.351691)
(0.00790475 0 -0.376309)
(0.00994209 0 -0.403472)
(0.0133289 0 -0.44443)
(0.0164461 0 -0.512444)
(0.0125772 0 -0.604632)
(-0.0102836 0 -0.62412)
(-0.0123363 0 -0.405839)
(0.0303306 0 -0.0165326)
(0.113715 0 0.327717)
(0.212585 0 0.457748)
(0.328136 0 -1.50164)
(-0.221534 0 -1.79512)
(-0.117419 0 0.552867)
(0.00190094 0 0.756505)
(0.0466666 0 0.778176)
(-0.00103942 0 0.00046027)
(-0.00102927 0 0.000848305)
(-0.00103263 0 0.00100319)
(-0.00102766 0 0.00106725)
(-0.00101856 0 0.000995324)
(-0.00100733 0 0.00072934)
(-0.000993246 0 0.00021729)
(-0.000975824 0 -0.000589389)
(-0.000954235 0 -0.00173895)
(-0.000927364 0 -0.00328074)
(-0.000893984 0 -0.00526615)
(-0.00085251 0 -0.00775007)
(-0.000801072 0 -0.0107932)
(-0.000737486 0 -0.0144652)
(-0.000659261 0 -0.0188472)
(-0.000563738 0 -0.0240346)
(-0.000448318 0 -0.0301364)
(-0.000310984 0 -0.0372684)
(-0.000151178 0 -0.0455358)
(2.90557e-05 0 -0.0549994)
(0.000223855 0 -0.0656208)
(0.000423424 0 -0.0771983)
(0.000616877 0 -0.0893238)
(0.000799781 0 -0.101424)
(0.000985466 0 -0.112943)
(0.00121386 0 -0.123663)
(0.00154961 0 -0.134025)
(0.0020672 0 -0.145271)
(0.00282856 0 -0.1593)
(0.00385848 0 -0.178274)
(0.0051925 0 -0.206245)
(0.00658514 0 -0.243626)
(0.00750923 0 -0.284056)
(0.00773545 0 -0.321498)
(0.00767633 0 -0.351823)
(0.00821578 0 -0.377109)
(0.0100086 0 -0.405139)
(0.012872 0 -0.446309)
(0.0148228 0 -0.511563)
(0.00979397 0 -0.595654)
(-0.0127807 0 -0.614301)
(-0.0158312 0 -0.42125)
(0.0250873 0 -0.0588593)
(0.103657 0 0.271249)
(0.213281 0 0.365708)
(0.316367 0 -1.34855)
(-0.136681 0 -1.65256)
(-0.0807202 0 0.464697)
(0.0400001 0 0.71655)
(0.061154 0 0.737068)
(-0.00152477 0 0.000457844)
(-0.00151176 0 0.000839639)
(-0.00151479 0 0.000986488)
(-0.00150829 0 0.00104249)
(-0.00149697 0 0.000963432)
(-0.00148319 0 0.000690839)
(-0.00146611 0 0.000171887)
(-0.00144515 0 -0.000642701)
(-0.00141948 0 -0.00180159)
(-0.00138793 0 -0.00335445)
(-0.00134907 0 -0.00535288)
(-0.00130118 0 -0.00785201)
(-0.00124221 0 -0.0109128)
(-0.0011698 0 -0.0146047)
(-0.00108133 0 -0.0190092)
(-0.000974007 0 -0.024221)
(-0.000845211 0 -0.0303482)
(-0.000693005 0 -0.0375047)
(-0.000516993 0 -0.045793)
(-0.000319444 0 -0.0552698)
(-0.000106364 0 -0.065893)
(0.000112572 0 -0.0774596)
(0.000327196 0 -0.0895669)
(0.000534488 0 -0.101656)
(0.000749648 0 -0.113193)
(0.00101438 0 -0.123981)
(0.00139422 0 -0.134471)
(0.00196297 0 -0.145893)
(0.00277857 0 -0.160116)
(0.00385716 0 -0.179245)
(0.0052229 0 -0.207245)
(0.00660156 0 -0.244433)
(0.00744704 0 -0.284461)
(0.00753817 0 -0.321565)
(0.00728223 0 -0.35198)
(0.00750797 0 -0.377841)
(0.00875903 0 -0.406554)
(0.0107 0 -0.447668)
(0.0111748 0 -0.510136)
(0.00495638 0 -0.587132)
(-0.016659 0 -0.605028)
(-0.021575 0 -0.433958)
(0.016074 0 -0.0984101)
(0.0845905 0 0.219066)
(0.19836 0 0.277178)
(0.309225 0 -1.22364)
(-0.0531931 0 -1.52463)
(-0.0413686 0 0.399283)
(0.0748975 0 0.686967)
(0.0740336 0 0.702801)
(-0.00211321 0 0.000454148)
(-0.00209819 0 0.000828805)
(-0.00210193 0 0.000967313)
(-0.00209497 0 0.0010147)
(-0.00208261 0 0.000927783)
(-0.00206745 0 0.000647901)
(-0.00204855 0 0.000121431)
(-0.00202529 0 -0.000701641)
(-0.00199681 0 -0.00187049)
(-0.00196193 0 -0.00343511)
(-0.00191912 0 -0.0054474)
(-0.0018666 0 -0.00796269)
(-0.00180224 0 -0.0110421)
(-0.00172361 0 -0.0147552)
(-0.00162799 0 -0.0191833)
(-0.00151259 0 -0.0244206)
(-0.0013748 0 -0.0305741)
(-0.00121275 0 -0.0377557)
(-0.00102616 0 -0.0460651)
(-0.000817422 0 -0.055555)
(-0.000592609 0 -0.0661799)
(-0.000361315 0 -0.077736)
(-0.000133369 0 -0.0898262)
(8.87833e-05 0 -0.101906)
(0.000320816 0 -0.113465)
(0.000604278 0 -0.124324)
(0.0010034 0 -0.134943)
(0.00158912 0 -0.146539)
(0.00241374 0 -0.160949)
(0.00348428 0 -0.180217)
(0.00481014 0 -0.208218)
(0.00609256 0 -0.245172)
(0.00677894 0 -0.284757)
(0.0066532 0 -0.321478)
(0.00609522 0 -0.351906)
(0.00585128 0 -0.378206)
(0.0063414 0 -0.407382)
(0.0071246 0 -0.448146)
(0.00600915 0 -0.507765)
(-0.00132989 0 -0.578463)
(-0.0218035 0 -0.595618)
(-0.0295332 0 -0.443602)
(0.00398374 0 -0.133764)
(0.0589393 0 0.169497)
(0.175913 0 0.183622)
(0.302974 0 -1.13896)
(0.0146257 0 -1.41178)
(-0.00892533 0 0.350091)
(0.101051 0 0.667945)
(0.0836789 0 0.676711)
(-0.0028096 0 0.000450594)
(-0.00279306 0 0.000818294)
(-0.00279825 0 0.000948548)
(-0.00279174 0 0.000986939)
(-0.00277937 0 0.000891423)
(-0.00276395 0 0.000603408)
(-0.00274439 0 6.86598e-05)
(-0.00272007 0 -0.000763528)
(-0.00269012 0 -0.00194286)
(-0.00265335 0 -0.00351968)
(-0.00260824 0 -0.00554622)
(-0.00255299 0 -0.00807805)
(-0.00248544 0 -0.0111764)
(-0.00240315 0 -0.0149111)
(-0.0023034 0 -0.0193629)
(-0.00218341 0 -0.0246259)
(-0.00204065 0 -0.0308055)
(-0.0018733 0 -0.0380121)
(-0.00168117 0 -0.046342)
(-0.00146676 0 -0.0558442)
(-0.00123625 0 -0.0664699)
(-0.00099938 0 -0.0780146)
(-0.000766161 0 -0.0900868)
(-0.000539344 0 -0.102157)
(-0.000303995 0 -0.113735)
(-2.01447e-05 0 -0.124662)
(0.000373706 0 -0.135404)
(0.000944367 0 -0.147167)
(0.00173787 0 -0.161748)
(0.00275245 0 -0.181132)
(0.0039798 0 -0.2091)
(0.00509922 0 -0.245776)
(0.00555946 0 -0.28487)
(0.00514568 0 -0.321149)
(0.00419848 0 -0.351493)
(0.00337348 0 -0.378063)
(0.00297523 0 -0.407462)
(0.00250322 0 -0.447607)
(-0.000189367 0 -0.504391)
(-0.00867396 0 -0.569479)
(-0.0281763 0 -0.585908)
(-0.0392908 0 -0.44992)
(-0.0105259 0 -0.162898)
(0.0298229 0 0.122232)
(0.150955 0 0.0844276)
(0.293437 0 -1.09097)
(0.0622167 0 -1.30873)
(0.0135044 0 0.315154)
(0.115455 0 0.655123)
(0.0884577 0 0.657953)
(-0.00361874 0 0.000447631)
(-0.00360071 0 0.000809034)
(-0.00360755 0 0.000931408)
(-0.00360179 0 0.000960649)
(-0.00358991 0 0.000855861)
(-0.0035749 0 0.000558811)
(-0.0035555 0 1.48805e-05)
(-0.00353107 0 -0.000827236)
(-0.00350078 0 -0.00201774)
(-0.00346344 0 -0.00360738)
(-0.00341756 0 -0.00564868)
(-0.00336135 0 -0.00819748)
(-0.00329269 0 -0.0113152)
(-0.00320915 0 -0.0150716)
(-0.00310808 0 -0.0195474)
(-0.00298676 0 -0.0248359)
(-0.00284277 0 -0.0310418)
(-0.00267441 0 -0.0382729)
(-0.0024816 0 -0.0466229)
(-0.00226701 0 -0.0561369)
(-0.00203708 0 -0.0667624)
(-0.0018019 0 -0.0782944)
(-0.001572 0 -0.090347)
(-0.001351 0 -0.102404)
(-0.00112546 0 -0.113997)
(-0.000857895 0 -0.124986)
(-0.000490571 0 -0.135842)
(3.81703e-05 0 -0.147756)
(0.000767568 0 -0.16249)
(0.00168736 0 -0.181965)
(0.00276862 0 -0.209868)
(0.00367058 0 -0.246222)
(0.00385042 0 -0.284785)
(0.00309313 0 -0.320563)
(0.00169803 0 -0.350716)
(0.000228945 0 -0.37739)
(-0.00110842 0 -0.406787)
(-0.0028456 0 -0.446099)
(-0.00703785 0 -0.500119)
(-0.0167181 0 -0.560205)
(-0.0355359 0 -0.575737)
(-0.0498301 0 -0.452944)
(-0.0261607 0 -0.185155)
(0.00151664 0 0.077028)
(0.127266 0 -0.0183305)
(0.278961 0 -1.06825)
(0.0879594 0 -1.21283)
(0.025042 0 0.290445)
(0.11809 0 0.644411)
(0.0878159 0 0.645008)
(-0.00454266 0 0.00044493)
(-0.00452295 0 0.000800631)
(-0.00453113 0 0.000915719)
(-0.00452592 0 0.000936062)
(-0.00451453 0 0.000821832)
(-0.00450013 0 0.000515318)
(-0.00448131 0 -3.82978e-05)
(-0.00445742 0 -0.00089082)
(-0.00442765 0 -0.00209292)
(-0.00439083 0 -0.00369571)
(-0.00434552 0 -0.00575201)
(-0.00428996 0 -0.00831794)
(-0.00422208 0 -0.0114551)
(-0.0041395 0 -0.0152331)
(-0.00403969 0 -0.0197327)
(-0.00392008 0 -0.0250466)
(-0.0037784 0 -0.031278)
(-0.00361315 0 -0.0385332)
(-0.00342447 0 -0.0469024)
(-0.00321531 0 -0.0564269)
(-0.00299252 0 -0.0670509)
(-0.00276665 0 -0.0785684)
(-0.00254892 0 -0.0905988)
(-0.00234394 0 -0.10264)
(-0.00214006 0 -0.114242)
(-0.00190276 0 -0.125283)
(-0.00157888 0 -0.13624)
(-0.00111289 0 -0.148289)
(-0.000473041 0 -0.163154)
(0.000322129 0 -0.182692)
(0.00122024 0 -0.210496)
(0.00186234 0 -0.246491)
(0.00172244 0 -0.284483)
(0.000585953 0 -0.319708)
(-0.00129361 0 -0.349568)
(-0.00342816 0 -0.376189)
(-0.00569341 0 -0.405385)
(-0.00864386 0 -0.443699)
(-0.0142027 0 -0.49503)
(-0.0250392 0 -0.550607)
(-0.0434116 0 -0.565026)
(-0.0600402 0 -0.453142)
(-0.0410455 0 -0.202067)
(-0.0216893 0 0.0333919)
(0.107897 0 -0.121511)
(0.259294 0 -1.06067)
(0.0943389 0 -1.12411)
(0.0267158 0 0.274578)
(0.110155 0 0.633996)
(0.0819481 0 0.636211)
(-0.00557936 0 0.000441818)
(-0.00555778 0 0.000791975)
(-0.00556681 0 0.000900423)
(-0.0055618 0 0.000912496)
(-0.00555069 0 0.00078926)
(-0.00553687 0 0.000473526)
(-0.00551884 0 -8.96316e-05)
(-0.00549593 0 -0.000952442)
(-0.00546734 0 -0.002166)
(-0.00543195 0 -0.00378176)
(-0.00538836 0 -0.00585283)
(-0.00533486 0 -0.00843555)
(-0.00526943 0 -0.0115916)
(-0.00518983 0 -0.0153908)
(-0.00509365 0 -0.0199135)
(-0.00497854 0 -0.0252517)
(-0.00484246 0 -0.0315077)
(-0.00468419 0 -0.0387855)
(-0.0045042 0 -0.0471721)
(-0.00430587 0 -0.0567052)
(-0.00409653 0 -0.0673253)
(-0.0038873 0 -0.0788256)
(-0.00369002 0 -0.0908304)
(-0.00351031 0 -0.102851)
(-0.00333828 0 -0.114455)
(-0.00314257 0 -0.125538)
(-0.00287512 0 -0.136582)
(-0.00248731 0 -0.148747)
(-0.00195535 0 -0.163719)
(-0.00130615 0 -0.183291)
(-0.000617321 0 -0.210962)
(-0.000263037 0 -0.246558)
(-0.000747735 0 -0.283942)
(-0.00228196 0 -0.318564)
(-0.00465265 0 -0.348042)
(-0.00744028 0 -0.374462)
(-0.010581 0 -0.403293)
(-0.0146403 0 -0.44048)
(-0.0213807 0 -0.489192)
(-0.0332148 0 -0.540674)
(-0.051251 0 -0.553903)
(-0.0691782 0 -0.451329)
(-0.0533745 0 -0.216043)
(-0.0368244 0 -0.00991599)
(0.0945027 0 -0.22149)
(0.235306 0 -1.05984)
(0.0862076 0 -1.04207)
(0.020295 0 0.265326)
(0.0939902 0 0.623059)
(0.0716897 0 0.629858)
(-0.00672376 0 0.000437792)
(-0.00670034 0 0.000782129)
(-0.00670992 0 0.000884525)
(-0.0067049 0 0.000889178)
(-0.00669397 0 0.000757802)
(-0.00668077 0 0.000433619)
(-0.00666371 0 -0.000138404)
(-0.00664216 0 -0.00101088)
(-0.00661533 0 -0.00223528)
(-0.00658216 0 -0.00386337)
(-0.00654129 0 -0.00594852)
(-0.00649107 0 -0.00854726)
(-0.00642959 0 -0.0117214)
(-0.00635473 0 -0.0155407)
(-0.00626427 0 -0.0200852)
(-0.00615612 0 -0.0254465)
(-0.00602853 0 -0.0317252)
(-0.00588063 0 -0.0390233)
(-0.00571333 0 -0.0474249)
(-0.00553051 0 -0.0569636)
(-0.00534005 0 -0.0675765)
(-0.00515364 0 -0.079056)
(-0.00498379 0 -0.0910313)
(-0.00483704 0 -0.103025)
(-0.00470517 0 -0.114625)
(-0.00456005 0 -0.12574)
(-0.00435901 0 -0.136855)
(-0.00406061 0 -0.149115)
(-0.00364902 0 -0.164169)
(-0.00315928 0 -0.183745)
(-0.00269511 0 -0.211246)
(-0.0026426 0 -0.246409)
(-0.00348037 0 -0.283151)
(-0.00541234 0 -0.317124)
(-0.00825982 0 -0.346139)
(-0.0116625 0 -0.37224)
(-0.0155951 0 -0.400573)
(-0.0206229 0 -0.436547)
(-0.0283199 0 -0.482731)
(-0.0408966 0 -0.530508)
(-0.0585408 0 -0.54264)
(-0.076712 0 -0.448477)
(-0.0624014 0 -0.229227)
(-0.0433673 0 -0.0543093)
(0.0868945 0 -0.3147)
(0.208518 0 -1.05902)
(0.0689933 0 -0.96576)
(0.00796078 0 0.259888)
(0.0729426 0 0.611108)
(0.0584683 0 0.624514)
(-0.00796962 0 0.000432829)
(-0.00794465 0 0.000770967)
(-0.00795479 0 0.000867865)
(-0.00794986 0 0.000866037)
(-0.00793928 0 0.000727599)
(-0.00792693 0 0.00039602)
(-0.00791118 0 -0.000183884)
(-0.00789142 0 -0.00106508)
(-0.00786693 0 -0.00229939)
(-0.00783668 0 -0.00393886)
(-0.0077994 0 -0.00603707)
(-0.00775352 0 -0.00865074)
(-0.00769725 0 -0.0118418)
(-0.00762861 0 -0.0156798)
(-0.00754564 0 -0.0202446)
(-0.0074465 0 -0.0256269)
(-0.00732977 0 -0.0319261)
(-0.00719499 0 -0.039242)
(-0.00704354 0 -0.0476554)
(-0.00687984 0 -0.0571963)
(-0.00671237 0 -0.0677982)
(-0.00655343 0 -0.0792528)
(-0.00641623 0 -0.0911939)
(-0.00630828 0 -0.103156)
(-0.00622296 0 -0.114743)
(-0.00613539 0 -0.125879)
(-0.00600831 0 -0.137049)
(-0.00580719 0 -0.149385)
(-0.00552374 0 -0.164494)
(-0.00520028 0 -0.184044)
(-0.00496646 0 -0.211344)
(-0.00521728 0 -0.246038)
(-0.00640148 0 -0.282111)
(-0.0087157 0 -0.315396)
(-0.0120104 0 -0.343884)
(-0.0159709 0 -0.369573)
(-0.0205912 0 -0.397309)
(-0.0264276 0 -0.432027)
(-0.0348427 0 -0.475803)
(-0.0478573 0 -0.520275)
(-0.0649496 0 -0.531555)
(-0.0824451 0 -0.445531)
(-0.068386 0 -0.243411)
(-0.0429613 0 -0.100366)
(0.083008 0 -0.39812)
(0.180642 0 -1.05391)
(0.0478305 0 -0.894672)
(-0.0074734 0 0.256412)
(0.0505692 0 0.597962)
(0.0440488 0 0.619259)
(-0.00931097 0 0.000427382)
(-0.00928492 0 0.000759239)
(-0.00929589 0 0.000851249)
(-0.00929142 0 0.000843912)
(-0.0092816 0 0.000699527)
(-0.00927052 0 0.000361677)
(-0.00925654 0 -0.000225018)
(-0.00923909 0 -0.00111386)
(-0.00921751 0 -0.00235699)
(-0.00919085 0 -0.00400669)
(-0.00915792 0 -0.00611675)
(-0.00911726 0 -0.00874402)
(-0.00906722 0 -0.0119505)
(-0.00900601 0 -0.0158056)
(-0.00893191 0 -0.0203888)
(-0.00884337 0 -0.02579)
(-0.00873932 0 -0.0321073)
(-0.00861969 0 -0.039438)
(-0.00848635 0 -0.0478599)
(-0.00834429 0 -0.0573991)
(-0.00820255 0 -0.0679859)
(-0.00807415 0 -0.0794112)
(-0.00797312 0 -0.0913134)
(-0.00790798 0 -0.103238)
(-0.00787376 0 -0.114804)
(-0.00784878 0 -0.125949)
(-0.00780095 0 -0.137161)
(-0.00770205 0 -0.149552)
(-0.00755039 0 -0.164692)
(-0.00739454 0 -0.184189)
(-0.00738894 0 -0.211256)
(-0.00793453 0 -0.245452)
(-0.0094478 0 -0.280831)
(-0.0121171 0 -0.313399)
(-0.015817 0 -0.341311)
(-0.0202663 0 -0.366516)
(-0.0254621 0 -0.39359)
(-0.0319415 0 -0.427055)
(-0.0408501 0 -0.468574)
(-0.0540095 0 -0.510152)
(-0.0703888 0 -0.520933)
(-0.086555 0 -0.443191)
(-0.0721629 0 -0.259721)
(-0.0384198 0 -0.147945)
(0.0801854 0 -0.470041)
(0.153535 0 -1.0427)
(0.0268522 0 -0.82846)
(-0.0230363 0 0.253742)
(0.0297866 0 0.583447)
(0.0302159 0 0.613649)
(-0.0107427 0 0.000422173)
(-0.0107161 0 0.000748192)
(-0.0107283 0 0.000836059)
(-0.0107247 0 0.000824199)
(-0.0107162 0 0.000674943)
(-0.0107069 0 0.0003319)
(-0.0106952 0 -0.000260522)
(-0.0106806 0 -0.00115593)
(-0.0106625 0 -0.00240675)
(-0.01064 0 -0.00406547)
(-0.0106121 0 -0.00618605)
(-0.0105774 0 -0.00882547)
(-0.0105344 0 -0.0120457)
(-0.0104815 0 -0.0159162)
(-0.0104173 0 -0.0205157)
(-0.0103405 0 -0.0259335)
(-0.0102504 0 -0.0322662)
(-0.0101473 0 -0.0396087)
(-0.0100335 0 -0.0480357)
(-0.00991463 0 -0.0575695)
(-0.00980023 0 -0.068137)
(-0.00970414 0 -0.0795285)
(-0.00964134 0 -0.0913866)
(-0.00962144 0 -0.103268)
(-0.00964115 0 -0.114805)
(-0.00968192 0 -0.125948)
(-0.00971641 0 -0.137185)
(-0.0097219 0 -0.149613)
(-0.00970215 0 -0.164762)
(-0.00971075 0 -0.184181)
(-0.00992525 0 -0.210989)
(-0.0107497 0 -0.244663)
(-0.0125673 0 -0.279329)
(-0.0155572 0 -0.311161)
(-0.0196122 0 -0.338459)
(-0.0244755 0 -0.363133)
(-0.0301373 0 -0.389509)
(-0.0371033 0 -0.421756)
(-0.0463155 0 -0.461202)
(-0.0593847 0 -0.500293)
(-0.0749588 0 -0.510977)
(-0.0894625 0 -0.4418)
(-0.0746922 0 -0.278495)
(-0.0326178 0 -0.196497)
(0.0766168 0 -0.530397)
(0.128937 0 -1.02556)
(0.00862942 0 -0.766488)
(-0.0365354 0 0.250532)
(0.0124687 0 0.567856)
(0.0184333 0 0.607619)
(-0.0122604 0 0.000417945)
(-0.0122336 0 0.000739142)
(-0.0122474 0 0.000823761)
(-0.0122453 0 0.000808383)
(-0.0122385 0 0.000655282)
(-0.0122315 0 0.000308052)
(-0.0122226 0 -0.000289095)
(-0.0122113 0 -0.00119003)
(-0.0121972 0 -0.00244742)
(-0.0121794 0 -0.00411394)
(-0.012157 0 -0.00624369)
(-0.0121288 0 -0.00889376)
(-0.0120934 0 -0.0121261)
(-0.0120496 0 -0.01601)
(-0.011996 0 -0.0206239)
(-0.0119317 0 -0.026056)
(-0.0118563 0 -0.0324013)
(-0.0117705 0 -0.0397526)
(-0.0116772 0 -0.0481813)
(-0.0115823 0 -0.0577059)
(-0.0114959 0 -0.0682501)
(-0.0114329 0 -0.0796031)
(-0.0114093 0 -0.0914117)
(-0.0114358 0 -0.103242)
(-0.0115108 0 -0.114742)
(-0.0116186 0 -0.125872)
(-0.0117364 0 -0.137121)
(-0.0118459 0 -0.149568)
(-0.0119553 0 -0.164707)
(-0.0121218 0 -0.184028)
(-0.0125441 0 -0.210554)
(-0.0136268 0 -0.243688)
(-0.0157194 0 -0.27763)
(-0.0189913 0 -0.308712)
(-0.0233487 0 -0.335374)
(-0.0285511 0 -0.359487)
(-0.0345788 0 -0.385156)
(-0.0418958 0 -0.416246)
(-0.0512655 0 -0.453817)
(-0.0640872 0 -0.490801)
(-0.078849 0 -0.501767)
(-0.0916485 0 -0.441384)
(-0.0767556 0 -0.299432)
(-0.0277274 0 -0.245311)
(0.0717186 0 -0.58048)
(0.107838 0 -1.00389)
(-0.00609271 0 -0.708588)
(-0.0466959 0 0.246218)
(-0.000340806 0 0.551576)
(0.00926426 0 0.601424)
(-0.0138601 0 0.000415281)
(-0.0138336 0 0.000733162)
(-0.0138493 0 0.000815573)
(-0.0138489 0 0.000797713)
(-0.0138442 0 0.00064176)
(-0.0138399 0 0.00029129)
(-0.0138341 0 -0.000309637)
(-0.0138266 0 -0.00121511)
(-0.0138168 0 -0.00247798)
(-0.0138041 0 -0.00415109)
(-0.0137876 0 -0.00628868)
(-0.0137663 0 -0.0089479)
(-0.013739 0 -0.0121907)
(-0.0137046 0 -0.0160862)
(-0.0136621 0 -0.0207123)
(-0.0136107 0 -0.0261563)
(-0.0135505 0 -0.0325116)
(-0.0134825 0 -0.0398688)
(-0.0134099 0 -0.0482959)
(-0.0133392 0 -0.0578077)
(-0.0132811 0 -0.0683243)
(-0.0132513 0 -0.0796343)
(-0.0132669 0 -0.0913881)
(-0.0133399 0 -0.103162)
(-0.0134702 0 -0.114616)
(-0.0136449 0 -0.125722)
(-0.0138448 0 -0.13697)
(-0.0140558 0 -0.14942)
(-0.0142892 0 -0.164531)
(-0.0146049 0 -0.183736)
(-0.0152198 0 -0.209965)
(-0.0165374 0 -0.242546)
(-0.0188741 0 -0.275757)
(-0.0223884 0 -0.306084)
(-0.0269962 0 -0.332099)
(-0.0324683 0 -0.355637)
(-0.0387738 0 -0.380608)
(-0.0463318 0 -0.410611)
(-0.0557567 0 -0.446504)
(-0.0682484 0 -0.481707)
(-0.0822604 0 -0.493274)
(-0.0935276 0 -0.441777)
(-0.0788436 0 -0.321879)
(-0.0249592 0 -0.293727)
(0.0655964 0 -0.62227)
(0.0899996 0 -0.979335)
(-0.017515 0 -0.654962)
(-0.0533542 0 0.241055)
(-0.00884112 0 0.534856)
(0.00269548 0 0.595114)
(-0.0155381 0 0.000414561)
(-0.0155121 0 0.000730955)
(-0.0155298 0 0.0008123)
(-0.0155314 0 0.000793027)
(-0.0155291 0 0.000635207)
(-0.0155277 0 0.000282415)
(-0.0155254 0 -0.000321385)
(-0.0155218 0 -0.00123043)
(-0.0155166 0 -0.00249773)
(-0.0155092 0 -0.00417626)
(-0.0154989 0 -0.00632036)
(-0.0154848 0 -0.00898726)
(-0.0154659 0 -0.0122389)
(-0.0154412 0 -0.0161442)
(-0.0154099 0 -0.0207804)
(-0.0153716 0 -0.026234)
(-0.0153267 0 -0.0325969)
(-0.0152765 0 -0.0399571)
(-0.0152248 0 -0.0483795)
(-0.0151781 0 -0.0578748)
(-0.0151481 0 -0.06836)
(-0.0151511 0 -0.0796225)
(-0.0152054 0 -0.0913161)
(-0.0153241 0 -0.103026)
(-0.0155088 0 -0.114426)
(-0.0157487 0 -0.125499)
(-0.0160279 0 -0.136733)
(-0.016336 0 -0.149173)
(-0.0166866 0 -0.164241)
(-0.0171409 0 -0.183315)
(-0.0179322 0 -0.209233)
(-0.0194602 0 -0.241253)
(-0.0220099 0 -0.273733)
(-0.0257284 0 -0.303306)
(-0.0305373 0 -0.32867)
(-0.0362171 0 -0.351631)
(-0.0427262 0 -0.375921)
(-0.0504401 0 -0.404907)
(-0.0598555 0 -0.439298)
(-0.071997 0 -0.472991)
(-0.0853661 0 -0.485393)
(-0.0953958 0 -0.442732)
(-0.0811907 0 -0.345084)
(-0.0246772 0 -0.341213)
(0.0584426 0 -0.65774)
(0.074318 0 -0.953275)
(-0.0266017 0 -0.605636)
(-0.0572504 0 0.234995)
(-0.0142723 0 0.518245)
(-0.0019177 0 0.588557)
(-0.0172908 0 0.000416019)
(-0.0172654 0 0.000732941)
(-0.0172852 0 0.000814413)
(-0.0172889 0 0.000794815)
(-0.0172892 0 0.000636113)
(-0.0172908 0 0.000281906)
(-0.0172921 0 -0.000323872)
(-0.0172926 0 -0.00123555)
(-0.0172922 0 -0.00250624)
(-0.0172903 0 -0.00418903)
(-0.0172864 0 -0.00633836)
(-0.0172796 0 -0.00901151)
(-0.0172691 0 -0.0122704)
(-0.0172541 0 -0.0161836)
(-0.0172341 0 -0.0208281)
(-0.0172089 0 -0.0262892)
(-0.0171792 0 -0.0326572)
(-0.0171467 0 -0.0400177)
(-0.0171155 0 -0.0484323)
(-0.0170925 0 -0.0579078)
(-0.0170899 0 -0.0683578)
(-0.0171249 0 -0.0795683)
(-0.0172169 0 -0.0911968)
(-0.01738 0 -0.102837)
(-0.0176172 0 -0.114176)
(-0.0179196 0 -0.125206)
(-0.0182741 0 -0.136416)
(-0.0186735 0 -0.148834)
(-0.019133 0 -0.163846)
(-0.0197147 0 -0.182776)
(-0.0206653 0 -0.208373)
(-0.0223794 0 -0.239827)
(-0.025112 0 -0.271578)
(-0.0289986 0 -0.300403)
(-0.0339639 0 -0.325119)
(-0.0397974 0 -0.347505)
(-0.0464488 0 -0.371136)
(-0.0542561 0 -0.39917)
(-0.0636256 0 -0.432209)
(-0.0754402 0 -0.464601)
(-0.0882912 0 -0.477989)
(-0.0974142 0 -0.444008)
(-0.0838516 0 -0.368362)
(-0.0266597 0 -0.387375)
(0.0502296 0 -0.688305)
(0.059338 0 -0.92649)
(-0.0346186 0 -0.560826)
(-0.0596795 0 0.227832)
(-0.0181744 0 0.501997)
(-0.00565992 0 0.581605)
(-0.0191147 0 0.000419807)
(-0.0190901 0 0.000739371)
(-0.0191121 0 0.000822185)
(-0.0191178 0 0.000803354)
(-0.0191208 0 0.000644754)
(-0.0191255 0 0.000290034)
(-0.0191304 0 -0.000316837)
(-0.0191351 0 -0.00123021)
(-0.0191395 0 -0.00250327)
(-0.0191432 0 -0.00418919)
(-0.0191456 0 -0.0063425)
(-0.0191462 0 -0.00902053)
(-0.0191441 0 -0.0122851)
(-0.0191389 0 -0.0162047)
(-0.01913 0 -0.0208555)
(-0.0191176 0 -0.026322)
(-0.0191028 0 -0.0326928)
(-0.0190877 0 -0.0400511)
(-0.0190764 0 -0.048455)
(-0.0190765 0 -0.0579076)
(-0.0191005 0 -0.0683187)
(-0.0191665 0 -0.0794733)
(-0.0192947 0 -0.0910318)
(-0.0195004 0 -0.102597)
(-0.0197879 0 -0.113868)
(-0.0201495 0 -0.124847)
(-0.0205744 0 -0.136023)
(-0.0210581 0 -0.148409)
(-0.0216174 0 -0.163354)
(-0.0223146 0 -0.182131)
(-0.0234073 0 -0.2074)
(-0.0252839 0 -0.238286)
(-0.0281706 0 -0.269316)
(-0.0321923 0 -0.297403)
(-0.0372742 0 -0.321476)
(-0.0432153 0 -0.343294)
(-0.0499586 0 -0.366288)
(-0.0578132 0 -0.393425)
(-0.0671183 0 -0.425231)
(-0.0786502 0 -0.456478)
(-0.0910985 0 -0.47093)
(-0.0995991 0 -0.44541)
(-0.0867291 0 -0.391188)
(-0.0303597 0 -0.431792)
(0.0408747 0 -0.714731)
(0.0438343 0 -0.899337)
(-0.0427733 0 -0.521035)
(-0.0620455 0 0.219388)
(-0.0219961 0 0.486034)
(-0.00935901 0 0.57412)
(-0.0210067 0 0.000425991)
(-0.0209829 0 0.000750363)
(-0.021007 0 0.000835741)
(-0.0210149 0 0.000818765)
(-0.0210205 0 0.000661244)
(-0.0210284 0 0.000306899)
(-0.0210369 0 -0.000300196)
(-0.0210458 0 -0.00121435)
(-0.021055 0 -0.00248879)
(-0.0210642 0 -0.00417676)
(-0.0210729 0 -0.00633284)
(-0.0210807 0 -0.00901441)
(-0.021087 0 -0.0122833)
(-0.0210913 0 -0.0162075)
(-0.0210933 0 -0.0208629)
(-0.0210934 0 -0.0263329)
(-0.0210931 0 -0.0327043)
(-0.0210948 0 -0.040058)
(-0.0211029 0 -0.0484486)
(-0.0211253 0 -0.0578751)
(-0.0211748 0 -0.068244)
(-0.0212704 0 -0.0793389)
(-0.0214329 0 -0.090823)
(-0.0216792 0 -0.102308)
(-0.0220142 0 -0.113504)
(-0.0224314 0 -0.124425)
(-0.0229216 0 -0.13556)
(-0.0234824 0 -0.147905)
(-0.0241322 0 -0.162775)
(-0.0249328 0 -0.181392)
(-0.026151 0 -0.206328)
(-0.0281672 0 -0.23665)
(-0.0311814 0 -0.266968)
(-0.0353078 0 -0.294329)
(-0.0404711 0 -0.317771)
(-0.0464802 0 -0.339032)
(-0.0532728 0 -0.361407)
(-0.0611376 0 -0.387696)
(-0.0703645 0 -0.418358)
(-0.0816533 0 -0.448569)
(-0.0937735 0 -0.464118)
(-0.101818 0 -0.446827)
(-0.0895621 0 -0.413221)
(-0.0351453 0 -0.473958)
(0.0304246 0 -0.737354)
(0.0271402 0 -0.872573)
(-0.052022 0 -0.485697)
(-0.0652183 0 0.209643)
(-0.0266337 0 0.470226)
(-0.0135891 0 0.566184)
(-0.0229638 0 0.000434594)
(-0.0229408 0 0.000765948)
(-0.0229671 0 0.000855098)
(-0.0229772 0 0.000841049)
(-0.0229854 0 0.000685568)
(-0.0229964 0 0.000332468)
(-0.0230085 0 -0.000274013)
(-0.0230216 0 -0.00118808)
(-0.0230355 0 -0.00246295)
(-0.0230501 0 -0.00415191)
(-0.023065 0 -0.00630962)
(-0.0230799 0 -0.00899348)
(-0.0230943 0 -0.0122652)
(-0.0231078 0 -0.0161926)
(-0.0231204 0 -0.020851)
(-0.0231326 0 -0.0263225)
(-0.0231461 0 -0.0326927)
(-0.0231639 0 -0.0400394)
(-0.0231907 0 -0.048414)
(-0.0232344 0 -0.0578117)
(-0.0233085 0 -0.0681353)
(-0.0234319 0 -0.0791669)
(-0.0236269 0 -0.0905728)
(-0.0239112 0 -0.101973)
(-0.0242909 0 -0.113089)
(-0.02476 0 -0.123946)
(-0.0253105 0 -0.135032)
(-0.0259413 0 -0.14733)
(-0.0266723 0 -0.162118)
(-0.027565 0 -0.180569)
(-0.0288928 0 -0.205171)
(-0.0310273 0 -0.234934)
(-0.0341442 0 -0.264554)
(-0.0383478 0 -0.291206)
(-0.0435606 0 -0.314029)
(-0.0496021 0 -0.334745)
(-0.056405 0 -0.356522)
(-0.0642438 0 -0.382001)
(-0.0733701 0 -0.411587)
(-0.084426 0 -0.440848)
(-0.0962189 0 -0.45752)
(-0.103813 0 -0.448247)
(-0.0919806 0 -0.434257)
(-0.0404353 0 -0.513319)
(0.0186502 0 -0.756134)
(0.00954909 0 -0.846608)
(-0.062316 0 -0.454289)
(-0.069735 0 0.198587)
(-0.0324024 0 0.454436)
(-0.0186878 0 0.557923)
(-0.0249836 0 0.000445623)
(-0.0249613 0 0.000786112)
(-0.0249897 0 0.000880214)
(-0.025002 0 0.000870138)
(-0.0250128 0 0.000717631)
(-0.0250269 0 0.000366616)
(-0.0250425 0 -0.000238446)
(-0.0250596 0 -0.0011516)
(-0.0250782 0 -0.002426)
(-0.025098 0 -0.00411496)
(-0.025119 0 -0.00627321)
(-0.0251408 0 -0.00895817)
(-0.025163 0 -0.0122315)
(-0.0251855 0 -0.0161607)
(-0.0252081 0 -0.0208204)
(-0.0252318 0 -0.0262919)
(-0.0252586 0 -0.0326588)
(-0.0252917 0 -0.0399965)
(-0.0253363 0 -0.0483528)
(-0.0254004 0 -0.057719)
(-0.0254977 0 -0.0679943)
(-0.0256475 0 -0.0789596)
(-0.0258728 0 -0.0902838)
(-0.0261925 0 -0.101595)
(-0.0266137 0 -0.112627)
(-0.0271311 0 -0.123413)
(-0.027737 0 -0.134445)
(-0.0284312 0 -0.146689)
(-0.0292349 0 -0.16139)
(-0.0302089 0 -0.179673)
(-0.0316316 0 -0.203941)
(-0.0338649 0 -0.233153)
(-0.0370617 0 -0.26209)
(-0.0413173 0 -0.288051)
(-0.0465499 0 -0.310273)
(-0.0525892 0 -0.330459)
(-0.0593629 0 -0.351656)
(-0.0671329 0 -0.376363)