/*--------------------------------*- C++ -*----------------------------------*\
  =========                 |
  \\      /  F ield         | OpenFOAM: The Open Source CFD Toolbox
   \\    /   O peration     | Website:  https://openfoam.org
    \\  /    A nd           | Version:  9
     \\/     M anipulation  |
\*---------------------------------------------------------------------------*/
FoamFile
{
    format      ascii;
    class       volScalarField;
    location    "0.2";
    object      alpha.water;
}
// * * * * * * * * * * * * * * * * * * * * * * * * * * * * * * * * * * * * * //

dimensions      [0 0 0 0 0 0 0];

internalField   nonuniform List<scalar> 
5000
(
5.14014e-18
1.17943e-15
3.21047e-14
3.26726e-13
2.04272e-12
1.57132e-11
2.72919e-10
4.54965e-09
7.33996e-08
1.47474e-06
1.11647e-05
1.1706e-05
0.0761982
0.835918
0.999927
0.999982
1
1
1
1
1
1
1
1
1
1
0.999994
1
0.999991
0.496706
0.00373943
0.000659114
0.000273474
4.31091e-05
3.84e-06
7.51524e-07
1.56711e-07
3.87468e-08
1.00235e-08
2.80352e-09
7.63686e-10
3.11121e-10
2.10764e-10
1.83995e-10
1.52427e-10
1.13921e-10
7.56224e-11
4.40341e-11
2.4275e-11
8.29687e-12
1.93505e-17
2.04394e-15
4.62778e-14
4.66985e-13
2.87772e-12
2.03339e-11
2.71347e-10
4.90906e-09
7.17648e-08
2.26259e-06
5.60157e-05
1.77542e-05
0.0509072
0.783487
0.999905
0.99998
0.999999
1
1
1
1
1
1
1
1
0.999999
0.999993
1.00001
0.995791
0.39087
0.00103586
0.000548115
0.000429697
7.21333e-05
6.66261e-06
1.2879e-06
2.42327e-07
6.11235e-08
1.61629e-08
4.63501e-09
1.32997e-09
4.32318e-10
2.45787e-10
2.19533e-10
1.94224e-10
1.56032e-10
1.08149e-10
6.52075e-11
3.75169e-11
1.39331e-11
4.34772e-17
2.75209e-15
6.02253e-14
6.02756e-13
3.5015e-12
2.30616e-11
2.67934e-10
6.25383e-09
6.38098e-08
5.64376e-06
5.79007e-05
2.03544e-05
2.25607e-05
0.679433
0.999873
0.999992
0.999999
1
1
1
1
1
1
1
1
0.999999
0.999994
1
0.956858
0.271037
0.000906629
0.000562864
0.000410328
6.85518e-05
1.50247e-05
2.13782e-06
4.96774e-07
1.13994e-07
3.22369e-08
9.23026e-09
2.71879e-09
7.57853e-10
2.89077e-10
2.37576e-10
2.26397e-10
1.93203e-10
1.38381e-10
8.55884e-11
5.07884e-11
1.98447e-11
5.77766e-17
3.55099e-15
7.78883e-14
7.38206e-13
3.97512e-12
2.58757e-11
2.87955e-10
1.03774e-08
8.91868e-08
7.10429e-06
5.74913e-05
1.60376e-05
1.8351e-05
0.457575
0.990098
0.999985
0.999999
1
1
1
1
1
1
1
1
0.999999
0.999998
0.999999
0.871546
0.143079
0.000552838
0.000338718
0.000223581
8.0316e-05
1.88241e-05
3.44003e-06
8.7379e-07
2.16458e-07
6.04826e-08
1.80296e-08
5.40628e-09
1.55164e-09
3.5391e-10
2.56334e-10
2.5429e-10
2.23636e-10
1.64991e-10
1.03258e-10
6.29994e-11
2.48126e-11
6.85954e-17
4.96654e-15
1.02877e-13
9.01141e-13
4.69236e-12
3.27082e-11
4.11888e-10
1.47232e-08
2.00013e-07
7.01774e-06
1.6936e-05
1.61987e-05
1.6151e-05
0.182706
0.923888
0.999959
0.999998
1
1
1
1
1
1
1
1
0.999999
0.999999
0.999999
0.675455
0.0332095
0.000501715
0.000360172
7.00189e-05
9.35796e-05
2.258e-05
4.937e-06
1.08785e-06
3.33452e-07
9.08271e-08
2.75413e-08
8.35078e-09
2.53203e-09
5.02219e-10
2.82561e-10
2.76903e-10
2.40603e-10
1.76101e-10
1.14454e-10
6.92914e-11
2.82531e-11
9.90456e-17
7.40004e-15
1.34211e-13
1.11448e-12
6.17431e-12
4.70367e-11
6.50066e-10
1.66385e-08
2.49638e-07
4.90505e-06
5.43774e-06
4.15374e-05
2.73595e-05
5.18328e-05
0.724007
0.999854
0.999996
0.999999
1
1
1
1
1
0.999999
0.999999
0.999999
0.999999
0.938475
0.290452
0.0018553
0.000718564
0.000525581
4.98507e-05
4.93259e-05
2.63502e-05
5.49007e-06
1.2104e-06
3.53545e-07
1.04036e-07
3.09349e-08
9.51233e-09
2.94689e-09
6.78221e-10
3.22385e-10
2.92698e-10
2.4059e-10
1.73829e-10
1.14327e-10
6.74862e-11
3.01448e-11
1.8309e-16
1.05949e-14
1.6694e-13
1.37311e-12
8.4116e-12
6.48627e-11
7.69152e-10
1.67636e-08
2.11161e-07
4.57656e-06
6.01039e-05
6.0077e-05
2.83673e-05
2.96347e-05
0.264249
0.917395
0.999948
0.999998
0.999999
0.999997
0.999995
0.999991
0.999986
0.999996
0.999998
0.999999
0.972957
0.469037
0.0141808
0.00148849
0.000751409
0.000441173
6.30696e-05
1.40639e-05
2.25512e-05
6.22475e-06
1.33135e-06
3.31691e-07
1.03581e-07
3.03964e-08
9.34356e-09
2.89407e-09
7.27124e-10
3.58755e-10
2.97987e-10
2.35996e-10
1.68813e-10
1.12017e-10
6.65863e-11
2.84959e-11
3.32087e-16
1.3701e-14
1.93099e-13
1.60432e-12
1.04844e-11
7.45374e-11
7.53956e-10
1.89223e-08
1.82661e-08
8.81092e-06
6.85927e-05
3.85068e-05
2.92794e-05
3.09012e-05
5.12624e-05
0.341083
0.910376
0.99995
0.999998
0.999997
0.999994
0.999992
0.999996
0.999997
0.999998
0.894063
0.426109
0.0205777
0.000481578
0.00109431
0.000983741
0.00028277
0.000192063
8.7886e-06
4.88583e-06
5.75494e-06
1.55968e-06
2.95192e-07
9.59555e-08
2.87971e-08
8.67888e-09
2.67111e-09
7.02541e-10
3.74189e-10
2.97098e-10
2.28204e-10
1.6157e-10
1.07686e-10
6.46789e-11
2.53412e-11
5.10901e-16
1.57504e-14
2.08109e-13
1.74122e-12
1.13222e-11
7.40272e-11
7.61918e-10
1.95339e-08
1.41364e-08
1.21584e-05
6.85927e-05
3.06181e-05
3.04054e-05
0.000149902
0.000130867
0.000943002
0.283094
0.792703
0.999944
0.999996
0.999994
0.999993
0.971446
0.856232
0.598681
0.212842
0.00740524
0.000402961
5.26108e-05
0.00041979
0.000985877
0.000510512
0.000177782
5.10276e-06
1.95821e-06
2.26225e-06
1.27769e-06
3.11125e-07
7.08897e-08
2.46343e-08
7.0999e-09
2.14302e-09
6.24762e-10
3.74331e-10
2.92141e-10
2.17315e-10
1.52876e-10
1.02275e-10
6.10535e-11
2.14614e-11
6.71667e-16
1.66182e-14
2.12596e-13
1.76132e-12
1.12324e-11
7.16905e-11
7.71026e-10
1.20045e-08
7.66216e-09
9.62927e-06
6.85927e-05
3.11629e-05
0.000140303
0.000150806
5.41975e-05
0.000343854
0.00171743
0.119059
0.409676
0.596382
0.565594
0.480739
0.317092
0.141259
0.0246626
0.0019616
0.000542203
6.09214e-05
6.20232e-06
7.31612e-05
0.000983571
0.000939779
0.000145246
2.24387e-05
1.47167e-06
1.05952e-06
4.47291e-07
2.92555e-07
5.22014e-08
1.63832e-08
4.89071e-09
1.42248e-09
5.19614e-10
3.61018e-10
2.78927e-10
2.04928e-10
1.44374e-10
9.62454e-11
5.58601e-11
1.71287e-11
7.82552e-16
1.67405e-14
2.12061e-13
1.73496e-12
1.06273e-11
6.75875e-11
6.07867e-10
8.89559e-10
2.14042e-09
1.92209e-05
5.12582e-05
0.000125058
0.000209016
5.41646e-05
6.54397e-06
4.52735e-05
0.000325482
0.00121338
0.00367631
0.0182407
0.0137409
0.00670319
0.00245099
0.00129947
0.000618819
0.000266452
6.92226e-05
1.03877e-05
2.02567e-06
1.39292e-06
0.000648638
0.000921781
0.000198012
3.42346e-05
1.28417e-06
1.24198e-06
1.10859e-07
9.97086e-08
4.85365e-08
8.32361e-09
2.84534e-09
8.58646e-10
4.29327e-10
3.32222e-10
2.59576e-10
1.92264e-10
1.35612e-10
8.89728e-11
4.90857e-11
1.28094e-11
8.38004e-16
1.66433e-14
2.083e-13
1.62863e-12
8.98646e-12
4.93548e-11
2.51471e-10
1.78396e-10
1.04234e-06
2.39109e-05
1.92663e-05
0.000208918
0.000208956
1.53192e-05
8.98358e-07
5.87453e-06
3.79955e-05
0.000154
0.000380801
0.000514916
0.000486971
0.000426743
0.000315851
0.000182589
7.88715e-05
3.01937e-05
7.18748e-06
1.6826e-06
1.33265e-06
8.09677e-07
0.000152232
0.00089425
0.000172141
2.30507e-05
9.97982e-07
7.66089e-07
9.09629e-08
1.71332e-08
3.40343e-08
4.41459e-09
1.41671e-09
5.64462e-10
3.62323e-10
2.98121e-10
2.39365e-10
1.79107e-10
1.25483e-10
8.01496e-11
4.10953e-11
8.874e-12
8.39617e-16
1.61779e-14
1.96287e-13
1.3902e-12
6.34186e-12
2.71866e-11
5.94877e-11
7.34282e-11
2.66367e-06
1.85184e-05
1.64524e-05
0.000207319
0.000125337
1.24312e-06
2.50106e-07
8.86428e-07
4.77869e-06
1.84779e-05
4.44457e-05
6.01459e-05
5.51831e-05
4.65628e-05
3.3263e-05
1.87167e-05
8.46176e-06
3.74865e-06
1.35065e-06
6.90602e-07
6.50321e-07
6.62516e-07
2.60374e-05
0.000510378
0.000114492
4.64421e-06
1.25715e-06
1.89557e-07
1.61837e-07
1.18664e-08
8.21288e-09
1.91463e-09
6.9042e-10
3.87094e-10
3.12039e-10
2.73712e-10
2.21273e-10
1.64655e-10
1.14365e-10
7.03777e-11
3.25035e-11
5.56583e-12
8.18602e-16
1.50506e-14
1.73558e-13
1.09262e-12
4.05368e-12
1.86634e-11
1.16222e-10
1.16871e-10
2.51774e-06
4.78862e-06
6.45253e-05
0.000209802
1.76509e-05
2.01171e-07
1.92097e-07
2.50543e-07
7.3817e-07
2.22444e-06
5.21463e-06
7.01594e-06
6.44488e-06
5.47328e-06
3.96157e-06
2.30622e-06
1.07241e-06
4.74693e-07
6.57276e-07
6.50321e-07
6.50321e-07
6.50321e-07
2.14274e-06
4.35036e-05
0.000120075
4.41627e-06
9.86106e-07
7.65906e-08
1.87274e-07
1.83807e-08
1.3364e-09
1.3142e-09
4.52206e-10
2.95643e-10
2.85548e-10
2.59153e-10
2.05384e-10
1.51564e-10
1.03896e-10
6.00976e-11
2.39144e-11
3.06888e-12
7.52273e-16
1.34606e-14
1.49912e-13
8.98143e-13
3.32723e-12
1.95716e-11
2.23408e-10
7.69974e-09
7.56795e-07
5.29459e-06
0.000203259
0.000209175
8.78017e-06
1.92095e-07
1.89833e-07
1.90209e-07
2.55262e-07
3.05628e-07
6.43342e-07
8.46574e-07
7.81573e-07
6.61149e-07
4.9725e-07
3.0741e-07
1.57787e-07
7.34035e-08
2.35362e-06
6.5313e-07
1.17813e-06
8.55814e-07
8.83067e-07
3.92526e-05
0.000132622
8.07012e-06
1.5045e-07
5.52001e-08
1.88151e-07
1.30863e-08
8.81608e-10
1.19279e-09
3.66184e-10
2.7871e-10
2.78622e-10
2.48677e-10
1.94042e-10
1.42267e-10
9.38492e-11
4.89544e-11
1.59741e-11
1.46316e-12
6.45795e-16
1.2405e-14
1.41627e-13
8.58453e-13
3.35754e-12
2.25734e-11
4.20831e-10
1.78523e-08
1.54405e-08
2.73164e-05
0.000200809
7.96598e-05
4.31798e-07
1.90495e-07
1.90401e-07
1.32785e-06
5.03202e-07
8.79505e-08
1.18914e-07
1.39721e-07
1.2854e-07
1.15626e-07
9.45021e-08
7.03516e-08
5.06559e-08
4.2706e-08
6.94586e-06
3.11894e-05
5.81742e-06
9.82863e-07
1.35243e-06
0.000116737
0.000133126
1.56426e-05
4.8182e-08
5.06369e-08
5.56756e-08
8.71977e-09
6.03144e-10
8.43545e-10
3.29294e-10
2.77094e-10
2.76908e-10
2.41665e-10
1.88266e-10
1.34233e-10
8.19403e-11
3.67182e-11
9.4199e-12
6.11491e-13
5.46662e-16
1.23997e-14
1.4397e-13
8.73925e-13
3.49466e-12
2.76944e-11
5.47443e-10
1.25678e-08
9.11916e-09
5.14831e-05
0.000195746
7.62759e-06
5.59043e-07
4.2825e-07
2.37537e-05
2.13174e-05
5.0203e-07
6.73368e-08
6.51014e-08
6.45565e-08
5.94475e-08
5.50559e-08
4.92945e-08
4.51517e-08
4.23407e-08
4.21833e-08
2.10705e-05
3.8682e-05
1.1691e-05
1.31173e-06
3.17675e-06
0.000133126
0.000133126
3.80871e-05
6.67181e-08
4.96782e-08
5.56266e-09
6.97036e-09
5.02179e-10
4.11655e-10
2.99531e-10
2.772e-10
2.7459e-10
2.40353e-10
1.83623e-10
1.22791e-10
6.60963e-11
2.43084e-11
4.79565e-12
2.33666e-13
4.9614e-16
1.28381e-14
1.54138e-13
9.41811e-13
3.7957e-12
3.17041e-11
5.4194e-10
5.47695e-09
4.13374e-09
4.26112e-05
0.000194996
1.08486e-05
1.03835e-06
2.61893e-05
3.06784e-05
8.37439e-06
7.2719e-08
6.58004e-08
6.42632e-08
5.44825e-08
4.92716e-08
4.91312e-08
4.36336e-08
4.23407e-08
4.21843e-08
4.21751e-08
2.11683e-05
3.89908e-05
2.95352e-05
2.10895e-06
2.7276e-06
0.000120715
0.000133126
5.82642e-05
1.59759e-07
1.74332e-07
3.68331e-09
3.16758e-09
4.15755e-10
2.8216e-10
2.82999e-10
2.7924e-10
2.74543e-10
2.39149e-10
1.74188e-10
1.03576e-10
4.67433e-11
1.37079e-11
2.09294e-12
8.48568e-14
4.96517e-16
1.4272e-14
1.7855e-13
1.05796e-12
3.90178e-12
3.38377e-11
3.95395e-10
1.0132e-09
1.58041e-09
5.2512e-05
0.000193901
1.11756e-05
3.54138e-06
3.06784e-05
3.07531e-05
1.18023e-06
1.01402e-07
7.07009e-08
9.60115e-06
2.06229e-05
8.1162e-06
1.24194e-07
4.28847e-08
4.22078e-08
4.21358e-08
4.21839e-08
1.36492e-05
3.97413e-05
4.00127e-05
5.18653e-06
3.69859e-06
7.58503e-05
0.000132969
5.06944e-05
2.49848e-07
2.50955e-07
2.69694e-09
8.47942e-10
6.65892e-10
2.78249e-10
2.74072e-10
2.79087e-10
2.77161e-10
2.33573e-10
1.52218e-10
7.58499e-11
2.77855e-11
6.48244e-12
7.88894e-13
2.89589e-14
5.24833e-16
1.71155e-14
2.12078e-13
1.09765e-12
3.69336e-12
2.66136e-11
1.31566e-10
1.21803e-10
7.16476e-07
0.000100417
0.000119048
6.28951e-06
4.8478e-06
3.07366e-05
3.0703e-05
3.13535e-06
1.22799e-07
1.78424e-05
4.70272e-05
4.75081e-05
4.7367e-05
1.28282e-05
6.61643e-08
4.2913e-08
4.22077e-08
4.21641e-08
1.53785e-05
4.02682e-05
4.00109e-05
6.98816e-06
3.53768e-06
4.98514e-05
0.000132065
2.77038e-05
1.71636e-07
2.57894e-07
2.05673e-09
6.40091e-10
9.96432e-10
2.85122e-10
2.73248e-10
2.78991e-10
2.77377e-10
2.11765e-10
1.13886e-10
4.59749e-11
1.3666e-11
2.58197e-12
2.58277e-13
8.6719e-15
6.21894e-16
2.09719e-14
2.2689e-13
1.05969e-12
2.95164e-12
1.37117e-11
7.43088e-11
8.38965e-11
7.4854e-06
9.99126e-05
8.90292e-06
4.80919e-06
2.82132e-05
3.07306e-05
2.26739e-05
3.09299e-06
1.2574e-05
4.67564e-05
4.75083e-05
4.75418e-05
4.75321e-05
4.74793e-05
6.44579e-06
6.26596e-08
4.29608e-08
4.22085e-08
3.36314e-05
4.03618e-05
4.02882e-05
5.56303e-06
3.3971e-06
2.67943e-05
0.000130773
9.05326e-06
6.82704e-08
1.39367e-07
1.30157e-09
6.03138e-10
1.00275e-09
2.84525e-10
2.73009e-10
2.78937e-10
2.6515e-10
1.62468e-10
6.89802e-11
2.28308e-11
5.62702e-12
8.79186e-13
7.36484e-14
2.11861e-15
8.05562e-16
2.49218e-14
2.24258e-13
9.36841e-13
2.59055e-12
1.24234e-11
8.82053e-11
9.69644e-11
1.61143e-05
9.85372e-05
8.63502e-06
6.55114e-06
3.05287e-05
3.07133e-05
7.66569e-06
5.96648e-06
4.62263e-05
4.67469e-05
4.48873e-05
4.75187e-05
4.75774e-05
4.75829e-05
1.05873e-05
7.5793e-08
5.6012e-08
1.18694e-05
4.03618e-05
4.03618e-05
2.03725e-05
3.28149e-06
3.44181e-06
3.67109e-05
9.81192e-05
1.51964e-06
1.48007e-08
4.52382e-09
6.17473e-10
4.94634e-10
8.75534e-10
2.76311e-10
2.73013e-10
2.73056e-10
2.14279e-10
9.78732e-11
3.37662e-11
9.51648e-12
1.97688e-12
2.58092e-13
1.82948e-14
4.39356e-16
1.06925e-15
2.82263e-14
2.14185e-13
7.67451e-13
2.72401e-12
2.09234e-11
2.61704e-10
1.92343e-10
1.54557e-05
9.86163e-05
1.41238e-05
5.89728e-06
2.58985e-05
9.29511e-06
8.3249e-06
2.73508e-05
4.5931e-05
2.89535e-05
3.32356e-06
1.24343e-05
4.74733e-05
2.49999e-05
1.07333e-06
2.62531e-07
2.89835e-07
3.90007e-05
4.03587e-05
4.03618e-05
5.25394e-06
3.17993e-06
3.28122e-06
4.94773e-05
1.71675e-05
1.0788e-07
4.00035e-09
4.79821e-10
4.44827e-10
3.43707e-10
4.89605e-10
2.76893e-10
2.71407e-10
2.33981e-10
1.30924e-10
4.64747e-11
1.39457e-11
3.41203e-12
5.95822e-13
6.50565e-14
3.9072e-15
8.10989e-17
1.45065e-15
3.145e-14
2.03035e-13
6.27359e-13
3.2541e-12
4.15417e-11
1.84817e-10
1.58616e-10
1.39771e-05
9.87833e-05
1.45958e-05
9.82042e-07
2.77006e-06
2.46455e-05
2.96224e-05
2.91412e-05
1.48813e-05
1.4472e-06
1.23504e-06
1.22652e-06
4.28008e-06
1.81459e-05
2.03221e-06
3.40249e-07
2.56386e-05
4.03525e-05
4.0282e-05
1.90953e-05
2.84114e-06
3.09866e-06
2.34122e-05
5.02967e-05
2.46191e-05
1.0426e-08
8.915e-10
4.30107e-10
4.59239e-10
2.93197e-10
3.00331e-10
2.75722e-10
2.44309e-10
1.51804e-10
6.0568e-11
1.86911e-11
5.02376e-12
1.05006e-12
1.51983e-13
1.38057e-14
7.26249e-16
1.26843e-17
2.10109e-15
3.61121e-14
2.04989e-13
6.10492e-13
4.499e-12
6.84969e-11
6.89361e-11
9.14842e-11
5.11422e-05
9.86585e-05
1.05925e-05
8.83317e-07
1.11769e-06
2.9797e-05
2.99124e-05
1.80194e-05
1.307e-06
1.21965e-06
1.22298e-06
1.2265e-06
1.2265e-06
6.26796e-05
5.98363e-05
2.8152e-06
4.01603e-05
4.02579e-05
3.67886e-05
3.37531e-06
2.56925e-06
2.77457e-06
5.0256e-05
5.02967e-05
2.75181e-05
6.0688e-10
3.42192e-10
3.67091e-10
4.15102e-10
2.88779e-10
2.92739e-10
2.53341e-10
1.69378e-10
7.24421e-11
2.35616e-11
6.71677e-12
1.5725e-12
2.7244e-13
3.25015e-14
2.56843e-15
1.32107e-16
1.7254e-18
3.37617e-15
4.50509e-14
2.22929e-13
6.55539e-13
6.13534e-12
8.73244e-11
7.36775e-11
7.64202e-11
8.48828e-05
9.85204e-05
4.28518e-06
8.45941e-07
1.46711e-06
2.97614e-05
2.55835e-05
1.97387e-06
1.21965e-06
1.21963e-06
1.21965e-06
1.22298e-06
1.7584e-06
8.17035e-05
8.36356e-05
1.7462e-05
2.05639e-05
4.01603e-05
1.08373e-05
1.89335e-06
2.38883e-06
2.10937e-05
5.04404e-05
5.03686e-05
9.94734e-06
2.63129e-10
2.85536e-10
3.11236e-10
3.219e-10
2.88586e-10
2.747e-10
1.85536e-10
8.452e-11
2.81787e-11
8.39747e-12
2.13136e-12
4.15175e-13
5.90937e-14
6.14231e-15
4.76946e-16
2.51368e-17
2.19564e-19
5.99485e-15
6.30696e-14
2.7796e-13
8.0603e-13
8.20486e-12
9.81986e-11
7.56809e-11
2.25089e-06
8.16678e-05
2.21519e-05
9.37922e-07
8.4599e-07
2.37751e-05
2.98684e-05
4.24005e-06
1.23056e-06
1.22398e-06
1.21963e-06
1.80793e-06
1.2265e-06
7.1349e-06
8.27475e-05
8.37111e-05
4.64434e-05
1.45411e-06
2.00531e-05
1.87175e-06
1.51301e-06
2.79886e-06
5.04404e-05
5.04404e-05
4.38876e-05
-5.11082e-09
1.44979e-10
2.75621e-10
2.97389e-10
2.96341e-10
2.78414e-10
2.10701e-10
9.88309e-11
3.32003e-11
1.0038e-11
2.70977e-12
5.7436e-13
9.16881e-14
1.13915e-14
1.17197e-15
9.38728e-17
4.83106e-18
2.47533e-20
1.12942e-14
9.73226e-14
3.90885e-13
1.09485e-12
1.08001e-11
1.24589e-10
1.02242e-10
2.49394e-06
7.45986e-05
2.52391e-06
6.18879e-07
1.43726e-06
2.85603e-05
2.98684e-05
2.0511e-06
1.25643e-06
1.22642e-06
1.22397e-06
2.18402e-06
1.23865e-06
1.443e-05
8.3588e-05
8.37109e-05
3.66842e-05
4.56231e-07
7.20732e-07
1.07993e-06
1.17539e-06
3.22018e-05
4.98259e-05
5.04404e-05
7.09149e-06
7.41692e-11
2.21799e-10
2.69643e-10
2.97328e-10
2.89477e-10
2.29219e-10
1.19464e-10
4.02899e-11
1.18236e-11
3.30515e-12
7.5257e-13
1.30077e-13
1.80985e-14
2.23556e-15
2.39108e-16
1.88288e-17
9.09567e-19
1.70502e-21
2.15527e-14
1.57926e-13
5.76787e-13
1.51009e-12
1.39222e-11
8.07987e-11
8.26913e-11
3.56352e-06
2.70873e-05
3.53176e-06
4.72055e-07
3.28677e-06
2.80175e-05
9.57275e-06
1.34484e-06
1.28002e-06
2.97321e-05
2.13941e-05
2.75429e-06
1.25832e-06
2.71263e-05
8.28241e-05
8.35758e-05
7.11792e-06
3.17722e-07
3.48803e-07
4.79663e-07
1.63686e-05
4.75416e-05
4.91338e-05
1.42259e-05
1.68363e-08
2.13977e-10
2.1707e-10
2.59719e-10
2.96889e-10
2.59306e-10
1.42886e-10
5.07485e-11
1.43732e-11
3.95907e-12
9.54983e-13
1.76689e-13
2.6381e-14
3.64995e-15
4.72268e-16
5.00221e-17
3.74021e-18
1.68472e-19
1.28705e-22
4.031e-14
2.59174e-13
8.58662e-13
2.07314e-12
1.84713e-11
4.18516e-11
6.67778e-11
3.32409e-06
1.81354e-06
5.3338e-06
3.82016e-07
3.64326e-06
2.75306e-05
6.39657e-06
1.47038e-06
7.4583e-06
7.84514e-05
7.7561e-05
7.19665e-06
1.29958e-06
3.66304e-05
8.19096e-05
2.88694e-05
2.14222e-07
2.8326e-07
2.98186e-07
8.04892e-06
3.90245e-05
4.00025e-05
1.26276e-05
1.14063e-07
2.7587e-09
2.16585e-10
2.12733e-10
2.47999e-10
2.86736e-10
1.87695e-10
6.64174e-11
1.82659e-11
4.81354e-12
1.18912e-12
2.36108e-13
3.72004e-14
5.46267e-15
7.96589e-16
1.0308e-16
1.0478e-17
7.44266e-19
3.13188e-20
1.23874e-23
7.25522e-14
4.21047e-13
1.27743e-12
2.885e-12
2.27553e-11
1.14689e-10
1.12281e-10
6.29261e-07
6.71192e-07
3.74198e-06
3.13363e-07
3.38769e-06
2.71332e-05
7.53899e-06
1.54776e-06
6.81121e-05
7.84514e-05
6.65697e-05
3.0953e-06
1.45139e-06
4.90309e-05
8.18821e-05
2.17304e-06
1.24606e-07
2.23798e-07
2.80906e-06
2.96554e-05
3.56782e-05
1.29623e-05
2.65427e-07
3.70715e-08
1.04596e-09
2.06673e-10
2.07913e-10
2.3622e-10
2.5022e-10
1.01979e-10
2.50419e-11
6.14702e-12
1.47842e-12
3.09877e-13
5.21135e-14
7.90065e-15
1.22653e-15
1.80846e-16
2.26779e-17
2.22266e-18
1.51328e-19
5.97686e-21
1.20663e-24
1.24565e-13
6.69925e-13
1.89255e-12
4.03333e-12
2.3156e-11
4.21305e-11
5.99014e-11
1.4832e-06
4.14869e-07
4.33058e-07
1.81891e-07
3.45111e-06
2.70993e-05
7.58543e-06
7.17067e-06
7.80989e-05
7.84514e-05
6.78363e-06
2.14651e-07
3.18282e-06
7.14527e-05
7.42568e-05
6.43076e-07
1.11305e-07
1.25185e-07
8.63034e-06
2.71235e-05
1.30567e-05
2.9439e-07
7.38761e-08
9.66004e-09
3.79373e-10
1.99637e-10
2.02178e-10
2.26754e-10
1.71426e-10
4.19195e-11
8.45955e-12
1.93871e-12
4.01951e-13
7.19331e-14
1.13369e-14
1.80234e-15
2.86919e-16
4.13673e-17
5.04777e-18
4.81524e-19
3.163e-20
1.18188e-21
1.18932e-25
2.03178e-13
1.03661e-12
2.78311e-12
5.45335e-12
2.02915e-11
1.48621e-11
1.65659e-08
2.06281e-06
3.91668e-07
1.81912e-07
1.75042e-07
3.78821e-06
2.7045e-05
7.92424e-06
2.18279e-05
7.74148e-05
3.8799e-05
2.67038e-07
1.60281e-07
4.14507e-06
4.97515e-05
4.12241e-05
1.9989e-07
8.69201e-08
8.84481e-07
6.76212e-06
4.05995e-06
4.28881e-07
1.00457e-07
1.8593e-08
2.32345e-09
2.26503e-10
1.77951e-10
1.8939e-10
1.99808e-10
8.32466e-11
1.3806e-11
2.67063e-12
5.5394e-13
9.80259e-14
1.6128e-14
2.61804e-15
4.3016e-16
6.74401e-17
9.50575e-18
1.13787e-18
1.0611e-19
6.75761e-21
2.40897e-22
1.12265e-26
3.14246e-13
1.54879e-12
4.02396e-12
7.1203e-12
1.50982e-11
1.19726e-11
5.74787e-08
2.06783e-06
4.81866e-07
1.75018e-07
1.73722e-07
2.73844e-06
2.70085e-05
1.26516e-05
4.81339e-05
7.70832e-05
5.14965e-06
1.66344e-07
1.50366e-07
1.94451e-06
5.70724e-06
3.56846e-06
8.5308e-08
8.38314e-08
8.19429e-07
6.06763e-07
2.31713e-07
1.17263e-07
2.44575e-08
4.92014e-09
7.56174e-10
1.84323e-10
1.67579e-10
1.75509e-10
1.31291e-10
2.84575e-11
3.96455e-12
7.85157e-13
1.43302e-13
2.29094e-14
3.78818e-15
6.36601e-16
1.03423e-16
1.58552e-17
2.1988e-18
2.58945e-19
2.36775e-20
1.46966e-21
5.04474e-23
9.65655e-28
4.60525e-13
2.21842e-12
5.66983e-12
9.24898e-12
1.3671e-11
1.21439e-11
1.22644e-07
2.07091e-06
6.1344e-07
1.73715e-07
1.7341e-07
1.70744e-06
1.98215e-05
1.26596e-05
7.50475e-05
7.70832e-05
3.15328e-06
1.59458e-07
1.47336e-07
1.63963e-07
2.62631e-07
1.27118e-07
9.96242e-08
3.18359e-08
1.51041e-07
5.95877e-08
5.96343e-08
2.99266e-08
6.80065e-09
1.50924e-09
3.53941e-10
1.65111e-10
1.57413e-10
1.39937e-10
5.6438e-11
7.47922e-12
1.09822e-12
2.17121e-13
3.5253e-14
5.50115e-15
9.41692e-16
1.57073e-16
2.48586e-17
3.74541e-18
5.12639e-19
5.95363e-20
5.36138e-21
3.26707e-22
1.09447e-23
7.72097e-29
6.39895e-13
3.03068e-12
7.75317e-12
1.21855e-11
1.47223e-11
1.19728e-11
2.5643e-07
2.07171e-06
5.47078e-07
1.73486e-07
1.73446e-07
3.03412e-07
5.27126e-06
1.64744e-05
7.45478e-05
2.64466e-05
1.02777e-06
9.91428e-07
6.83117e-08
3.48026e-08
3.1573e-08
3.60248e-08
8.20012e-08
2.44389e-09
8.90033e-09
1.53025e-08
1.52518e-08
7.83551e-09
1.95054e-09
5.57128e-10
2.13712e-10
1.5152e-10
1.38243e-10
7.93154e-11
1.61845e-11
1.82791e-12
3.17144e-13
5.87962e-14
8.7833e-15
1.3918e-15
2.39333e-16
3.88184e-17
6.01892e-18
8.93185e-19
1.20846e-19
1.38894e-20
1.23878e-21
7.48065e-23
2.49096e-24
5.97997e-29
8.45179e-13
3.94528e-12
1.02357e-11
1.63771e-11
1.64172e-11
1.38196e-11
2.83453e-07
2.07108e-06
3.27479e-07
1.73449e-07
1.73473e-07
1.73451e-07
1.617e-06
1.97662e-05
7.25092e-05
3.0167e-06
1.03052e-06
5.61254e-06
4.36511e-06
3.8857e-08
3.45993e-09
5.69304e-09
1.1981e-08
1.69191e-09
2.94779e-09
4.15125e-09
4.02858e-09
2.10442e-09
6.68344e-10
2.8268e-10
1.77365e-10
1.46645e-10
9.97033e-11
2.99218e-11
3.73062e-12
4.99629e-13
9.72077e-14
1.61573e-14
2.28221e-15
3.64396e-16
6.10364e-17
9.66973e-18
1.47761e-18
2.15918e-19
2.89063e-20
3.30025e-21
2.93199e-22
1.77207e-23
5.97872e-25
4.0428e-29
1.06551e-12
4.91e-12
1.29901e-11
2.19574e-11
2.21878e-11
1.6883e-11
2.14016e-07
1.13069e-06
2.25356e-07
2.04843e-07
2.53008e-07
1.78466e-07
2.16793e-06
2.35202e-05
5.19153e-05
2.41363e-06
1.02279e-06
8.03507e-06
2.1716e-05
3.18125e-07
5.4574e-10
1.05052e-09
1.10791e-09
1.06906e-09
1.20135e-09
1.19679e-09
1.07871e-09
6.43896e-10
3.07447e-10
1.96982e-10
1.66746e-10
1.27126e-10
5.19644e-11
8.35401e-12
9.20145e-13
1.58581e-13
3.07437e-14
4.53553e-15
6.14912e-16
9.6559e-17
1.56792e-17
2.44477e-18
3.69065e-19
5.31617e-20
7.03673e-21
8.00396e-22
7.11944e-23
4.34587e-24
1.51177e-25
1.74342e-29
1.28853e-12
5.87022e-12
1.58362e-11
2.83975e-11
3.7723e-11
2.25823e-10
4.17837e-08
3.51516e-08
3.01644e-07
5.92639e-07
6.28103e-07
2.73965e-06
3.58932e-06
1.6813e-05
1.04226e-05
1.12094e-06
1.02279e-06
6.38755e-06
4.50917e-05
6.69682e-06
2.8412e-10
4.25925e-10
6.98964e-10
8.94847e-10
7.72239e-10
5.58127e-10
4.31377e-10
2.99725e-10
1.95678e-10
1.63145e-10
1.41589e-10
8.10624e-11
1.95463e-11
2.17529e-12
2.78559e-13
5.46723e-14
9.70622e-15
1.29174e-15
1.69655e-16
2.57698e-17
4.08741e-18
6.28685e-19
9.38832e-20
1.33871e-20
1.75205e-21
1.98493e-22
1.77466e-23
1.10461e-24
4.02014e-26
6.3896e-30
1.50267e-12
6.76668e-12
1.8555e-11
3.48891e-11
6.39575e-11
6.70001e-10
6.98687e-10
4.53193e-09
5.56615e-07
5.81851e-07
4.80461e-07
1.48504e-05
1.30564e-05
2.04219e-05
1.80438e-06
1.19857e-06
1.2117e-06
6.88478e-06
5.45254e-05
3.10003e-05
2.76071e-10
3.1962e-10
7.20202e-10
8.71132e-10
6.49456e-10
3.65356e-10
2.47631e-10
1.91591e-10
1.54312e-10
1.31256e-10
9.40204e-11
3.67742e-11
5.96172e-12
6.34967e-13
9.77574e-14
1.91564e-14
3.02066e-15
3.73442e-16
4.7833e-17
6.98232e-18
1.08509e-18
1.64518e-19
2.43208e-20
3.44541e-21
4.48565e-22
5.06919e-23
4.57467e-24
2.929e-25
1.1426e-26
2.21922e-30
1.69877e-12
7.53651e-12
2.08716e-11
4.09242e-11
9.42976e-11
7.15648e-10
5.70291e-10
1.48122e-09
5.69058e-07
4.7732e-07
4.78837e-07
1.75812e-05
1.85752e-05
2.57529e-05
6.65559e-05
4.31913e-05
1.615e-06
1.14779e-05
8.98162e-05
3.56861e-05
2.77715e-10
2.88855e-10
7.6871e-10
8.72516e-10
6.051e-10
2.92186e-10
1.86396e-10
1.49451e-10
1.22332e-10
9.10562e-11
4.82794e-11
1.30709e-11
1.78864e-12
2.16318e-13
3.65699e-14
6.63248e-15
9.35612e-16
1.10672e-16
1.38867e-17
1.94579e-18
2.93528e-19
4.38955e-20
6.42308e-21
9.05224e-22
1.17956e-22
1.34286e-23
1.23664e-24
8.23867e-26
3.37805e-27
7.26442e-31
1.87093e-12
8.12952e-12
2.2585e-11
4.62356e-11
1.17393e-10
5.54643e-10
3.78164e-10
1.73942e-08
5.71731e-07
4.7644e-07
2.52275e-06
1.13875e-05
1.92715e-05
9.65684e-05
9.79928e-05
9.40467e-05
2.16654e-06
2.97794e-05
9.01537e-05
5.82905e-05
2.74658e-10
2.72834e-10
7.52529e-10
8.67256e-10
5.77237e-10
2.42605e-10
1.47768e-10
1.17773e-10
8.7781e-11
5.29026e-11
2.06349e-11
4.4038e-12
6.06388e-13
8.30589e-14
1.40194e-14
2.27986e-15
2.94214e-16
3.39673e-17
4.18034e-18
5.62234e-19
8.11428e-20
1.1962e-20
1.73372e-21
2.43011e-22
3.17263e-23
3.65231e-24
3.43766e-25
2.36237e-26
9.86902e-28
2.27619e-31
2.01735e-12
8.5301e-12
2.36827e-11
5.07122e-11
1.28518e-10
3.29888e-10
3.10635e-10
2.43356e-07
5.69063e-07
4.72546e-07
5.08073e-06
2.74556e-06
3.26252e-05
9.8005e-05
9.78862e-05
2.19059e-05
2.80334e-06
5.59836e-05
9.01869e-05
9.01642e-05
5.07073e-06
2.45608e-10
5.98616e-10
8.5088e-10
5.45764e-10
1.98873e-10
1.12343e-10
8.60366e-11
5.6201e-11
2.68512e-11
8.31973e-12
1.61826e-12
2.37368e-13
3.46586e-14
5.50567e-15
7.9833e-16
9.61922e-17
1.08883e-17
1.30912e-18
1.68989e-19
2.32081e-20
3.33234e-21
4.787e-22
6.68182e-23
8.73286e-24
1.01299e-24
9.66472e-26
6.75683e-27
2.86846e-28
7.32158e-32
2.14073e-12
8.76428e-12
2.43041e-11
5.42761e-11
1.3334e-10
2.41033e-10
2.56477e-10
2.31616e-07
2.92311e-07
7.89941e-07
5.06212e-06
1.61065e-06
2.95241e-05
9.75967e-05
8.66927e-05
2.9298e-06
2.99998e-06
5.72657e-05
9.01869e-05
9.01869e-05
2.47878e-06
2.35642e-10
4.73594e-10
8.30189e-10
5.05216e-10
1.60718e-10
8.08173e-11
5.81795e-11
3.31756e-11
1.30169e-11
3.51793e-12
6.75544e-13
1.05031e-13
1.56094e-14
2.28336e-15
2.96959e-16
3.35249e-17
3.6749e-18
4.27033e-19
5.29365e-20
6.96035e-21
9.59459e-22
1.35497e-22
1.88271e-23
2.46403e-24
2.87791e-25
2.7768e-26
1.97101e-27
8.52894e-29
2.16053e-32
2.24722e-12
8.88531e-12
2.46409e-11
5.71082e-11
1.36476e-10
2.5328e-10
2.53238e-09
3.04008e-08
4.12013e-08
1.62634e-06
3.62672e-06
1.12536e-06
2.58278e-05
9.71792e-05
3.4389e-05
2.42096e-06
2.48415e-06
4.29627e-05
8.8256e-05
7.10596e-05
1.90167e-10
2.30448e-10
5.03276e-10
8.06457e-10
4.58268e-10
1.27264e-10
5.5648e-11
3.75969e-11
1.92222e-11
6.60889e-12
1.66691e-12
3.25502e-13
5.28743e-14
7.79598e-15
1.04426e-15
1.21161e-16
1.26013e-17
1.31093e-18
1.45e-19
1.72186e-20
2.1886e-21
2.9113e-22
3.99412e-23
5.47565e-24
7.16248e-25
8.42985e-26
8.25204e-27
5.98096e-28
2.63959e-29
3.83932e-33
2.34436e-12
8.94854e-12
2.48332e-11
5.95077e-11
1.40767e-10
3.23448e-10
3.02406e-09
2.60177e-09
6.48773e-08
9.56159e-07
2.9765e-07
5.26034e-07
1.78473e-05
9.31349e-05
9.12825e-06
2.3999e-06
2.40995e-06
3.74773e-05
9.18031e-05
1.07806e-05
2.3029e-10
2.24031e-10
5.02263e-10
7.78463e-10
4.0971e-10
9.84561e-11
3.78432e-11
2.45201e-11
1.17545e-11
3.76734e-12
9.23394e-13
1.84155e-13
3.0542e-14
4.3493e-15
5.27796e-16
5.54475e-17
5.39088e-18
5.26984e-19
5.32771e-20
5.83293e-21
7.05599e-22
9.24331e-23
1.24557e-23
1.68243e-24
2.19094e-25
2.59188e-26
2.5743e-27
1.90312e-28
8.50257e-30
4.93582e-33
2.43912e-12
8.99304e-12
2.49563e-11
6.15478e-11
1.47204e-10
3.77959e-10
2.16198e-09
2.162e-09
8.92718e-08
5.58395e-08
9.9062e-08
8.28533e-07
4.87082e-05
9.72444e-05
2.64959e-06
2.39926e-06
2.3999e-06
4.10837e-05
9.22539e-05
8.6423e-08
2.21633e-10
2.19471e-10
5.16037e-10
7.45818e-10
3.59355e-10
7.40463e-11
2.67161e-11
1.70984e-11
7.93571e-12
2.44183e-12
5.87924e-13
1.18536e-13
1.96841e-14
2.73552e-15
3.30732e-16
3.59732e-17
3.62957e-18
3.38453e-19
3.03194e-20
2.76214e-21
2.76372e-22
3.08532e-23
3.97174e-24
5.43229e-25
7.14258e-26
8.47199e-27
8.50457e-28
6.36148e-29
2.85028e-30
4.4545e-33
2.53651e-12
9.04078e-12
2.4999e-11
6.28278e-11
1.53408e-10
3.77675e-10
9.66054e-10
2.60968e-09
4.06632e-08
1.66128e-08
1.97276e-08
4.43928e-06
0.000101839
0.00010229
8.73393e-06
2.39926e-06
2.39926e-06
4.78911e-05
9.52357e-05
3.02978e-06
2.10622e-10
2.09113e-10
5.52616e-10
7.10742e-10
3.08293e-10
5.44158e-11
2.04817e-11
1.29729e-11
5.87808e-12
1.76663e-12
4.38645e-13
9.16327e-14
1.57242e-14
2.30264e-15
2.99864e-16
3.50985e-17
3.65952e-18
3.43196e-19
2.99931e-20
2.39509e-21
1.82079e-22
1.48545e-23
1.50815e-24
1.80602e-25
2.37665e-26
2.95583e-27
3.02775e-28
2.29434e-29
1.03087e-30
2.84797e-33
2.63889e-12
9.10588e-12
2.49899e-11
6.29223e-11
1.54495e-10
3.63262e-10
6.53267e-10
2.63719e-09
2.18532e-09
4.88622e-09
7.03709e-09
8.69854e-06
0.000102289
0.00010198
9.02555e-06
2.39926e-06
5.9963e-06
9.15014e-05
9.59852e-05
2.63409e-05
2.01247e-10
2.02251e-10
5.4768e-10
6.80591e-10
2.73444e-10
4.63369e-11
1.733e-11
1.06556e-11
4.86321e-12
1.55403e-12
4.12087e-13
8.95903e-14
1.57413e-14
2.35809e-15
3.1425e-16
3.76436e-17
4.0357e-18
3.87353e-19
3.38187e-20
2.71331e-21
2.0433e-22
1.4951e-23
1.02188e-24
8.13495e-26
8.82763e-27
1.03797e-27
1.12196e-28
8.86774e-30
3.82474e-31
2.07613e-33
2.74564e-12
9.19944e-12
2.49454e-11
6.25321e-11
1.528e-10
3.52006e-10
6.76186e-10
1.70482e-09
1.14514e-09
1.46283e-09
6.63179e-07
7.17124e-05
0.000102288
6.89304e-05
4.29834e-06
2.47589e-06
4.49078e-05
9.62333e-05
9.61501e-05
9.12049e-05
1.95329e-10
1.92094e-10
4.75767e-10
6.55326e-10
2.75194e-10
4.71495e-11
1.65267e-11
9.68795e-12
4.72034e-12
1.56891e-12
4.22308e-13
9.28048e-14
1.65558e-14
2.55907e-15
3.56514e-16
4.47884e-17
5.0238e-18
5.01642e-19
4.50817e-20
3.67079e-21
2.74674e-22
1.86294e-23
1.2285e-24
8.38947e-26
5.54615e-27
4.54381e-28
4.53302e-29
3.76163e-30
1.94723e-31
2.70746e-33
2.85344e-12
9.31695e-12
2.48162e-11
6.12282e-11
1.47407e-10
3.55876e-10
7.27245e-10
9.44683e-10
9.29132e-10
9.51188e-10
1.65821e-06
0.000102206
0.000102223
6.64167e-06
5.77058e-06
3.27985e-06
4.18547e-05
9.63067e-05
9.62333e-05
9.62824e-05
3.58808e-06
1.87515e-10
3.84918e-10
6.3925e-10
2.88671e-10
5.14679e-11
1.67328e-11
9.64259e-12
4.81385e-12
1.63873e-12
4.52054e-13
1.01671e-13