/*--------------------------------*- C++ -*----------------------------------*\
  =========                 |
  \\      /  F ield         | OpenFOAM: The Open Source CFD Toolbox
   \\    /   O peration     | Website:  https://openfoam.org
    \\  /    A nd           | Version:  9
     \\/     M anipulation  |
\*---------------------------------------------------------------------------*/
FoamFile
{
    format      ascii;
    class       surfaceScalarField;
    location    "0.2";
    object      alphaPhi0.water;
}
// * * * * * * * * * * * * * * * * * * * * * * * * * * * * * * * * * * * * * //

dimensions      [0 3 -1 0 0 0 0];

internalField   nonuniform List<scalar> 
9850
(
1.51586e-23
1.65874e-22
3.18781e-21
3.19457e-20
7.69118e-20
7.98365e-19
6.91968e-19
8.08986e-18
4.2486e-18
5.05513e-17
7.66002e-17
3.92911e-16
2.95086e-15
6.14782e-15
5.5733e-14
1.12499e-13
1.16136e-12
1.78649e-12
1.00095e-11
4.66643e-11
1.00031e-10
9.07928e-10
1.0443e-09
2.11217e-10
1.28072e-06
3.27866e-07
2.96256e-06
1.48519e-06
2.81628e-06
1.18564e-06
2.71788e-06
1.06365e-06
2.65889e-06
1.0202e-06
2.63656e-06
9.0127e-07
2.65536e-06
6.86097e-07
2.71684e-06
4.24347e-07
2.7933e-06
1.78194e-07
2.8755e-06
1.06769e-07
2.94751e-06
1.37005e-07
2.99712e-06
2.43659e-07
3.01879e-06
3.89421e-07
3.01358e-06
5.33759e-07
2.98321e-06
6.46976e-07
2.92576e-06
7.50931e-07
2.79251e-06
9.50199e-07
1.60297e-07
5.60938e-07
0
2.32644e-08
0
3.96158e-09
0
2.27236e-09
0
4.8905e-10
0
6.17994e-11
0
1.19371e-11
0
2.32325e-12
0
5.37809e-13
0
1.31881e-13
0
3.46333e-14
7.29716e-16
8.99067e-15
9.50644e-16
2.80327e-15
8.97668e-16
1.48053e-15
8.04857e-16
1.16963e-15
6.39606e-16
9.3345e-16
4.50534e-16
6.79522e-16
2.79988e-16
4.34189e-16
1.55345e-16
2.4378e-16
7.73741e-17
1.29731e-16
4.66002e-17
5.8985e-23
5.84102e-22
5.70099e-21
4.93014e-20
1.17412e-19
1.0882e-18
1.07402e-18
1.10918e-17
6.63033e-18
6.80089e-17
1.03615e-16
4.74951e-16
3.8073e-15
6.14031e-15
7.31028e-14
1.2796e-13
2.34419e-12
1.80331e-12
5.66322e-11
7.9248e-11
3.12899e-10
1.01338e-09
1.40833e-09
2.3484e-10
1.19417e-06
2.17999e-07
3.04255e-06
1.55021e-06
2.86025e-06
1.37668e-06
2.7659e-06
1.15794e-06
2.70602e-06
1.08009e-06
2.67315e-06
9.34138e-07
2.67406e-06
6.85185e-07
2.71218e-06
3.86229e-07
2.76703e-06
1.23343e-07
2.82968e-06
4.41217e-08
2.88783e-06
7.88556e-08
2.93202e-06
1.99467e-07
2.95751e-06
3.63929e-07
2.9648e-06
5.26473e-07
2.95485e-06
6.56914e-07
2.92368e-06
7.82157e-07
2.21005e-06
9.75382e-07
2.28331e-08
4.01811e-07
0
1.85088e-08
0
3.1652e-09
1.62501e-10
2.22205e-09
0
5.33179e-10
0
1.02709e-10
0
1.93844e-11
0
3.98959e-12
0
9.28721e-13
0
2.37739e-13
0
6.35475e-14
4.33068e-16
1.71026e-14
8.94923e-16
4.52737e-15
9.59082e-16
1.80121e-15
9.16349e-16
1.33364e-15
7.88345e-16
1.13056e-15
5.91132e-16
8.80077e-16
3.7727e-16
5.86107e-16
2.16897e-16
3.40111e-16
1.14457e-16
1.88239e-16
7.18188e-17
1.33994e-22
1.06372e-21
7.99155e-21
6.35912e-20
1.61868e-19
1.39487e-18
1.48429e-18
1.39022e-17
8.75258e-18
7.92516e-17
1.3512e-16
5.28207e-16
5.30575e-15
6.26948e-15
9.75531e-14
1.85128e-13
6.01572e-12
2.11945e-12
2.6646e-11
1.48594e-10
3.58909e-10
8.32818e-10
6.90246e-10
2.0404e-10
7.39542e-07
4.18151e-08
3.21601e-06
1.37553e-06
2.97862e-06
1.62706e-06
2.86593e-06
1.27053e-06
2.79654e-06
1.14947e-06
2.74837e-06
9.82307e-07
2.72858e-06
7.04974e-07
2.73883e-06
3.75981e-07
2.76467e-06
9.75049e-08
2.7977e-06
1.10895e-08
2.83121e-06
4.53441e-08
2.85995e-06
1.70732e-07
2.881e-06
3.42875e-07
2.89517e-06
5.12295e-07
2.90329e-06
6.48757e-07
2.90217e-06
7.82673e-07
1.93354e-06
9.13393e-07
1.80167e-08
2.49711e-07
0
1.13218e-08
0
2.46451e-09
1.15042e-10
1.43605e-09
0
4.91892e-10
0
1.55162e-10
0
2.91352e-11
0
7.14996e-12
0
1.67099e-12
0
4.46547e-13
0
1.22106e-13
0
3.37473e-14
6.44925e-16
8.7218e-15
8.93656e-16
2.33797e-15
9.5451e-16
1.46391e-15
8.96773e-16
1.28765e-15
6.99652e-16
1.04472e-15
4.54961e-16
7.1806e-16
2.68044e-16
4.26079e-16
1.47431e-16
2.42889e-16
9.52385e-17
1.82765e-22
1.2978e-21
1.07802e-20
8.31368e-20
2.20053e-19
1.8167e-18
1.92102e-18
1.68815e-17
1.07396e-17
8.98044e-17
1.97191e-16
6.07044e-16
9.37333e-15
7.55539e-15
1.62401e-13
2.98821e-13
8.35915e-12
3.42504e-12
4.62437e-11
1.39476e-10
3.6759e-10
7.10259e-10
7.39069e-10
1.68213e-10
4.06279e-08
2.38311e-09
3.08759e-06
7.65764e-07
3.16886e-06
1.88719e-06
3.03738e-06
1.40212e-06
2.94628e-06
1.24063e-06
2.87798e-06
1.0506e-06
2.83558e-06
7.47383e-07
2.81519e-06
3.96366e-07
2.80672e-06
1.05978e-07
2.80254e-06
1.5269e-08
2.80311e-06
4.47689e-08
2.80739e-06
1.66454e-07
2.81221e-06
3.38054e-07
2.8183e-06
5.06203e-07
2.83024e-06
6.368e-07
2.8492e-06
7.6306e-07
1.45489e-06
7.31394e-07
5.74857e-09
1.02095e-07
0
5.57888e-09
0
1.4223e-09
3.08565e-11
4.5681e-10
0
4.97556e-10
0
1.64922e-10
0
4.0005e-11
0
9.85552e-12
0
2.66969e-12
0
7.07358e-13
0
2.00729e-13
0
5.70253e-14
1.20329e-16
1.58329e-14
8.31194e-16
3.22058e-15
9.77301e-16
1.64755e-15
9.53629e-16
1.42396e-15
7.66852e-16
1.15965e-15
5.10248e-16
8.07961e-16
3.03419e-16
4.9078e-16
1.72725e-16
2.83637e-16
1.12637e-16
2.25009e-22
1.56876e-21
1.56974e-20
1.20554e-19
3.02265e-19
2.40788e-18
2.46087e-18
2.06906e-17
1.39389e-17
1.09486e-16
3.31145e-16
8.22504e-16
1.50483e-14
1.22361e-14
3.06486e-13
3.71479e-13
9.25217e-12
5.6989e-12
4.30262e-11
1.0386e-10
9.90425e-11
9.25344e-11
7.34299e-11
1.33762e-10
2.4364e-09
1.48613e-10
2.12406e-06
1.78341e-07
3.46755e-06
1.84147e-06
3.28843e-06
1.58144e-06
3.16367e-06
1.36522e-06
3.06619e-06
1.1481e-06
2.99909e-06
8.14479e-07
2.94648e-06
4.48978e-07
2.90085e-06
1.51604e-07
2.8563e-06
5.98178e-08
2.82218e-06
7.88885e-08
2.80255e-06
1.86094e-07
2.79036e-06
3.5024e-07
2.78267e-06
5.13887e-07
2.79057e-06
6.28878e-07
2.83492e-06
7.17339e-07
6.90257e-07
3.76623e-07
0
1.85433e-08
0
2.32714e-09
2.02848e-10
1.4871e-09
1.25939e-13
2.66817e-10
1.05158e-10
3.2349e-10
0
1.74209e-10
0
4.68235e-11
0
1.08849e-11
0
3.10433e-12
0
8.62573e-13
0
2.44545e-13
0
7.07277e-14
0
2.06021e-14
6.64961e-16
4.49879e-15
9.52541e-16
1.88424e-15
9.52371e-16
1.52924e-15
7.60454e-16
1.18871e-15
5.10053e-16
8.19517e-16
3.1631e-16
5.09369e-16
1.77974e-16
2.91489e-16
1.22839e-16
3.37583e-22
2.51478e-21
2.40828e-20
1.80557e-19
4.06631e-19
3.09577e-18
3.19662e-18
2.56545e-17
2.04364e-17
1.49588e-16
5.43374e-16
1.2091e-15
1.87791e-14
1.69992e-14
3.61422e-13
3.80442e-13
7.24199e-12
5.52876e-12
3.00345e-11
9.74528e-11
7.14738e-11
4.98696e-10
2.43866e-10
3.12083e-10
1.86967e-10
1.79409e-10
7.79343e-07
5.71471e-08
3.69159e-06
1.03746e-06
3.57017e-06
1.71833e-06
3.41554e-06
1.52027e-06
3.29361e-06
1.27004e-06
3.20127e-06
9.06817e-07
3.11605e-06
5.34195e-07
3.03455e-06
2.33098e-07
2.95085e-06
1.43526e-07
2.88558e-06
1.44154e-07
2.85289e-06
2.18785e-07
2.84424e-06
3.58885e-07
2.84454e-06
5.13572e-07
2.86138e-06
6.11714e-07
1.96093e-06
4.7964e-07
0
4.81974e-08
0
5.02306e-09
0
1.94633e-09
3.64882e-10
1.61147e-09
0
3.00113e-10
2.97192e-11
1.25805e-10
6.74147e-14
1.37541e-10
0
4.70245e-11
0
1.14787e-11
0
2.98767e-12
0
8.52076e-13
0
2.4102e-13
0
7.00675e-14
0
2.06114e-14
5.12567e-16
5.08699e-15
9.02847e-16
2.12261e-15
8.92553e-16
1.58108e-15
6.92611e-16
1.18472e-15
4.71843e-16
8.0658e-16
2.96855e-16
5.08171e-16
1.84454e-16
2.83143e-16
1.25651e-16
6.41635e-22
4.91001e-21
3.51569e-20
2.49521e-19
5.19339e-19
3.73668e-18
4.11812e-18
3.1104e-17
2.9564e-17
1.99627e-16
6.89855e-16
1.53668e-15
1.96942e-14
1.74998e-14
3.2354e-13
3.82651e-13
7.05327e-12
4.01066e-12
9.59281e-11
1.09114e-10
1.95755e-10
8.72992e-10
3.9699e-10
4.14887e-10
6.56211e-10
1.48126e-10
5.66108e-08
1.53819e-09
2.41183e-06
8.76641e-08
3.7305e-06
1.24803e-06
3.63771e-06
1.61821e-06
3.51138e-06
1.39654e-06
3.4043e-06
1.01387e-06
3.2924e-06
6.46082e-07
3.18017e-06
3.45302e-07
3.0638e-06
2.59901e-07
2.97161e-06
2.3633e-07
2.92892e-06
2.61516e-07
2.93402e-06
3.5377e-07
2.95292e-06
4.94454e-07
2.32155e-06
4.80475e-07
2.40135e-07
7.64148e-08
0
0
0
1.2304e-09
0
1.81952e-09
3.52123e-11
1.14678e-09
8.4874e-11
5.01458e-10
3.70092e-12
6.76157e-11
2.71276e-11
5.24175e-11
0
4.1298e-11
0
1.17547e-11
0
2.71504e-12
0
8.0399e-13
0
2.27489e-13
0
6.59078e-14
0
1.94192e-14
5.53708e-16
5.03077e-15
8.57846e-16
2.221e-15
8.09511e-16
1.58117e-15
6.24723e-16
1.15031e-15
4.29108e-16
7.75606e-16
2.73634e-16
4.90389e-16
1.50021e-16
2.7907e-16
1.11093e-16
1.1795e-21
8.51413e-21
4.61499e-20
3.05679e-19
6.14951e-19
4.17219e-18
4.97282e-18
3.50957e-17
3.71573e-17
2.31686e-16
7.37959e-16
1.60056e-15
1.84769e-14
1.69968e-14
1.45214e-13
3.66789e-13
1.05572e-11
2.24546e-12
4.46173e-11
2.09624e-10
2.13123e-10
8.54909e-10
7.77918e-11
2.01775e-10
1.28563e-10
1.98721e-10
3.13007e-09
3.69963e-10
3.41542e-07
6.96778e-12
2.66288e-06
2.08973e-08
3.65464e-06
1.11766e-06
3.65138e-06
1.4048e-06
3.55691e-06
1.10849e-06
3.4389e-06
7.64067e-07
3.31235e-06
4.71829e-07
3.1831e-06
3.89158e-07
3.0778e-06
3.41352e-07
3.0158e-06
3.23429e-07
2.98391e-06
3.85448e-07
1.92224e-06
3.05808e-07
2.60392e-07
3.57675e-08
0
0
0
0
9.42134e-10
1.83e-10
6.0299e-10
1.92727e-09
0
1.32242e-09
8.30446e-11
9.11132e-10
0
6.30419e-11
5.1999e-12
1.51991e-11
4.7646e-12
1.68464e-11
0
1.09349e-11
0
2.48208e-12
0
6.73547e-13
0
1.97903e-13
0
5.63426e-14
0
1.64546e-14
5.8758e-16
4.54852e-15
8.13233e-16
2.22071e-15
7.34514e-16
1.56373e-15
5.55891e-16
1.10195e-15
3.82705e-16
7.35948e-16
2.46531e-16
4.66582e-16
1.34001e-16
2.64632e-16
9.67256e-17
1.83203e-21
1.22121e-20
5.38532e-20
3.35107e-19
6.76903e-19
4.36267e-18
5.51016e-18
3.65563e-17
4.03924e-17
2.36334e-16
7.55501e-16
1.58647e-15
1.72199e-14
1.72215e-14
1.0838e-13
2.27854e-13
2.31447e-12
6.74442e-13
3.18254e-11
2.27557e-10
2.20682e-10
8.33998e-10
1.23692e-10
2.51824e-10
1.3186e-10
1.78776e-10
1.47607e-09
6.3063e-10
6.19277e-09
9.38855e-11
2.75245e-07
0
2.23183e-06
0
3.47945e-06
6.34959e-07
3.6132e-06
9.80311e-07
3.54263e-06
8.34721e-07
3.42587e-06
5.88601e-07
3.31611e-06
4.98742e-07
2.99702e-06
2.91518e-07
2.15897e-06
1.92162e-07
9.4698e-07
8.55525e-08
8.34772e-08
0
0
0
0
0
4.99484e-10
0
1.3311e-09
8.57169e-11
2.60113e-09
1.89914e-09
0
2.88117e-09
0
7.79222e-10
1.25159e-11
6.61146e-11
1.09866e-12
1.44676e-11
2.01009e-12
2.09023e-12
5.78324e-14
5.21233e-12
0
2.25485e-12
0
4.64477e-13
0
1.44287e-13
0
4.04654e-14
6.09615e-17
1.16353e-14
6.51807e-16
3.68807e-15
7.73076e-16
2.12534e-15
6.61042e-16
1.50544e-15
4.86989e-16
1.04018e-15
3.37566e-16
6.93747e-16
2.18201e-16
4.39622e-16
1.15664e-16
2.44992e-16
7.90335e-17
2.43443e-21
1.51031e-20
5.77327e-20
3.43658e-19
7.04907e-19
4.39133e-18
5.67385e-18
3.66463e-17
4.03561e-17
2.34035e-16
6.43419e-16
1.49531e-15
8.93244e-15
1.55255e-14
5.62548e-14
8.4283e-14
9.69092e-13
3.10991e-13
4.96273e-11
2.33832e-10
3.15487e-10
7.18976e-10
1.55765e-10
3.57605e-10
6.6226e-10
8.64848e-10
7.51616e-10
2.90163e-10
8.11457e-10
1.37835e-11
5.60831e-09
4.43688e-11
1.02823e-07
0
1.01153e-06
0
2.11462e-06
1.23298e-08
2.1382e-06
1.32584e-07
1.78936e-06
7.58242e-08
1.26168e-06
2.76027e-08
6.2059e-07
0
1.75498e-07
0
1.42119e-08
0
2.22328e-09
0
2.16109e-10
0
0
0
1.59389e-10
0
6.72035e-10
8.73653e-11
2.14263e-09
1.79944e-09
1.02811e-09
2.89927e-09
0
7.22421e-10
1.84946e-13
2.00933e-10
0
1.49431e-11
3.13416e-13
6.75843e-12
2.68714e-14
1.22281e-12
7.29841e-14
1.26628e-12
0
3.53093e-13
0
8.14317e-14
0
2.38691e-14
3.46558e-16
6.95986e-15
7.1071e-16
2.87829e-15
7.20426e-16
1.94111e-15
5.84268e-16
1.4027e-15
4.256e-16
9.75458e-16
2.95887e-16
6.52687e-16
1.89074e-16
4.09323e-16
9.49276e-17
2.18524e-16
6.12871e-17
2.87238e-21
1.6798e-20
5.91578e-20
3.44587e-19
7.15338e-19
4.38442e-18
5.64524e-18
3.56903e-17
3.72606e-17
2.12688e-16
3.2526e-16
1.32325e-15
3.37116e-15
8.94695e-15
8.98494e-14
6.1836e-14
9.39018e-12
2.16849e-12
1.64484e-10
3.26054e-10
4.43674e-10
2.8694e-10
4.7388e-10
1.49514e-09
5.58139e-10
8.50195e-10
4.51632e-12
2.73505e-11
8.31908e-11
0
6.58819e-10
0
2.8127e-09
0
1.32657e-08
0
3.42144e-08
0
7.3437e-08
0
4.49599e-08
0
1.84307e-08
0
7.50471e-09
0
3.94057e-09
0
1.39695e-09
0
3.37102e-10
0
1.99476e-11
0
0
0
2.64437e-11
4.11941e-13
3.84553e-10
1.05354e-11
2.31367e-09
5.36417e-10
1.87514e-09
2.2249e-09
0
9.06098e-10
5.27832e-12
2.0996e-10
0
1.52001e-11
8.62397e-13
7.4923e-12
0
7.892e-13
4.92517e-14
1.35038e-13
0
2.37884e-13
0
4.05761e-14
1.17472e-16
1.20961e-14
5.5055e-16
4.17308e-15
7.01872e-16
2.30585e-15
6.45023e-16
1.72689e-15
5.08758e-16
1.28791e-15
3.70502e-16
9.10297e-16
2.55511e-16
6.08046e-16
1.58688e-16
3.72378e-16
7.33497e-17
1.86485e-16
4.45598e-17
3.11795e-21
1.72734e-20
5.97194e-20
3.41645e-19
7.11034e-19
4.25723e-18
5.28031e-18
3.23279e-17
2.92783e-17
1.65403e-16
1.67692e-16
8.05546e-16
1.72787e-15
2.6449e-15
6.76068e-14
1.61382e-14
2.42599e-12
3.91686e-11
1.17754e-10
3.95199e-10
3.18738e-10
2.49041e-10
5.60647e-10
1.40631e-09
6.22467e-10
8.34521e-10
0
1.15194e-11
9.23109e-12
0
6.98735e-11
0
3.42957e-10
0
1.15148e-09
0
2.18242e-09
0
2.43783e-09
0
2.03279e-09
0
1.53276e-09
0
9.10163e-10
0
4.08023e-10
0
1.33754e-10
0
3.65148e-11
0
3.45174e-12
0
1.97073e-12
0
9.82692e-12
1.55748e-12
6.86537e-11
2.84644e-12
1.39541e-09
5.50612e-11
1.38862e-09
1.29621e-09
0
6.87937e-10
0
1.01898e-10
0
1.0165e-11
1.95495e-13
2.57456e-12
3.4027e-14
8.97089e-13
6.7418e-15
1.05659e-13
3.67372e-14
7.18092e-14
0
1.91761e-14
4.63535e-16
5.75237e-15
6.30093e-16
2.78984e-15
6.27242e-16
1.93048e-15
5.55895e-16
1.54642e-15
4.38375e-16
1.1843e-15
3.17317e-16
8.41748e-16
2.14917e-16
5.56353e-16
1.28035e-16
3.29183e-16
5.27879e-17
1.51043e-16
2.99738e-17
3.17938e-21
1.73021e-20
5.88404e-20
3.27001e-19
6.73365e-19
3.90215e-18
4.43263e-18
2.61582e-17
1.94766e-17
1.06993e-16
7.88927e-17
4.46779e-16
6.93238e-16
1.53683e-15
3.77755e-14
8.21862e-15
2.60555e-11
5.02728e-11
8.49429e-11
1.29244e-10
4.63992e-11
1.63114e-10
5.23537e-10
1.26866e-09
8.39148e-11
9.64923e-11
0
2.1617e-12
1.68219e-12
4.37184e-13
8.703e-12
0
4.02455e-11
0
1.29912e-10
0
2.45033e-10
0
2.6484e-10
0
2.22218e-10
0
1.68936e-10
0
1.01023e-10
0
4.5297e-11
0
1.69502e-11
0
5.97534e-12
0
1.41149e-12
0
2.35323e-12
8.35008e-13
2.7853e-12
1.06731e-12
1.99383e-11
1.53078e-12
6.16772e-10
1.06869e-11
7.73853e-10
1.01865e-10
0
5.29496e-10
0
3.41685e-11
0
8.74529e-12
0
7.48976e-13
9.27301e-14
1.37581e-12
0
1.12311e-13
5.02402e-15
1.28196e-14
2.19119e-17
9.28874e-15
5.6252e-16
3.28097e-15
5.79015e-16
2.00542e-15
5.4757e-16
1.69948e-15
4.81136e-16
1.44119e-15
3.69709e-16
1.09611e-15
2.64539e-16
7.70775e-16
1.76462e-16
5.03087e-16
9.899e-17
2.83425e-16
3.47196e-17
1.15006e-16
1.82435e-17
3.14375e-21
1.6542e-20
5.53905e-20
2.97249e-19
5.97729e-19
3.36578e-18
3.43238e-18
2.04495e-17
1.26568e-17
7.45395e-17
7.33303e-17
4.02327e-16
2.71181e-15
3.58726e-15
2.80759e-13
2.95181e-14
1.51321e-11
2.87085e-11
8.69184e-11
9.10147e-11
2.69335e-10
2.04123e-09
5.24876e-10
1.07834e-09
1.7526e-13
1.59066e-11
1.03891e-12
9.76207e-13
7.06172e-13
3.75748e-13
1.56181e-12
5.20825e-13
5.19493e-12
0
1.45749e-11
0
2.79408e-11
0
3.05617e-11
0
2.61442e-11
0
2.0302e-11
0
1.24519e-11
0
5.79074e-12
0
2.34637e-12
0
1.81165e-12
0
2.82049e-12
3.1125e-12
2.27716e-12
1.31741e-12
2.06752e-12
1.21886e-12
5.58479e-12
1.87933e-12
4.8635e-11
9.9438e-12
2.30153e-10
2.2368e-11
1.26061e-10
6.43402e-10
0
3.71268e-11
6.66317e-15
5.52972e-12
0
6.4683e-13
3.03847e-13
1.33042e-12
1.98909e-15
1.38796e-13
1.70969e-16
9.18695e-15
1.13206e-15
7.79223e-15
4.32336e-16
2.50485e-15
4.94759e-16
1.7908e-15
4.8412e-16
1.61772e-15
4.15675e-16
1.37731e-15
3.06077e-16
1.02483e-15
2.18447e-16
7.13829e-16
1.4218e-16
4.54122e-16
7.23302e-17
2.3595e-16
2.0321e-17
8.08202e-17
9.87047e-18
2.93014e-21
1.46645e-20
5.03267e-20
2.66334e-19
5.23678e-19
3.00692e-18
2.86654e-18
1.82176e-17
1.08851e-17
7.04713e-17
1.72562e-16
4.29596e-16
9.82342e-15
6.75801e-15
7.12653e-13
2.94329e-13
1.0202e-11
1.29953e-11
2.42288e-10
1.78443e-10
5.37908e-10
2.02397e-09
5.4333e-10
1.20737e-09
1.04404e-12
1.61179e-11
8.28524e-13
7.99124e-13
5.83916e-13
4.77263e-13
6.17046e-13
3.03326e-13
1.16027e-12
3.12653e-13
1.53568e-12
4.28752e-14
3.30955e-12
0
3.62609e-12
0
3.16211e-12
0
2.48129e-12
0
1.64352e-12
0
8.36712e-13
0
9.32207e-13
0
2.46758e-12
1.42813e-13
9.14332e-12
1.05674e-11
2.49948e-12
1.21579e-11
3.88871e-12
7.14129e-12
5.64677e-12
3.5572e-12
1.93091e-11
3.45746e-12
2.2759e-10
3.03093e-10
1.91715e-10
6.79603e-10
0
7.85634e-11
4.7475e-14
2.73917e-12
0
5.68487e-13
2.41074e-13
1.11739e-12
1.20241e-15
7.71206e-14
2.92453e-16
6.82305e-15
1.38356e-15
6.6408e-15
4.12622e-16
2.18927e-15
4.34863e-16
1.72431e-15
4.29786e-16
1.60098e-15
3.50275e-16
1.33175e-15
2.5547e-16
9.81845e-16
1.80643e-16
6.7189e-16
1.1062e-16
4.03729e-16
4.84471e-17
1.84812e-16
1.03186e-17
5.10786e-17
4.76858e-18
2.56671e-21
1.23071e-20
4.74876e-20
2.57801e-19
5.0388e-19
2.96843e-18
2.78509e-18
1.8086e-17
1.1631e-17
7.11709e-17
3.51996e-16
5.44088e-16
1.54152e-14
1.15883e-14
2.19479e-13
3.32561e-13
1.25315e-11
2.99366e-12
1.20153e-10
7.12618e-10
4.7663e-10
1.56033e-09
1.33039e-11
1.00035e-11
5.18614e-13
4.87213e-12
6.75802e-13
1.49896e-12
5.60085e-13
3.87125e-13
4.31854e-12
1.33484e-11
2.8122e-13
3.98942e-13
2.58667e-13
2.56835e-14
5.45892e-13
4.01856e-15
5.88703e-13
0
5.18285e-13
0
4.48032e-13
0
3.31507e-13
0
2.2428e-13
0
4.51126e-13
3.27562e-14
9.7419e-13
7.48197e-14
8.57004e-11
3.04982e-11
7.01898e-11
8.41534e-11
2.69762e-13
3.09673e-11
8.78986e-12
4.90906e-12
1.59848e-10
1.17985e-11
2.71676e-10
6.49761e-10
2.36693e-10
7.2285e-10
1.85384e-12
1.70596e-10
8.3048e-13
3.24543e-12
7.76187e-15
4.50677e-13
4.62934e-14
7.18036e-14
1.44344e-15
5.20785e-14
3.13189e-16
4.49703e-15
9.83717e-16
3.89147e-15
3.81988e-16
2.00614e-15
3.80443e-16
1.69517e-15
3.75544e-16
1.59222e-15
2.9437e-16
1.31188e-15
2.15455e-16
9.56449e-16
1.45548e-16
6.26483e-16
8.00276e-17
3.40412e-16
2.85315e-17
1.30693e-16
4.47081e-18
2.83001e-17
2.10345e-18
2.23333e-21
1.06933e-20
4.83489e-20
2.58168e-19
5.20277e-19
3.05314e-18
2.88228e-18
1.86455e-17
1.27466e-17
7.59093e-17
3.76301e-16
6.59385e-16
9.23545e-15
1.20947e-14
7.7293e-14
8.29085e-14
3.20025e-12
6.93613e-13
3.53496e-10
7.78033e-10
3.27616e-10
1.69557e-09
1.5139e-11
4.13854e-11
1.72527e-12
4.1802e-12
1.68561e-11
3.13008e-11
6.63847e-11
6.82665e-11
2.58731e-11
1.26636e-11
1.09379e-13
2.54238e-13
2.96322e-14
1.78214e-14
2.37072e-13
2.73925e-14
2.49562e-13
3.38567e-14
2.24247e-13
3.92983e-14
2.02985e-13
3.80616e-14
1.76604e-13
4.56537e-15
1.85455e-13
3.34451e-14
2.8726e-13
5.3211e-14
3.46894e-13
7.01535e-14
1.15245e-10
4.66558e-11
1.21452e-10
9.78693e-11
6.40215e-12
7.61553e-11
1.25562e-11
7.54162e-12
1.63795e-10
2.03694e-11
2.80011e-10
5.49374e-10
2.52799e-10
7.70074e-10
4.81483e-12
3.67302e-10
0
7.49764e-12
2.07888e-14
9.2834e-13
1.04903e-15
4.86921e-14
3.02776e-15
3.14599e-14
1.67865e-16
3.44047e-15
4.12566e-16
2.11086e-15
3.25756e-16
1.8575e-15
3.26469e-16
1.69644e-15
3.17141e-16
1.58555e-15
2.50236e-16
1.30594e-15
1.76432e-16
9.23911e-16
1.09084e-16
5.54092e-16
5.09743e-17
2.58252e-16
1.41689e-17
7.99776e-17
1.64976e-18
1.35331e-17
8.58506e-19
2.08377e-21
1.03279e-20
5.1261e-20
2.75392e-19
5.68842e-19
3.39163e-18
3.16874e-18
2.07952e-17
1.40688e-17
8.20316e-17
2.92152e-16
7.12882e-16
4.28311e-15
1.09465e-14
3.50273e-14
2.43275e-14
1.25345e-12
2.75553e-13
1.29919e-10
7.43202e-10
4.21157e-10
1.59658e-09
0
6.46642e-11
2.55071e-11
9.21881e-12
8.66662e-11
9.22036e-11
5.15339e-11
4.10325e-11
2.56847e-13
6.18513e-13
1.50658e-13
1.65315e-14
2.51227e-13
-6.38905e-16
2.58498e-13
0
2.44937e-13
6.13314e-13
2.26021e-13
6.14141e-13
1.94118e-13
8.04082e-14
1.79226e-13
5.30211e-14
1.90801e-13
4.81859e-14
2.02071e-13
5.76721e-14
1.98473e-13
7.53609e-14
9.55195e-11
4.1779e-11
1.39158e-10
1.06877e-10
2.7594e-11
1.29197e-10
1.92342e-11
1.47454e-11
8.7605e-11
1.75138e-11
2.63655e-10
4.07935e-10
2.36345e-10
8.14621e-10
5.44326e-12
3.82895e-10
0
9.50632e-12
5.54198e-14
2.22505e-12
0
3.94705e-14
1.1252e-15
9.30886e-15
1.70699e-16
3.39979e-15
2.78841e-16
1.91374e-15
2.82141e-16
1.79221e-15
2.74971e-16
1.70651e-15
2.61961e-16
1.5865e-15
2.05319e-16
1.29148e-15
1.34e-16
8.48965e-16
7.12137e-17
4.37949e-16
2.69893e-17
1.67204e-16
5.78201e-18
4.12027e-17
5.22906e-19
5.58048e-18
3.19686e-19
2.12581e-21
1.03415e-20
5.84419e-20
3.1934e-19
6.72483e-19
4.05998e-18
3.578e-18
2.29281e-17
1.41677e-17
8.27767e-17
1.69158e-16
7.24475e-16
1.69395e-15
5.8207e-15
1.59004e-14
4.13643e-14
8.61455e-13
1.94203e-13
1.45012e-10
1.31158e-09
4.16739e-10
1.63804e-09
0
6.19515e-11
3.4375e-11
2.90419e-11
6.70806e-11
7.07308e-11
6.63688e-11
2.49773e-11
2.00071e-12
1.86318e-13
4.6109e-13
-2.32479e-14
3.11849e-12
-3.11714e-12
6.86234e-11
-5.60143e-12
7.71898e-11
-6.34337e-12
8.86427e-12
2.18907e-12
2.67978e-13
1.78071e-12
1.96854e-13
1.06858e-13
1.97603e-13
6.20988e-14
1.96769e-13
6.31238e-14
1.85134e-13
8.27542e-14
9.74272e-11
4.11848e-11
1.17091e-10
1.18317e-10
9.3358e-11
1.45981e-10
2.69669e-11
2.94827e-11
3.66304e-11
1.95998e-11
2.07852e-10
2.30658e-10
1.95724e-10
8.49121e-10
2.50715e-12
2.78426e-10
0
6.92663e-12
5.19686e-14
2.06867e-12
0
3.15843e-14
2.94611e-16
4.89477e-15
3.28745e-16
6.43716e-15
2.06438e-16
1.93009e-15
2.21622e-16
1.77229e-15
2.20741e-16
1.70541e-15
2.11345e-16
1.59852e-15
1.54817e-16
1.22882e-15
8.68366e-17
6.92052e-16
3.77856e-17
2.9097e-16
1.14461e-17
8.95531e-17
1.92339e-18
1.78045e-17
1.41946e-19
1.9948e-18
1.04417e-19
2.30665e-21
1.14397e-20
7.16772e-20
3.93511e-19
8.03276e-19
4.66671e-18
3.71249e-18
2.31722e-17
1.26647e-17
7.47741e-17
9.42363e-17
4.61949e-16
1.17547e-15
1.92508e-15
5.88585e-14
1.33644e-14
9.52312e-11
5.15106e-11
2.65757e-10
1.35126e-09
1.75958e-10
1.10672e-10
0
3.88392e-11
4.8121e-11
7.10831e-11
6.97443e-11
5.44959e-11
8.68641e-11
1.73165e-11
6.72744e-12
-3.27381e-13
7.90244e-12
-4.20879e-12
1.7895e-10
-1.16719e-11
2.02858e-10
-2.18289e-11
1.91081e-10
-1.85611e-11
1.29322e-10
-5.52324e-12
2.48073e-13
8.71092e-12
2.99975e-13
1.09669e-12
2.78533e-13
1.04206e-13
2.58111e-13
7.60627e-14
2.47489e-13
9.16828e-14
1.07737e-10
7.86163e-11
1.06535e-10
1.31851e-10
1.18042e-10
1.52053e-10
2.8092e-11
3.24893e-11
3.90301e-11
2.10468e-11
1.30908e-10
1.98629e-10
1.79644e-10
8.50571e-10
1.18533e-12
1.12624e-10
0
3.09953e-12
4.86701e-14
1.49399e-12
0
2.1825e-14
2.96494e-16
4.76209e-15
5.20453e-16
7.01616e-15
1.46961e-16
1.95765e-15
1.61622e-16
1.77185e-15
1.61178e-16
1.70393e-15
1.55278e-16
1.58447e-15
9.69133e-17
1.03792e-15
4.37314e-17
4.639e-16
1.56001e-17
1.57288e-16
3.82877e-18
3.97332e-17
5.15599e-19
6.5348e-18
3.16244e-20
6.18714e-19
2.86449e-20
2.80244e-21
1.43868e-20
8.91528e-20
4.80556e-19
8.65323e-19
4.76406e-18
3.54633e-18
2.17767e-17
9.71034e-18
5.78466e-17
5.11382e-17
2.73626e-16
1.18153e-15
1.83523e-15
8.37952e-14
1.70274e-14
2.85439e-11
2.4753e-10
2.06284e-10
1.24501e-09
3.49026e-11
2.17773e-11
1.10726e-11
2.70859e-11
7.09683e-11
1.31954e-10
8.43444e-11
4.6588e-11
6.95931e-11
1.91327e-12
1.03851e-11
-2.70324e-12
1.37263e-10
-1.68669e-11
2.03105e-10
-3.99173e-11
2.01006e-10
-4.37516e-11
2.07626e-10
-3.16775e-11
2.17362e-10
-1.3877e-11
1.11746e-10
3.9414e-12
6.79582e-13
5.33119e-12
4.72721e-13
4.55533e-13
4.09981e-13
1.40696e-13
3.64959e-13
1.2862e-13
1.47814e-10
1.3625e-10
1.36754e-10
1.49198e-10
1.05196e-10
1.52639e-10
1.11391e-11
2.43649e-11
1.92246e-11
2.16006e-11
7.85513e-11
1.93877e-10
1.44419e-10
8.3518e-10
0
3.03631e-11
0
7.0574e-13
2.14882e-14
2.14298e-13
0
1.0268e-14
1.58914e-16
4.17432e-15
3.81813e-16
7.30825e-15
8.77117e-17
1.93913e-15
9.91976e-17
1.76888e-15
1.00917e-16
1.69596e-15
9.11417e-17
1.42926e-15
4.29915e-17
7.02517e-16
1.62681e-17
2.47223e-16
4.98242e-18
7.00344e-17
1.02122e-18
1.49061e-17
1.1406e-19
2.06156e-18
5.97864e-21
1.66118e-19
6.52746e-21
3.70327e-21
1.91639e-20
1.07129e-19
5.59963e-19
8.62753e-19
4.68719e-18
3.2001e-18
1.82937e-17
8.94419e-18
5.5797e-17
5.15936e-17
2.73558e-16
1.73979e-15
2.4731e-15
1.3168e-13
2.60118e-14
7.29183e-11
3.04549e-10
1.85501e-10
1.29403e-09
0
8.83713e-11
4.54172e-11
3.04434e-11
7.97744e-11
4.19314e-11
6.16924e-11
2.54877e-11
3.45096e-11
1.04532e-13
8.14947e-11
-1.01802e-11
1.72945e-10
-4.66977e-11
1.8517e-10
-3.44274e-11
1.96017e-10
-3.31369e-11
2.13006e-10
-4.54943e-11
2.18267e-10
-2.18429e-11
2.19654e-10
-4.98217e-13
1.21783e-12
4.88722e-12
3.04551e-12
4.7238e-13
2.25577e-12
1.9509e-13
1.4261e-10
9.93582e-11
1.51298e-10
1.32564e-10
1.41138e-10
1.67304e-10
1.26485e-11
2.45275e-11
1.60658e-11
2.01897e-11
9.2096e-12
2.22301e-11
1.35591e-10
3.69548e-10
4.81686e-11
1.91435e-10
0
5.67765e-12
0
1.45449e-13
1.376e-16
1.27451e-14
1.57795e-17
4.27878e-15
6.57565e-17
3.12131e-15
9.78331e-17
5.00533e-15
2.9495e-17
1.89623e-15
3.42421e-17
1.75975e-15
3.75371e-17
1.598e-15
2.82584e-17
1.00275e-15
1.1268e-17
3.65026e-16
4.02518e-18
1.0813e-16
1.09865e-18
2.6587e-17
1.88618e-19
4.804e-18
1.74181e-20
5.59201e-19
7.56774e-22
3.80919e-20
1.21835e-21
5.00595e-21
2.56924e-20
1.22709e-19
6.26405e-19
8.25259e-19
4.40829e-18
2.76963e-18
1.47103e-17
1.08383e-17
6.10406e-17
1.12111e-16
6.05704e-16
3.05748e-15
5.81864e-15
1.6325e-13
3.35438e-14
6.6077e-11
3.50466e-10
1.97857e-10
1.2963e-09
0
1.27187e-10
2.59687e-11
1.3141e-11
5.48415e-11
2.50418e-11
2.56271e-11
2.46136e-11
6.36359e-11
-2.93946e-12
1.33336e-10
-1.84539e-11
1.56833e-10
-3.24365e-11
4.89288e-11
-2.25024e-11
2.40057e-11
-4.23465e-12
1.45206e-10
-5.59576e-12
1.50591e-10
-2.05415e-11
1.25694e-11
-1.52551e-12
5.52609e-12
1.81683e-12
1.76382e-12
4.84726e-13
7.91672e-11
2.2047e-11
1.57275e-10
1.21556e-10
1.4485e-10
1.5195e-10
1.26224e-10
1.81084e-10
6.92268e-12
1.43123e-11
1.14134e-11
2.09021e-11
1.69383e-11
4.03144e-11
2.84699e-11
4.0094e-10
6.33212e-13
9.4246e-11
0
1.34579e-12
-8.24651e-18
2.67344e-14
-1.67899e-16
3.90441e-15
-5.68189e-17
3.64117e-15
-7.0057e-17
2.32283e-15
-4.38698e-17
2.44749e-15
-3.93905e-17
1.89447e-15
-3.12593e-17
1.71272e-15
-1.55667e-17
1.20797e-15
-3.02832e-18
5.13095e-16
9.94793e-20
1.54325e-16
2.41781e-19
4.0958e-17
7.85476e-20
8.75367e-18
1.22357e-20
1.32946e-18
9.53821e-22
1.29754e-19
3.35413e-23
7.47868e-21
1.90018e-22
6.9203e-21
3.55325e-20
1.38214e-19
7.01078e-19
7.84376e-19
4.29397e-18
2.40532e-18
1.30932e-17
1.45381e-17
7.87679e-17
1.89951e-16
1.18351e-15
2.89818e-15
3.98903e-15
1.73107e-13
3.42776e-14
5.68155e-11
6.57006e-10
2.16115e-10
1.25261e-09
5.09992e-12
1.14463e-10
4.24938e-12
5.10774e-12
4.99683e-11
3.68184e-13
1.18398e-10
3.10539e-11
4.854e-11
-1.6434e-11
8.04964e-11
-3.81072e-11
1.93277e-11
-1.44133e-11
4.60845e-12
-3.28608e-12
6.05849e-12
-2.74951e-12
8.09469e-12
-1.83472e-12
8.09179e-11
-1.05366e-12
7.57017e-11
-1.85308e-12
1.06937e-11
1.94238e-11
2.65181e-12
6.35005e-13
1.35702e-10
1.11722e-10
1.25476e-10
1.32335e-10
1.2495e-10
1.61301e-10
5.88099e-12
1.81074e-11
1.36019e-11
1.38216e-11
1.20255e-11
2.33541e-11
3.47096e-11
3.87105e-10
2.10249e-11
4.13838e-10
4.83486e-14
2.23271e-10
-1.14981e-14
9.88093e-13
-7.42442e-16
7.32422e-15
-2.9446e-16
3.27231e-15
-1.49043e-16
3.6265e-15
-1.41354e-16
2.23593e-15
-1.26148e-16
2.1e-15
-1.10279e-16
1.84859e-15
-7.51216e-17
1.38761e-15
-3.04719e-17
6.47859e-16
-8.34697e-18
2.08747e-16
-1.92217e-18
5.78515e-17
-3.70568e-19
1.37444e-17
-5.4368e-20
2.49187e-18
-5.42321e-21
3.16558e-19
-3.33909e-22
2.64581e-20
-1.28919e-23
1.38745e-21
2.81932e-23
1.02072e-20
5.33541e-20
1.60452e-19
8.25165e-19
8.04134e-19
4.36786e-18
2.46028e-18
1.30424e-17
2.1342e-17
1.13153e-16
3.5424e-16
1.74275e-15
5.16401e-15
2.17388e-15
8.28535e-12
1.07682e-12
1.41637e-10
1.90652e-09
2.44465e-10
1.27917e-09
1.15941e-11
6.07139e-11
4.28964e-12
5.00182e-12
4.71997e-11
5.20886e-12
8.82559e-11
1.57128e-11
9.73859e-11
-1.99741e-11
1.81709e-11
-1.59149e-11
4.32304e-12
-3.2027e-12
4.46373e-12
-2.45261e-12
5.71382e-12
-1.71711e-12
5.79436e-12
-2.00469e-12
1.25956e-11
-3.07933e-12
2.69291e-10
-4.29413e-12
1.69139e-10
5.1953e-11
8.94962e-11
2.37523e-11
1.47816e-10
6.37522e-11
1.34246e-10
1.49156e-10
4.46634e-11
8.48438e-11
0
7.3062e-12
9.56049e-12
1.76531e-11
1.54361e-11
4.77965e-11
2.01967e-11
4.05758e-10
-2.67478e-12
4.46392e-10
-8.26076e-13
2.0218e-10
-7.20354e-15
1.7504e-13
-5.75775e-16
3.62962e-15
-3.53651e-16
2.77531e-15
-2.34227e-16
3.01169e-15
-2.24917e-16
2.21354e-15
-2.03111e-16
2.03711e-15
-1.47572e-16
1.55097e-15
-6.81987e-17
7.92864e-16
-2.16183e-17
2.65718e-16
-5.70494e-18
7.6455e-17
-1.29524e-18
1.95708e-17
-2.33326e-19
3.98958e-18
-3.06624e-20
6.03936e-19
-2.75447e-21
6.58424e-20
-1.60928e-22
5.09502e-21
-4.95392e-24
2.64989e-22
4.17254e-24
1.66512e-20
8.94332e-20
2.01669e-19
1.07702e-18
8.92857e-19
5.01372e-18
2.77639e-18
1.47764e-17
3.05068e-17
1.52761e-16
3.68306e-16
2.06805e-15
2.52463e-16
1.65207e-15
8.85845e-11
1.30268e-11
2.94802e-10
1.51001e-09
1.50965e-10
5.8048e-10
6.72035e-12
1.79084e-11
3.67549e-12
4.76414e-12
4.49537e-11
2.83184e-11
8.29556e-11
7.35344e-12
4.33928e-11
-1.79715e-11
4.98218e-12
-3.46487e-12
4.71961e-12
-2.52569e-12
4.86823e-12
-2.77635e-12
7.02845e-12
-2.64461e-12
7.52114e-12
-2.19751e-12
2.00999e-10
-3.55569e-12
3.47441e-10
6.36225e-13
3.13279e-10
8.22934e-11
0
8.33183e-11
7.74584e-11
5.73254e-12
9.94709e-11
1.3701e-10
0
3.07151e-12
7.46888e-12
6.48573e-12
9.66483e-12
2.30572e-11
9.60248e-12
3.90713e-10
-1.4827e-11
4.43284e-10
-8.88846e-12
4.56771e-10
-1.61159e-13
3.29971e-11
-2.30706e-15
2.17359e-14
-4.74125e-16
2.7321e-15
-3.71603e-16
2.58016e-15
-3.28807e-16
2.41875e-15
-3.03071e-16
2.17764e-15
-2.36036e-16
1.80055e-15
-1.17094e-16
9.52863e-16
-3.9365e-17
3.32059e-16
-1.11508e-17
9.65155e-17
-2.76347e-18
2.60126e-17
-5.5878e-19
5.77406e-18
-8.69725e-20
9.80321e-19
-1.01545e-20
1.2713e-19
-8.69864e-22
1.29064e-20
-4.97998e-23
1.00159e-21
-1.17178e-24
5.15441e-23
5.9581e-25
2.98803e-20
1.63785e-19
2.84093e-19
1.58192e-18
1.13719e-18
6.69338e-18
3.55602e-18
1.94035e-17
4.26521e-17
2.02564e-16
7.10147e-16
2.34999e-15
9.77026e-15
3.38386e-15
5.57768e-11
6.0639e-11
1.95208e-10
7.92285e-10
2.14528e-12
0
4.68357e-12
5.13474e-12
2.40473e-12
4.31478e-12
7.15569e-11
9.49055e-11
9.44941e-11
2.23923e-12
5.94306e-12
-5.40994e-12
4.23013e-12
-2.5417e-12
4.85289e-12
-3.80787e-12
5.2267e-12
-3.32529e-12
1.41422e-11
0
1.42074e-11
-2.27931e-12
2.4112e-10
-5.99999e-12
3.18283e-10
1.62693e-11
2.92611e-10
1.07909e-10
1.64698e-11
9.99806e-11
0
2.74096e-12
3.29272e-11
0
1.44015e-14
2.54599e-12
3.21505e-12
1.4527e-11
3.87039e-12
1.0852e-10
-2.38149e-11
4.24077e-10
-4.00685e-11
4.72634e-10
-2.62984e-11
2.22824e-10