/*--------------------------------*- C++ -*----------------------------------*\
  =========                 |
  \\      /  F ield         | OpenFOAM: The Open Source CFD Toolbox
   \\    /   O peration     | Website:  https://openfoam.org
    \\  /    A nd           | Version:  9
     \\/     M anipulation  |
\*---------------------------------------------------------------------------*/
FoamFile
{
    format      ascii;
    class       volScalarField;
    location    "0.2";
    object      p;
}
// * * * * * * * * * * * * * * * * * * * * * * * * * * * * * * * * * * * * * //

dimensions      [1 -1 -2 0 0 0 0];

internalField   nonuniform List<scalar> 
5000
(
3.81912
3.77239
3.71658
3.64802
3.56084
3.44931
3.30633
3.12118
2.88942
2.56257
1.87713
1.59742
1.00487
21.3232
19.7668
18.8686
17.4926
16.6341
17.4876
19.9478
22.4854
23.899
24.246
23.749
23.0159
22.3399
21.9256
20.7772
17.0363
7.05193
0.934338
1.50605
1.68571
1.84731
2.02157
2.21368
2.41446
2.60662
2.78247
2.94186
3.0871
3.22066
3.3443
3.45918
3.56603
3.66542
3.75787
3.84376
3.92413
3.99675
3.81714
3.77401
3.72341
3.66189
3.58473
3.48849
3.36894
3.21389
3.01713
2.77215
2.08675
1.49385
-4.41006
21.0616
17.0889
17.422
15.9102
14.3135
14.8007
17.3081
20.3502
22.3581
23.1581
22.9047
22.282
21.7208
21.1295
20.3108
17.1561
4.48808
1.21135
1.66335
1.8707
2.02205
2.17078
2.33525
2.51299
2.68702
2.84895
2.99722
3.13307
3.25846
3.37496
3.48358
3.58494
3.67949
3.76765
3.84977
3.92667
3.99716
3.81699
3.77829
3.73364
3.68013
3.61479
3.53606
3.44349
3.32746
3.18012
3.04773
2.58122
2.54263
3.00483
28.7636
14.517
14.8893
13.8844
11.7657
11.9112
14.5323
18.3031
21.2487
22.9021
23.2871
23.1172
22.8975
22.5714
22.3326
19.5992
3.70347
1.77415
1.97686
2.12103
2.20891
2.32378
2.46297
2.61722
2.77206
2.91925
3.05581
3.18192
3.29891
3.40803
3.51008
3.60558
3.6949
3.77843
3.85648
3.92965
3.99796
3.81938
3.7852
3.74653
3.70169
3.64931
3.58933
3.52481
3.45236
3.36507
3.35352
3.23303
3.54807
5.42954
11.3451
7.93412
11.3258
11.564
9.64118
9.42644
12.2082
16.8296
20.912
23.7094
25.1049
25.8264
26.4072
26.9479
28.1284
23.3844
3.06648
2.07165
2.22378
2.30985
2.37547
2.46783
2.58489
2.71816
2.85588
2.98945
3.11491
3.23168
3.34055
3.44244
3.538
3.62768
3.7118
3.79069
3.86462
3.93386
3.99881
3.82384
3.794
3.76135
3.72521
3.68564
3.64406
3.6062
3.57543
3.54669
3.61734
3.72183
3.93349
4.93104
0.996003
12.3952
11.4153
10.1092
8.96895
8.34701
11.2005
16.5203
21.5693
25.3855
27.8559
29.8003
31.6189
33.3847
37.336
21.4114
2.34916
2.20649
2.34021
2.45903
2.51792
2.58959
2.692
2.8103
2.93462
3.05664
3.17228
3.28053
3.38183
3.47687
3.56622
3.65029
3.72936
3.80372
3.8736
3.93926
4.00134
3.82909
3.80351
3.77679
3.74897
3.72134
3.69658
3.68182
3.68547
3.70441
3.81646
4.02114
4.11862
4.68981
4.27224
15.3278
15.9607
10.5353
10.167
9.69152
12.2796
17.7143
23.152
27.3616
30.3778
33.1492
35.6309
37.4181
38.2147
10.2172
2.14979
2.41229
2.50748
2.56918
2.6282
2.69823
2.78803
2.89483
3.00792
3.11992
3.22676
3.32719
3.42139
3.50993
3.59334
3.67197
3.74608
3.81588
3.88157
3.94349
4.00233
3.83467
3.81313
3.79192
3.77166
3.75457
3.74413
3.74784
3.77658
3.82858
3.95685
4.17099
4.27527
4.59913
4.75808
3.18015
12.6021
12.3699
13.2201
13.4851
15.6914
20.1966
24.9886
29.0405
31.9105
34.6303
36.4367
35.9709
18.4008
3.10494
2.59304
2.63717
2.67537
2.7016
2.75611
2.81012
2.88343
2.97647
3.07781
3.1799
3.27818
3.37109
3.45855
3.54098
3.61878
3.69226
3.7616
3.82697
3.88848
3.94645
4.00175
3.84023
3.8223
3.80587
3.7921
3.78375
3.78466
3.80215
3.84747
3.91925
4.05273
4.24871
4.35199
4.55976
4.86596
4.13769
9.58024
15.6526
18.0731
19.6412
20.75
22.8874
26.3518
29.8677
32.5413
35.5625
29.7208
14.8599
3.70124
2.80429
2.86185
2.88807
2.86331
2.85422
2.87495
2.91358
2.97369
3.05215
3.14216
3.23522
3.32528
3.41118
3.49251
3.56943
3.64222
3.71109
3.77618
3.8376
3.89536
3.9497
4.00322
3.84534
3.83049
3.81799
3.80945
3.80787
3.81715
3.84409
3.89922
3.98082
4.11181
4.28422
4.38479
4.51931
4.78043
4.96775
4.69335
8.30041
19.1781
29.3723
28.6932
26.0205
27.3664
29.1572
24.6568
14.2249
6.08011
3.58172
3.11652
3.0397
2.97969
3.18473
3.00016
2.98872
2.97743
3.00062
3.04736
3.11582
3.19677
3.28174
3.36546
3.44578
3.52207
3.59439
3.66293
3.72785
3.78928
3.84731
3.90182
3.95273
4.00293
3.84967
3.8373
3.82784
3.82318
3.8264
3.84134
3.87399
3.93403
4.02
4.14527
4.29485
4.38826
4.46417
4.64851
4.63136
4.39031
4.22195
5.85511
12.0679
20.0108
17.0585
12.0824
7.42985
4.22012
3.55601
3.1711
3.09936
3.11888
3.09091
3.04575
3.29657
3.19626
3.05632
3.03552
3.05382
3.09579
3.16018
3.23711
3.3178
3.39744
3.47385
3.54641
3.61516
3.6803
3.74198
3.80033
3.85547
3.90724
3.95536
4.00119
3.853
3.84245
3.83512
3.83301
3.83915
3.85735
3.8926
3.95365
4.04056
4.15689
4.29146
4.37897
4.41598
4.4763
4.40956
4.2542
4.12385
3.92933
3.72972
3.62369
3.45839
3.35847
3.28453
3.25138
3.19876
3.14045
3.12436
3.12636
3.11812
3.10086
3.15926
3.31944
2.99736
3.01974
3.05749
3.11258
3.18398
3.26303
3.34337
3.42143
3.49564
3.56573
3.63189
3.69443
3.75354
3.80937
3.86202
3.91139
3.95714
3.99951
3.85518
3.84574
3.83967
3.83879
3.8461
3.86536
3.90049
3.95906
4.04294
4.15009
4.27936
4.35314
4.32751
4.35089
4.27798
4.1608
4.01585
3.84004
3.66241
3.50457
3.39378
3.32229
3.26982
3.23313
3.20614
3.18231
3.16388
3.15076
3.14205
3.12366
3.10803
3.41258
3.0146
3.03318
3.07301
3.13201
3.2052
3.28461
3.3643
3.44098
3.5134
3.58147
3.64555
3.70596
3.76297
3.81674
3.86732
3.91457
3.95821
3.99804
3.85615
3.84712
3.84144
3.8406
3.84745
3.86571
3.89841
3.95184
4.02992
4.12216
4.24261
4.2648
4.22373
4.24337
4.17075
4.06462
3.93209
3.78135
3.62791
3.48738
3.38583
3.31835
3.26785
3.23452
3.21446
3.19762
3.18174
3.1721
3.16321
3.14371
3.12359
3.23779
3.06338
3.07635
3.11053
3.16484
3.23332
3.30891
3.38541
3.45928
3.5292
3.59503
3.65703
3.71551
3.7707
3.82273
3.87157
3.91696
3.95866
3.99651
3.85597
3.8467
3.84056
3.83869
3.84365
3.85903
3.88733
3.93364
4.00294
4.08424
4.18185
4.18795
4.13868
4.14401
4.06059
3.97049
3.85643
3.72685
3.59187
3.46497
3.37026
3.30489
3.25649
3.22444
3.20509
3.1926
3.18552
3.18337
3.18076
3.17029
3.15554
3.14177
3.13448
3.11748
3.14801
3.1978
3.26162
3.3327
3.40519
3.47568
3.5428
3.60631
3.66633
3.72309
3.77674
3.82733
3.8747
3.91849
3.95853
3.99478
3.85473
3.84467
3.83728
3.83338
3.83522
3.84604
3.86807
3.90534
3.96315
4.03815
4.12726
4.10445
4.05769
4.03752
3.96975
3.88446
3.78323
3.66832
3.54753
3.43191
3.34272
3.2795
3.23287
3.20195
3.18435
3.17643
3.17617
3.18168
3.18856
3.19067
3.18629
3.17031
3.19249
3.14698
3.17658
3.22322
3.28359
3.35092
3.42
3.48761
3.55242
3.61406
3.67257
3.72806
3.78061
3.83014
3.87637
3.91891
3.95767
3.99283
3.85259
3.84127
3.8319
3.8251
3.82271
3.82747
3.84138
3.86744
3.91019
3.9713
4.05235
3.98979
3.97289
3.94082
3.8815
3.80253
3.71077
3.60676
3.49664
3.3897
3.30489
3.24349
3.19804
3.16807
3.15198
3.14704
3.15151
3.17012
3.17739
3.18958
3.19102
3.20378
3.20698
3.17385
3.19768
3.24051
3.29725
3.36137
3.42777
3.49331
3.55657
3.6171
3.67481
3.72971
3.78176
3.83074
3.87629
3.91804
3.95608
3.99071
3.84975
3.83678
3.82486
3.8144
3.80683
3.8043
3.80837
3.82144
3.84875
3.90257
3.95211
3.91168
3.88634
3.8494
3.79689
3.72838
3.6388
3.5432
3.44094
3.33992
3.25769
3.19685
3.15134
3.12127
3.10551
3.10194
3.11028
3.13272
3.14289
3.16502
3.17644
3.19419
3.20004
3.16774
3.19618
3.24073
3.29737
3.36074
3.42629
3.49118
3.55407
3.61449
3.67229
3.72739
3.77962
3.82866
3.87407
3.91563
3.95361
3.98839
3.84643
3.83157
3.81668
3.80197
3.78846
3.77766
3.77046
3.76879
3.77953
3.81827
3.86582
3.81597
3.79552
3.76029
3.71294
3.64465
3.56795
3.4784
3.38115
3.28322
3.20128
3.13909
3.09166
3.05987
3.04281
3.03852
3.04544
3.06869
3.08233
3.11152
3.12753
3.14493
3.16068
3.13976
3.17101
3.22038
3.28063
3.34646
3.41364
3.47975
3.54376
3.60529
3.6642
3.72037
3.77352
3.82326
3.8692
3.91131
3.95006
3.9858
3.84293
3.82597
3.80788
3.78856
3.76857
3.74878
3.7291
3.71063
3.70204
3.72524
3.75161
3.71778
3.70127
3.67121
3.62943
3.5698
3.49845
3.41271
3.31806
3.22045
3.13596
3.06994
3.01826
2.98279
2.96256
2.9558
2.95989
2.98049
2.99706
3.02734
3.04501
3.05884
3.09982
3.0825
3.12358
3.18113
3.24808
3.31889
3.38974
3.45874
3.5252
3.58895
3.64991
3.70794
3.76269
3.81376
3.86089
3.90428
3.94461
3.98234
3.83954
3.8204
3.79901
3.77494
3.7482
3.71899
3.68601
3.64915
3.62039
3.62956
3.61475
3.61988
3.60991
3.58523
3.55011
3.49775
3.43054
3.34636
3.25263
3.1522
3.06357
2.98961
2.93065
2.88942
2.86386
2.85297
2.85315
2.87056
2.88528
2.91438
2.93564
2.95221
3.01808
2.99989
3.05682
3.12619
3.20248
3.28006
3.3559
3.42881
3.49858
3.56529
3.629
3.68959
3.74676
3.80022
3.8499
3.89611
3.93926
3.97928
3.8366
3.81528
3.79065
3.76192
3.7285
3.68978
3.64333
3.58734
3.53795
3.53803
3.51479
3.52723
3.52038
3.50488
3.47338
3.4296
3.36222
3.28011
3.18074
3.07472
2.97973
2.90143
2.8289
2.77925
2.74608
2.72991
2.72632
2.73716
2.75357
2.7771
2.80608
2.82747
2.91681
2.9053
2.97831
3.06127
3.14785
3.23274
3.31391
3.39089
3.46397
3.53353
3.59978
3.66272
3.72224
3.77836
3.83134
3.88173
3.92995
3.97552
3.83447
3.81109
3.78344
3.75036
3.71063
3.66283
3.6036
3.52999
3.46432
3.44326
3.43248
3.43954
3.44117
3.43043
3.41172
3.36456
3.30118
3.21236
3.10581
2.99254
2.8874
2.79676
2.71285
2.65318
2.60951
2.58425
2.57644
2.58151
2.59359
2.62515
2.65712
2.69724
2.77296
2.80778
2.89646
2.99277
3.08879
3.18024
3.26597
3.34621
3.42165
3.49289
3.56031
3.62421
3.68494
3.74312
3.79961
3.85552
3.91178
3.96806
3.83346
3.80829
3.77801
3.74109
3.69581
3.63985
3.56926
3.48087
3.39913
3.36374
3.35078
3.36137
3.36708
3.37081
3.35118
3.30474
3.2401
3.14158
3.03504
2.90947
2.78885
2.68043
2.58864
2.51218
2.45556
2.42083
2.40386
2.40515
2.42291
2.45681
2.49897
2.56494
2.62531
2.71438
2.81776
2.92573
3.02946
3.12593
3.21479
3.29678
3.37281
3.44358
3.50961
3.57151
3.63025
3.68724
3.74442
3.80446
3.8708
3.94737
3.83386
3.80731
3.77494
3.73491
3.68505
3.62227
3.54187
3.44082
3.34443
3.29959
3.27868
3.29629
3.30734
3.31219
3.29854
3.2521
3.17639
3.08155
2.96512
2.82669
2.68953
2.56489
2.45442
2.36261
2.28799
2.24622
2.2207
2.2197
2.24596
2.28615
2.34278
2.43126
2.51311
2.62603
2.74577
2.86388
2.97356
3.0733
3.16358
3.2455
3.31995
3.38746
3.4484
3.50314
3.55206
3.59535
3.63279
3.66369
3.68601
3.69284
3.83591
3.80848
3.77472
3.73247
3.67923
3.61128
3.52307
3.41156
3.3041
3.24667
3.22679
3.24442
3.2607
3.26765
3.25585
3.20522
3.13066
3.02818
2.89988
2.74633
2.59333
2.45925
2.32109
2.20851
2.12554
2.07186
2.04214
2.0441
2.07472
2.12824
2.20876
2.31043
2.42291
2.55384
2.68685
2.8121
2.92527
3.02628
3.11634
3.19675
3.26842
3.33198
3.38805
3.43732
3.48053
3.51828
3.55106
3.57978
3.60515
3.62506
3.83976
3.81206
3.77768
3.73425
3.67903
3.60793
3.51472
3.39735
3.29027
3.21451
3.19745
3.20999
3.22858
3.23728
3.22156
3.17339
3.09392
2.98263
2.84179
2.6731
2.50373
2.35813
2.20414
2.06008
1.97301
1.91589
1.88287
1.8916
1.92974
1.99666
2.1032
2.22435
2.36311
2.50804
2.64769
2.77535
2.88859
2.98845
3.07649
3.15409
3.2223
3.28206
3.33439
3.38041
3.42113
3.45733
3.48971
3.51937
3.54686
3.56943
3.84553
3.81819
3.78403
3.74057
3.68495
3.61302
3.51785
3.39792
3.29276
3.19763
3.18757
3.19563
3.21482
3.22438
3.20459
3.15433
3.06821
2.94714
2.79387
2.61169
2.43036
2.26576
2.09999
1.94644
1.85729
1.79163
1.76446
1.77856
1.82947
1.91939
2.04112
2.18403
2.338
2.48991
2.63044
2.75579
2.86566
2.96178
3.04581
3.11917
3.1831
3.23887
3.28776
3.33101
3.36964
3.40429
3.43559
3.46461
3.49177
3.51425
3.85328
3.82694
3.79385
3.75155
3.69726
3.62703
3.53369
3.41694
3.30694
3.22248
3.19994
3.20413
3.22261
3.22911
3.20583
3.1494
3.0552
2.92335
2.75907
2.56527
2.37309
2.20032
2.03047
1.87078
1.77837
1.7201
1.69898
1.7221
1.78695
1.90037
2.03775
2.19163
2.3499
2.49934
2.63442
2.75316
2.85657
2.94652
3.02464
3.09242
3.15133
3.20277
3.24809
3.28843
3.32464
3.3572
3.38663
3.414
3.43962
3.46063
3.86298
3.83826
3.80709
3.76716
3.71587
3.64981
3.56204
3.45188
3.33908
3.26671
3.23653
3.23613
3.25094
3.24851
3.22313
3.15958
3.05839
2.9137
2.73955
2.53852
2.33768
2.16822
1.99232
1.84712
1.75594
1.7038
1.69419
1.73024
1.82361
1.94222
2.08527
2.24108
2.39286
2.53279
2.65723
2.76587
2.86024
2.94199
3.01273
3.07403
3.12742
3.17429
3.21583
3.25298
3.28637
3.31637
3.34338
3.36839
3.39166
3.41058
3.87454
3.85203
3.82358
3.78712
3.74031
3.68064
3.6012
3.50209
3.39811
3.32849
3.29477
3.28919
3.29735
3.28885
3.25587
3.18461
3.0827
2.93824
2.73839
2.53648
2.33396
2.16607
1.99569
1.87242
1.79066
1.74985
1.75473
1.81549
1.90882
2.03222
2.17554
2.32125
2.45948
2.58475
2.69518
2.79143
2.87493
2.94717
3.00973
3.06413
3.11181
3.15398
3.19155
3.22522
3.2555
3.28268
3.30705
3.32939
3.35003
3.36695
3.8878
3.86802
3.84303
3.81105
3.76978
3.71888
3.64986
3.56383
3.47284
3.40643
3.37281
3.36166
3.36187
3.34535
3.30301
3.22545
3.11054
2.95435
2.76029
2.55944
2.36507
2.20458
2.04926
1.94592
1.87975
1.85471
1.87928
1.94719
2.03941
2.16116
2.29211
2.42122
2.54139
2.64919
2.74406
2.82682
2.89867
2.96099
3.01522
3.06274
3.10474
3.14213
3.17559
3.20562
3.23262
3.25689
3.27864
3.2984
3.31649
3.33178
3.90253
3.88594
3.86506
3.83851
3.80468
3.76199
3.70569
3.63526
3.55984
3.50159
3.46838
3.45206
3.44396
3.41724
3.36351
3.27986
3.15176
2.98692
2.80159
2.60414
2.43908
2.27996
2.14587
2.06302
2.01553
2.00724
2.04523
2.10625
2.19996
2.30873
2.42163
2.53067
2.631
2.72079
2.79996
2.86922
2.92959
2.98228
3.02853
3.06942
3.10584
3.13844
3.1677
3.19399
3.21764
3.23893
3.25807
3.27536
3.29109
3.30482
3.91846
3.90544
3.88917
3.86866
3.84272
3.80991
3.76719
3.71436
3.65613
3.60904
3.57811
3.55776
3.54046
3.50206
3.4361
3.34267
3.20181
3.04079
2.85928
2.67319
2.51873
2.38335
2.27763
2.21541
2.18496
2.18971
2.22438
2.28762
2.3696
2.46089
2.55349
2.64178
2.72278
2.79544
2.85979
2.91637
2.96605
3.00983
3.04863
3.08323
3.11422
3.14205
3.16706
3.18955
3.20977
3.228
3.24441
3.25917
3.27254
3.28448
3.93525
3.92608
3.91478
3.90072
3.88311
3.86104
3.83262
3.79797
3.75841
3.72456
3.69829
3.67598
3.64834
3.59787
3.52212
3.41647
3.26998
3.1053
2.93246
2.76143
2.61988
2.51149
2.4336
2.38903
2.37194
2.38109
2.41507
2.46898
2.53568
2.60814
2.6807
2.74966
2.81312
2.87035
2.92136
2.96659
3.00671
3.04242
3.07436
3.10301
3.12876
3.15191
3.1727
3.19137
3.20814
3.22324
3.23678
3.24886
3.25971
3.26955
3.95257
3.94741
3.94128
3.93388
3.92484
3.91382
3.89995
3.88347
3.86333
3.84413
3.82421
3.80084
3.76377
3.70284
3.6211
3.49706
3.34436
3.18148
3.01806
2.86424
2.74261
2.65661
2.59982
2.56942
2.56018
2.57026
2.59808
2.63991
2.69058
2.7451
2.79965
2.85173
2.89999
2.94387
2.98335
3.01873
3.05046
3.07896
3.10462
3.12771
3.14847
3.16711
3.1838
3.19873
3.21208
3.22405
3.2347
3.24399
3.25221
3.25979
3.97006
3.96897
3.96806
3.96732
3.96683
3.9668
3.96721
3.96865
3.96766
3.96369
3.95116
3.92674
3.88285
3.81129
3.71601
3.57537
3.42517
3.26389
3.11167
2.9763
2.87429
2.80735
2.76625
2.74517
2.73898
2.74615
2.76566
2.79504
2.83085
2.86972
2.90904
2.94701
2.98257
3.01527
3.04503
3.07201
3.09644
3.11854
3.13848
3.15642
3.17251
3.1869
3.1997
3.21105
3.22111
3.23005
3.23787
3.24443
3.25003
3.25541
3.98734
3.99028
3.99447
4.00023
4.00804
4.01866
4.0328
4.0511
4.06868
4.07981
4.07527
4.05041
3.99961
3.91744
3.81248
3.66404
3.50884
3.35029
3.20887
3.0917
3.00812
2.95635
2.92556
2.90894
2.902
2.90403
2.91478
2.93287
2.95609
2.98212
3.00907
3.03558
3.0608
3.08433
3.10601
3.12587
3.14397
3.16037
3.17516
3.1884
3.2002
3.21064
3.21982
3.22782
3.23478
3.24086
3.24602
3.25
3.25312
3.25643
4.00408
4.01086
4.01992
4.03185
4.04752
4.06817
4.09511
4.12883
4.16395
4.18961
4.19354
4.16928
4.11215
4.02202
3.90303
3.75189
3.59187
3.43684
3.30712
3.20506
3.13787
3.09727
3.07253
3.05681
3.04692
3.04312
3.04587
3.05454
3.06764
3.08349
3.10065
3.11805
3.13499
3.15105
3.16604
3.17986
3.19247
3.20385
3.21403
3.22303
3.23092
3.23776
3.2436
3.24852
3.25261
3.25605
3.25875
3.26034
3.26118
3.26261
4.01993
4.0303
4.04386
4.06149
4.08441
4.11425
4.15281
4.2006
4.25146
4.29088
4.30392
4.28104
4.21984
4.12259
3.99756
3.83807
3.67165
3.51909
3.40356
3.31218
3.25871
3.22607
3.20436
3.18754
3.17398
3.16478
3.16092
3.16215
3.1674
3.17538
3.18495
3.19521
3.20554
3.21554
3.22496
3.23363
3.24148
3.24846
3.25454
3.25975
3.26412
3.2677
3.27053
3.27263
3.27411
3.27512
3.27557
3.27499
3.27373
3.27341
4.03459
4.04819
4.0658
4.08855
4.11796
4.15592
4.2047
4.26485
4.32968
4.38191
4.4046
4.38515
4.31975
4.21928
4.08876
3.91577
3.74496
3.59493
3.48901
3.41355
3.368
3.34081
3.32039
3.30177
3.28481
3.27127
3.26234
3.25797
3.25732
3.25934
3.26308
3.26776
3.27282
3.27787
3.28263
3.28692
3.29066
3.29377
3.29625
3.2981
3.29933
3.29999
3.30008
3.29964
3.29875
3.29758
3.29598
3.29343
3.29029
3.28841
4.04776
4.06419
4.08534
4.11252
4.1475
4.19235
4.24977
4.32037
4.39715
4.46073
4.49349
4.47789
4.41355
4.31083
4.16606
3.98661
3.81142
3.66291
3.57403
3.50099
3.4648
3.44134
3.42149
3.40123
3.38171
3.36504
3.35251
3.34411
3.33915
3.33672
3.33601
3.33633
3.33717
3.33814
3.33899
3.33955
3.33973
3.33949
3.3388
3.33767
3.33611
3.33415
3.33181
3.32909
3.32607
3.32293
3.31951
3.31522
3.31042
3.30718
4.05922
4.078
4.1021
4.13294
4.17252
4.22279
4.28716
4.36617
4.45272
4.52523
4.56932
4.55669
4.49682
4.40183
4.24716
4.06182
3.8714
3.72216
3.6412
3.57836
3.54837
3.52861
3.50935
3.48811
3.46703
3.44841
3.43353
3.42238
3.41434
3.40864
3.40455
3.40145
3.39888
3.39648
3.39404
3.39141
3.38853
3.38536
3.3819
3.37814
3.3741
3.36981
3.36528
3.36051
3.35557
3.35062
3.34555
3.3397
3.3334
3.32884
4.06876
4.08938
4.11574
4.14945
4.19266
4.24657
4.31618
4.40143
4.49564
4.57755
4.62693
4.62208
4.56422
4.46883
4.30309
4.10159
3.92221
3.77661
3.69983
3.65166
3.62173
3.60449
3.58605
3.56463
3.54296
3.5234
3.50716
3.49425
3.4841
3.47602
3.46936
3.46357
3.45823
3.45305
3.44784
3.44249
3.43697
3.43126
3.42536
3.41926
3.413
3.40661
3.40008
3.39342
3.3867
3.38008
3.37343
3.36612
3.35842
3.35259
4.07625
4.09816
4.12606
4.16161
4.20686
4.26404
4.33666
4.4257
4.52427
4.61265
4.66834
4.66904
4.61474
4.51785
4.34415
4.14733
3.96316
3.82069
3.74994
3.71142
3.68617
3.67105
3.65369
3.63283
3.61135
3.59166
3.57485
3.56092
3.54939
3.53962
3.53103
3.52312
3.51554
3.50804
3.5005
3.49284
3.48504
3.47711
3.46904
3.46086
3.45259
3.44427
3.43591
3.4275
3.41911
3.41091
3.40279
3.39409
3.38507
3.37804
4.0816
4.10422
4.13295
4.1694
4.21563
4.27409
4.34781
4.43816
4.53875
4.63155
4.6918
4.69879
4.649
4.55443
4.37346
4.18132
3.99315
3.85484
3.7893
3.75598
3.74159
3.72949
3.71392
3.69433
3.67374
3.65455
3.63776
3.6234
3.61104
3.6001
3.59006
3.58049
3.5711
3.5617
3.5522
3.54257
3.5328
3.52292
3.51293
3.50287
3.49277
3.48267
3.47259
3.46252
3.45253
3.44278
3.43319
3.42315
3.41284
3.40454
4.08477
4.10752
4.13633
4.17275
4.21874
4.27676
4.34965
4.43894
4.53909
4.63369
4.69829
4.71136
4.67267
4.57115
4.40316
4.20513
4.01478
3.87836
3.82495
3.79114
3.78881
3.7809
3.76803
3.75045
3.73138
3.7132
3.69688
3.68251
3.66972
3.65802
3.64692
3.63607
3.62522
3.61427
3.60314
3.59183
3.58037
3.56878
3.55708
3.54532
3.53352
3.52173
3.50999
3.4983
3.4867
3.47534
3.46418
3.45269
3.441
3.43119
4.08583
4.10807
4.13623
4.17165
4.21622
4.27224
4.34239
4.4283
4.52552
4.61959
4.68671
4.70651
4.67589
4.58641
4.41702
4.21958
4.02956
3.89607
3.84561
3.82662
3.8292
3.82666
3.81735
3.80243
3.78536
3.76855
3.75301
3.73895
3.72605
3.71388
3.70203
3.6902
3.67822
3.66601
3.65354
3.64083
3.62793
3.61485
3.60163
3.58832
3.57495
3.56157
3.54821
3.53489
3.52165
3.50862
3.49579
3.48266
3.46938
3.45786
4.08475
4.10603
4.13276
4.16628
4.20827
4.26084
4.3264
4.40671
4.49855
4.59007
4.65857
4.68776
4.67468
4.58662
4.41895
4.22626
4.03898
3.9095
3.86373
3.8573
3.86557
3.86863
3.86339
3.85151
3.83672
3.82146
3.8069
3.79333
3.78052
3.76812
3.75576
3.74322
3.73036
3.71716
3.70362
3.68978
3.67568
3.66135
3.64683
3.63216
3.61738
3.60254
3.58765
3.57274
3.55785
3.54313
3.52857
3.51369
3.49865
3.48533
4.08173
4.10147
4.12611
4.15689
4.19524
4.24299
4.30225
4.3749
4.45913
4.54585
4.61391
4.65149
4.6451
4.56738
4.41044
4.22632
4.04434
3.92644
3.8801
3.88408
3.90015
3.90868
3.90765
3.89887
3.88638
3.8727
3.85918
3.84619
3.8336
3.8211
3.80842
3.79537
3.78187
3.76793
3.75357
3.73886
3.72384
3.70853
3.69298
3.6772
3.66123
3.6451
3.62883
3.61241
3.59591
3.5795
3.56319
3.54651
3.52959
3.51442
4.0769
4.09459
4.11658
4.14385
4.1776
4.21929
4.27071
4.33381
4.40837
4.48802
4.55338
4.59864
4.59702
4.52491
4.3928
4.22041
4.04839
3.93872
3.89773
3.91486
3.93495
3.94846
3.95135
3.94549
3.93512
3.92292
3.91038
3.89796
3.88563
3.87313
3.86025
3.84684
3.83288
3.81841
3.80349
3.78818
3.77252
3.75655
3.74029
3.72374
3.70691
3.68978
3.67237
3.65463
3.63662
3.61852
3.60037
3.58172
3.56269
3.54536
4.07045
4.08567
4.10448
4.1276
4.15591
4.19048
4.23269
4.28462
4.3477
4.41862
4.48063
4.54117
4.53391
4.49045
4.3641
4.20442
4.0475
3.94537
3.91629
3.94319
3.97129
3.989
3.99526
3.99203
3.98352
3.97263
3.96093
3.94901
3.93689
3.92441
3.91138
3.89772
3.88344
3.86861
3.85333
3.83767
3.8217
3.80543
3.78888
3.77203
3.75483
3.73723
3.71917
3.70055
3.68134
3.66166
3.64152
3.62049
3.59863
3.57809
4.06262
4.07502
4.09021
4.10863
4.13082
4.15736
4.18922
4.22857
4.27866
4.3397
4.39868
4.43713
4.44962
4.41402
4.31941
4.17886
4.03623
3.94636
3.93578
3.97269
4.00792
4.03002
4.03959
4.03884
4.03198
4.02217
4.01113
3.99955
3.98756
3.97504
3.96185
3.94797
3.93344
3.91837
3.90289
3.88711
3.8711
3.85492
3.83857
3.82204
3.80525
3.7881
3.77044
3.75207
3.73274
3.71232
3.69054
3.66666
3.64038
3.61354
4.05365
4.06297
4.0742
4.08751
4.10304
4.12084
4.14141
4.16696
4.20245
4.25173
4.30486
4.34308
4.35668
4.35029
4.25927
4.14143
4.02455
3.95206
3.94754
4.00415
4.04186
4.0706
4.08427
4.08611
4.08075
4.07181
4.0612
4.04977
4.03774
4.02505
4.01163
3.99747
3.98267
3.96738
3.95176
3.93597
3.92012
3.90431
3.88862
3.87305
3.85762
3.84226
3.82686
3.81119
3.79489
3.77745
3.7579
3.73426
3.70379
3.66321
4.04383
4.04988
4.05693
4.06484
4.0733
4.08185
4.09041
4.10109
4.12022
4.15506
4.19801
4.23159
4.25046
4.25128
4.20123
4.09333
4.00379
3.95338
3.96099
4.02817
4.08512
4.11244
4.12965
4.13408
4.13006
4.12174
4.11129
4.09975
4.08745
4.0744
4.06058
4.04602
4.03084
4.01523
3.99938
3.98351
3.96778
3.95236
3.93741
3.92305
3.90944
3.89678
3.88531
3.87536
3.86744
3.86243
3.86156
3.86629
3.87919
3.90614
4.03345
4.03614
4.03887
4.04122
4.0424
4.0414
4.0375
4.03253
4.03371
4.0512
4.0807
4.10506
4.12021
4.12754
4.10099
4.0295
3.97319
3.94637
3.97391
4.04322
4.12515
4.15523
4.17592
4.18293
4.18012
4.17211
4.16148
4.14952
4.13666
4.123
4.10855
4.09337
4.0776
4.06145
4.04514
4.02891
4.01298
3.99754
3.98279
3.9689
3.95609
3.94456
3.93458
3.92638
3.92025
3.91656
3.91554
3.91684
3.91968
3.92424
4.02282
4.02213
4.02053
4.01728
4.01116
4.00056
3.98409
3.9631
3.94523
3.94354
3.95676
3.97196
3.98264
3.98859
3.97712
3.95505
3.93052
3.93236
3.98045
4.06652
4.14583
4.19707
4.22329
4.23284
4.23103
4.22297
4.21179
4.19904
4.1853
4.17073
4.15537
4.13929
4.12264
4.10564
4.08853
4.07154
4.0549
4.0388
4.02341
4.00891
3.99541
3.98306
3.97197
3.96218
3.95373
3.94668
3.94098
3.9361
3.9313
3.92714
4.01227
4.00825
4.0024
3.99366
3.98038
3.96041
3.93167
3.89491
3.85729
3.83563
3.83163
3.84069
3.83476
3.84707
3.8525
3.86554
3.8746
3.90651
3.98012
4.08679
4.17819
4.23843
4.27162
4.28368
4.28263
4.27422
4.26214
4.24825
4.23328
4.21746
4.20086
4.18357
4.16572
4.14754
4.12925
4.11107
4.09322
4.07586
4.05915
4.04319
4.02804
4.01378
4.0004
3.98789
3.97622
3.96538
3.9554
3.94591
3.93645
3.92795
4.0021
3.99488
3.98496
3.97097
3.95087
3.92196
3.88157
3.83043
3.77208
3.73021
3.70692
3.70102
3.68941
3.70585
3.72566
3.76384
3.80337
3.86789
3.96908
4.09891
4.20726
4.27856
4.31889
4.33448
4.33441
4.32557
4.31236
4.29699
4.28044
4.26302
4.24485
4.22602
4.20666
4.18697
4.16716
4.14744
4.128
4.10899
4.09053
4.07269
4.05551
4.03902
4.02321
4.00805
3.99349
3.97956
3.96627
3.95329
3.94009
3.92766
3.99261
3.9824
3.96866
3.94979
3.92337
3.88621
3.83493
3.76896
3.69464
3.63097
3.58687
3.58084
3.557
3.56499
3.59674
3.6514
3.71589
3.81081
3.9434
4.09967
4.22863
4.31398
4.36366
4.38419
4.38578
4.37671
4.36221
4.34508
4.3266
4.30724
4.28717
4.26649
4.24532
4.22384
4.20224
4.18072
4.15943
4.13853
4.1181
4.09822
4.07893
4.06023
4.04215
4.02465
4.0077
3.99133
3.97552
3.95993
3.94383
3.92763
3.98405
3.97112
3.95393
3.93065
3.89858
3.85408
3.79324
3.71476
3.62513
3.54246
3.4806
3.45997
3.42975
3.42863
3.46433
3.52839
3.61273
3.7383
3.90239
4.08594
4.23913
4.34216
4.40422
4.43174
4.43614
4.42719
4.41139
4.39227
4.37154
4.34991
4.32763
4.30482
4.28158
4.25808
4.23448
4.21096
4.18767
4.16472
4.14221
4.1202
4.0987
4.07774
4.0573
4.03735
4.01786
3.99884
3.98035
3.96218
3.94384
3.92611
3.97666
3.96135
3.94113
3.91402
3.87708
3.82635
3.75748
3.66861
3.56574
3.46668
3.38964
3.33079
3.30639
3.29549
3.32713
3.3938
3.50034
3.64931
3.84408
4.05391
4.23538
4.35991
4.43819
4.47568
4.48456
4.47645
4.45949
4.43825
4.41503
4.39083
4.36605
4.34084
4.31532
4.28961
4.26387
4.23823
4.21285
4.1878
4.16319
4.13906
4.11543
4.09232
4.06972
4.04765
4.02608
4.00506
3.98468
3.96479
3.94485
3.92544
3.97063
3.95331
3.93055
3.90025
3.85932
3.80356
3.72828
3.63105
3.51711
3.40334
3.31043
3.23645
3.18342
3.16114
3.18907
3.26958
3.38496
3.5474
3.7622
4.00549
4.21533
4.3642
4.46295
4.51412
4.52984
4.52374
4.50602
4.48266
4.45676
4.42974
4.4022
4.37437
4.34638
4.31833
4.29035
4.26255
4.23506
4.20796
4.18132
4.1552
4.12962
4.1046
4.08016
4.0563
4.03303
4.01036
3.98837
3.96692
3.94545
3.92449
3.96611
3.9472
3.92243
3.88964
3.84563
3.78608
3.70606
3.6025
3.47968
3.35336
3.24456
3.15947
3.09394
3.0633
3.07037
3.1515
3.2719
3.44835
3.673
3.9411
4.17661
4.35303
4.47597
4.54486
4.57046
4.56808
4.55033
4.52502
4.49633
4.4663
4.4358
4.40517
4.37457
4.34409
4.31383
4.28388
4.25432
4.22524
4.1967
4.16874
4.14139
4.11467
4.08859
4.06316
4.03838
4.01425
3.99085
3.96807
3.94536
3.92322
3.96318
3.94314
3.91692
3.88236
3.83623
3.77414
3.69101
3.58324
3.4539
3.31733
3.19499
3.09776
3.02481
2.98105
2.97704
3.03116
3.18272
3.34741
3.58818
3.86157
4.12532
4.32684
4.47541
4.56546
4.60451
4.60819
4.59154
4.56468
4.53326
4.50011
4.4665
4.43295
4.39966
4.3667
4.33416
4.30209
4.27056
4.23962
4.20932
4.1797
4.15076
4.12255
4.09505
4.06829
4.04225
4.01692
3.99238
3.96855
3.94491
3.92184
3.9619
3.94119
3.9141
3.8785
3.83118
3.76778
3.68315
3.57324
3.43989
3.29552
3.16126
3.05149
2.96608
2.91138
2.90211
2.95226
3.08528
3.2537
3.50298
3.77774
4.05937
4.28543
4.46012
4.57362
4.62974
4.64242
4.6285
4.60083
4.56688
4.53063
4.49388
4.45735
4.42133
4.38592
4.35114
4.31705
4.28366
4.25102
4.21914
4.18805
4.15776
4.12828
4.09961
4.07176
4.04471
4.01844
3.99301
3.96837
3.94403
3.92032
3.96229
3.94137
3.91398
3.87805
3.83045
3.76691
3.68232
3.57226
3.4374
3.28797
3.14406
3.02332
2.92676
2.86176
2.84296
2.87044
2.99632
3.1795
3.42437
3.70441
3.98297
4.22994
4.42824
4.56773
4.64394
4.66874
4.65974
4.63252
4.59627
4.55714
4.51738
4.47794
4.43925
4.40144
4.36454
4.32856
4.29348
4.25932
4.22607
4.19374
4.16233
4.13183
4.10225
4.07356
4.04575
4.01881
3.99274
3.96754
3.94276
3.91865
3.96431
3.94363
3.9165
3.88091
3.83388
3.77128
3.68815
3.57981
3.44585
3.29427
3.14358
3.01274
2.90424
2.82981
2.80059
2.82835
2.93512
3.11852
3.35552
3.63646
3.91057
4.16628
4.38489
4.5465
4.64527
4.68505
4.68362
4.65905
4.61979
4.57858
4.53632
4.4942
4.453
4.41295
4.37409
4.33641
4.29985
4.2644
4.23003
4.19671
4.16445
4.1332
4.10297
4.07373
4.04544
4.01809
3.99166
3.96616
3.94116
3.91685
3.96789
3.94789
3.92153
3.88691
3.84122
3.78054
3.70011
3.59518
3.4644
3.31351
3.15903
3.01983
2.90249
2.82097
2.78152
2.79637
2.89514
3.07558
3.30481
3.57961
3.85116
4.10091
4.32887
4.51265
4.63254
4.6896
4.69769
4.67597
4.63848
4.59513
4.55022
4.5056
4.46212
4.42008
4.37952
4.34039
4.30262
4.26615
4.23093
4.19692
4.16408
4.13238
4.10177
4.07224
4.04375
4.01624
3.98971
3.96414
3.93917
3.91491
3.97294
3.95402
3.9289
3.89581
3.85213
3.7942
3.71756
3.61748
3.49194
3.34458
3.18963
3.04632
2.92118
2.83037
2.785
2.79671
2.88412
3.05262
3.27251
3.53618
3.80088
4.04155
4.26981
4.46637
4.60513
4.68236
4.70103
4.68448
4.64847
4.60436
4.55782
4.51133
4.46606
4.42242
4.38052
4.34029
4.30164
4.26448
4.22873
4.19433
4.16121
4.12934
4.09865
4.0691
4.04066
4.01326
3.98688
3.96151
3.93682
3.91288
3.97934
3.96185
3.93838
3.9073
3.8662
3.81172
3.73972
3.64569
3.52713
3.38596
3.23373
3.08947
2.96203
2.8634
2.81342
2.82291
2.90025
3.05288
3.25886
3.50537
3.75946
3.99261
4.21341
4.41523
4.56897
4.66172
4.69346
4.68307
4.64921
4.60537
4.55816
4.51062
4.46424
4.41959
4.37683
4.33595
4.29682
4.25934
4.22342
4.18896
4.15588
4.12414
4.09365
4.06438
4.03625
4.00922
3.98324
3.95831
3.93413
3.91076
3.98693
3.97118
3.94972
3.92104
3.88296
3.83246
3.76577
3.67867
3.56842
3.43567
3.28934
3.14606
3.01945
2.92073
2.86175
2.86078
2.93336
3.06745
3.25587
3.48514
3.72745
3.95215
4.16606
4.36134
4.52534
4.6309
4.67531
4.67122
4.64004
4.59728
4.55034
4.50275
4.45613
4.41121
4.36825
4.32725
4.28813
4.25077
4.21506
4.1809
4.1482
4.1169
4.08691
4.05817
4.03063
4.00421
3.97887
3.95459
3.93114
3.90853
3.99556
3.98181
3.96262
3.93666
3.90194
3.85578
3.79482
3.71521
3.61417
3.49148
3.35382
3.21333
3.08749
2.98891
2.92731
2.91623
2.96939
3.08129
3.25331
3.47631
3.70424
3.91811
4.12435
4.31205
4.48057
4.59318
4.64558
4.64777
4.62017
4.57922
4.53355
4.48705
4.44129
4.39702
4.35461
4.31415
4.2756
4.23884
4.20377
4.1703
4.13833
4.10778
4.07857
4.05064
4.02392
3.99834
3.97385
3.95041
3.92787
3.90621
4.00505
3.99349
3.9768
3.95376
3.92261
3.88101
3.82599
3.75413
3.66275
3.55106
3.42377
3.29099
3.16707
3.0673
3.00183
2.98444
3.02282
3.12093
3.27413
3.47542
3.68948
3.89048
4.08777
4.27109
4.42988
4.54873
4.60616
4.61367
4.58964
4.55073
4.50729
4.46309
4.41939
4.37684
4.3359
4.29673
4.25936
4.22373
4.18977
4.15738
4.12648
4.09699
4.06885
4.04197
4.01629
3.99176
3.9683
3.94587
3.9244
3.90382
4.01522
4.00599
3.99195
3.97195
3.94449
3.9075
3.85844
3.79431
3.7126
3.61224
3.49631
3.37285
3.25426
3.155
3.0864
3.06128
3.08792
3.17015
3.30488
3.48561
3.68141
3.86842
4.05532
4.23213
4.38149
4.50081
4.56164
4.56979
4.54811
4.51176
4.47145
4.43074
4.39037
4.35071
4.31221
4.27514
4.23963
4.2057
4.17331
4.1424
4.11292
4.08479
4.05796
4.03236
4.00793
3.98461
3.96233
3.94106
3.92075
3.90137
4.02587
4.01906
4.00774
3.99086
3.96708
3.93466
3.8914
3.83475
3.7624
3.67315
3.56894