/*--------------------------------*- C++ -*----------------------------------*\
  =========                 |
  \\      /  F ield         | OpenFOAM: The Open Source CFD Toolbox
   \\    /   O peration     | Website:  https://openfoam.org
    \\  /    A nd           | Version:  9
     \\/     M anipulation  |
\*---------------------------------------------------------------------------*/
FoamFile
{
    format      ascii;
    class       surfaceScalarField;
    location    "0.2";
    object      phi;
}
// * * * * * * * * * * * * * * * * * * * * * * * * * * * * * * * * * * * * * //

dimensions      [0 3 -1 0 0 0 0];

internalField   nonuniform List<scalar> 
9850
(
1.43148e-06
2.00598e-05
1.35167e-06
2.00761e-05
1.26449e-06
2.02287e-05
1.17822e-06
2.05202e-05
1.10896e-06
2.0894e-05
1.07634e-06
2.12511e-05
1.08441e-06
2.15355e-05
1.11172e-06
2.18798e-05
1.21649e-06
2.23696e-05
1.69155e-06
2.20181e-05
2.69098e-06
1.86321e-05
3.69374e-06
1.09737e-05
3.21004e-06
4.85582e-06
2.97456e-06
1.90469e-06
2.81972e-06
1.18906e-06
2.71972e-06
1.0617e-06
2.65968e-06
1.02048e-06
2.63633e-06
9.04964e-07
2.65405e-06
6.92357e-07
2.71452e-06
4.31185e-07
2.79049e-06
1.82184e-07
2.87276e-06
1.07417e-07
2.94536e-06
1.34225e-07
2.99599e-06
2.38172e-07
3.01885e-06
3.82428e-07
3.01486e-06
5.26683e-07
2.98575e-06
6.40571e-07
2.93084e-06
7.42764e-07
2.85987e-06
9.35576e-07
2.82571e-06
1.31652e-06
2.83486e-06
1.72012e-06
3.24263e-06
3.68799e-06
3.63763e-06
5.3336e-06
4.05494e-06
6.66289e-06
4.42195e-06
7.6846e-06
4.68081e-06
8.19982e-06
4.82964e-06
8.2221e-06
4.90148e-06
7.92389e-06
4.9334e-06
7.48868e-06
4.94976e-06
7.03505e-06
4.96094e-06
6.61266e-06
4.96902e-06
6.2295e-06
4.97321e-06
5.87834e-06
4.97276e-06
5.55098e-06
4.96772e-06
5.24254e-06
4.95869e-06
4.95096e-06
4.94646e-06
4.67559e-06
4.93179e-06
4.41609e-06
4.9152e-06
4.17179e-06
3.93889e-06
1.48633e-06
2.01194e-05
1.41889e-06
2.01435e-05
1.34771e-06
2.02999e-05
1.28338e-06
2.05845e-05
1.24385e-06
2.09335e-05
1.2487e-06
2.12462e-05
1.30261e-06
2.14816e-05
1.39886e-06
2.17835e-05
1.61301e-06
2.21554e-05
2.2033e-06
2.14278e-05
3.34721e-06
1.74882e-05
4.54141e-06
9.77953e-06
3.4786e-06
5.91863e-06
3.06032e-06
2.32297e-06
2.86296e-06
1.38641e-06
2.7671e-06
1.15757e-06
2.70666e-06
1.08092e-06
2.67312e-06
9.38512e-07
2.67312e-06
6.9235e-07
2.71037e-06
3.93936e-07
2.7648e-06
1.27759e-07
2.82747e-06
4.47486e-08
2.88606e-06
7.5636e-08
2.93099e-06
1.93236e-07
2.95736e-06
3.5606e-07
2.9655e-06
5.18546e-07
2.9565e-06
6.49568e-07
2.92639e-06
7.72875e-07
2.88274e-06
9.79222e-07
2.85194e-06
1.34732e-06
2.81634e-06
1.75572e-06
3.09763e-06
3.40671e-06
3.42294e-06
5.00829e-06
3.75251e-06
6.33332e-06
4.05841e-06
7.3787e-06
4.2958e-06
7.96243e-06
4.44825e-06
8.06964e-06
4.53249e-06
7.83965e-06
4.57608e-06
7.44508e-06
4.60075e-06
7.01038e-06
4.61778e-06
6.59563e-06
4.63075e-06
6.21653e-06
4.6398e-06
5.8693e-06
4.64437e-06
5.54641e-06
4.64436e-06
5.24255e-06
4.64014e-06
4.95517e-06
4.63238e-06
4.68335e-06
4.62176e-06
4.42671e-06
4.60915e-06
4.1844e-06
3.94933e-06
1.54053e-06
2.01711e-05
1.48422e-06
2.01998e-05
1.42744e-06
2.03567e-05
1.38225e-06
2.06297e-05
1.36746e-06
2.09483e-05
1.40183e-06
2.12119e-05
1.49016e-06
2.13933e-05
1.63821e-06
2.16355e-05
1.92873e-06
2.18649e-05
2.56064e-06
2.07959e-05
3.66611e-06
1.63828e-05
4.57373e-06
8.8719e-06
3.84068e-06
6.65168e-06
3.24691e-06
2.91674e-06
2.98105e-06
1.65228e-06
2.86655e-06
1.27207e-06
2.79698e-06
1.15049e-06
2.74846e-06
9.87023e-07
2.72798e-06
7.12834e-07
2.7376e-06
3.84318e-07
2.7632e-06
1.0216e-07
2.79628e-06
1.16685e-08
2.83006e-06
4.1853e-08
2.85923e-06
1.64066e-07
2.88079e-06
3.34504e-07
2.89543e-06
5.03908e-07
2.90406e-06
6.40934e-07
2.90409e-06
7.72844e-07
2.88944e-06
9.93874e-07
2.87078e-06
1.36598e-06
2.82148e-06
1.80502e-06
2.98716e-06
3.24102e-06
3.26577e-06
4.72968e-06
3.53243e-06
6.06666e-06
3.78225e-06
7.12888e-06
3.98694e-06
7.75774e-06
4.12813e-06
7.92845e-06
4.21275e-06
7.75503e-06
4.26012e-06
7.39771e-06
4.28816e-06
6.98235e-06
4.3076e-06
6.57619e-06
4.32272e-06
6.2014e-06
4.33431e-06
5.85771e-06
4.34208e-06
5.53865e-06
4.34584e-06
5.2388e-06
4.3458e-06
4.95521e-06
4.34246e-06
4.6867e-06
4.33644e-06
4.43272e-06
4.32914e-06
4.1917e-06
3.95223e-06
1.59341e-06
2.02153e-05
1.54632e-06
2.02469e-05
1.50165e-06
2.04014e-05
1.47204e-06
2.06593e-05
1.47641e-06
2.0944e-05
1.53181e-06
2.11565e-05
1.64178e-06
2.12833e-05
1.81982e-06
2.14574e-05
2.1518e-06
2.15329e-05
2.76802e-06
2.01796e-05
3.74235e-06
1.54084e-05
4.3065e-06
8.30775e-06
4.3169e-06
6.64128e-06
3.512e-06
3.72165e-06
3.17186e-06
1.99241e-06
3.03733e-06
1.40661e-06
2.94655e-06
1.24126e-06
2.87819e-06
1.05539e-06
2.83528e-06
7.55734e-07
2.81461e-06
4.04993e-07
2.80618e-06
1.10587e-07
2.80212e-06
1.57358e-08
2.80277e-06
4.12025e-08
2.80716e-06
1.59672e-07
2.81218e-06
3.2948e-07
2.81839e-06
4.97701e-07
2.83019e-06
6.29136e-07
2.8496e-06
7.53438e-07
2.86637e-06
9.77098e-07
2.92777e-06
1.30459e-06
2.841e-06
1.89179e-06
2.9672e-06
3.11482e-06
3.16894e-06
4.52795e-06
3.37217e-06
5.86342e-06
3.56815e-06
6.93291e-06
3.73486e-06
7.59103e-06
3.85635e-06
7.80695e-06
3.93358e-06
7.67781e-06
3.97911e-06
7.35219e-06
4.00682e-06
6.95463e-06
4.02614e-06
6.55688e-06
4.04139e-06
6.18615e-06
4.05373e-06
5.84537e-06
4.06304e-06
5.52933e-06
4.06913e-06
5.2327e-06
4.07207e-06
4.95227e-06
4.0722e-06
4.68657e-06
4.07015e-06
4.43477e-06
4.06765e-06
4.1942e-06
3.95062e-06
1.64389e-06
2.02528e-05
1.60442e-06
2.02864e-05
1.5693e-06
2.04365e-05
1.55136e-06
2.06772e-05
1.56884e-06
2.09265e-05
1.63628e-06
2.1089e-05
1.75474e-06
2.11649e-05
1.94045e-06
2.12717e-05
2.2813e-06
2.11921e-05
2.86848e-06
1.95925e-05
3.67467e-06
1.46023e-05
4.23478e-06
7.74763e-06
5.03163e-06
5.84444e-06
3.88011e-06
4.87317e-06
3.47732e-06
2.39519e-06
3.28867e-06
1.59526e-06
3.16426e-06
1.36568e-06
3.06666e-06
1.15299e-06
2.99919e-06
8.23202e-07
2.94664e-06
4.57537e-07
2.90139e-06
1.55835e-07
2.857e-06
6.01289e-08
2.82263e-06
7.55757e-08
2.80262e-06
1.7968e-07
2.79028e-06
3.41819e-07
2.78226e-06
5.05722e-07
2.78889e-06
6.22509e-07
2.83182e-06
7.10499e-07
2.92087e-06
8.88048e-07
2.92736e-06
1.2981e-06
2.86735e-06
1.9518e-06
2.9142e-06
3.06797e-06
3.06526e-06
4.37689e-06
3.22246e-06
5.70623e-06
3.3787e-06
6.77666e-06
3.513e-06
7.45673e-06
3.61443e-06
7.70552e-06
3.68179e-06
7.61046e-06
3.7231e-06
7.31087e-06
3.7488e-06
6.92893e-06
3.76673e-06
6.53895e-06
3.78097e-06
6.17191e-06
3.79284e-06
5.83351e-06
3.80239e-06
5.51978e-06
3.80942e-06
5.22568e-06
3.81389e-06
4.9478e-06
3.816e-06
4.68446e-06
3.81629e-06
4.43448e-06
3.81662e-06
4.19387e-06
3.94244e-06
1.69146e-06
2.02851e-05
1.65793e-06
2.03199e-05
1.62979e-06
2.04646e-05
1.61966e-06
2.06874e-05
1.64446e-06
2.09017e-05
1.71543e-06
2.10181e-05
1.83029e-06
2.105e-05
2.00498e-06
2.1097e-05
2.32817e-06
2.08689e-05
2.87711e-06
1.90435e-05
3.51524e-06
1.39641e-05
3.94265e-06
7.32022e-06
4.55547e-06
5.23162e-06
4.01566e-06
5.41297e-06
3.77629e-06
2.63456e-06
3.57438e-06
1.79717e-06
3.41709e-06
1.52297e-06
3.29468e-06
1.2754e-06
3.20194e-06
9.1594e-07
3.11716e-06
5.42318e-07
3.03634e-06
2.36651e-07
2.95274e-06
1.43728e-07
2.88673e-06
1.41593e-07
2.85281e-06
2.13598e-07
2.84328e-06
3.51347e-07
2.84291e-06
5.06092e-07
2.85834e-06
6.07075e-07
2.92966e-06
6.39186e-07
3.13672e-06
6.80985e-07
3.02487e-06
1.40995e-06
2.88703e-06
2.08964e-06
2.85278e-06
3.10223e-06
2.93639e-06
4.29327e-06
3.06628e-06
5.57634e-06
3.19245e-06
6.65049e-06
3.30304e-06
7.34614e-06
3.38798e-06
7.62058e-06
3.44629e-06
7.55215e-06
3.48335e-06
7.27381e-06
3.50692e-06
6.90536e-06
3.52338e-06
6.52248e-06
3.5364e-06
6.15889e-06
3.54741e-06
5.8225e-06
3.55663e-06
5.51057e-06
3.56392e-06
5.21839e-06
3.5692e-06
4.94252e-06
3.57259e-06
4.68107e-06
3.57467e-06
4.4324e-06
3.57722e-06
4.19132e-06
3.93137e-06
1.736e-06
2.03136e-05
1.7067e-06
2.03492e-05
1.68305e-06
2.04883e-05
1.6772e-06
2.06932e-05
1.70422e-06
2.08747e-05
1.77152e-06
2.09508e-05
1.87301e-06
2.09485e-05
2.02384e-06
2.09462e-05
2.31389e-06
2.05788e-05
2.82201e-06
1.85354e-05
3.36084e-06
1.34253e-05
3.658e-06
7.02307e-06
4.11923e-06
4.77039e-06
4.02536e-06
5.50684e-06
3.94543e-06
2.71449e-06
3.80147e-06
1.94113e-06
3.6427e-06
1.68174e-06
3.51313e-06
1.40497e-06
3.40574e-06
1.02333e-06
3.29458e-06
6.53476e-07
3.18321e-06
3.48017e-07
3.0669e-06
2.60039e-07
2.97357e-06
2.3493e-07
2.92885e-06
2.58315e-07
2.9323e-06
3.47895e-07
2.95099e-06
4.874e-07
2.9543e-06
6.03773e-07
2.93779e-06
6.5569e-07
2.83288e-06
7.85895e-07
2.84529e-06
1.39754e-06
2.86011e-06
2.07482e-06
2.82853e-06
3.1338e-06
2.84122e-06
4.28058e-06
2.92671e-06
5.49085e-06
3.02059e-06
6.55661e-06
3.10678e-06
7.25996e-06
3.1751e-06
7.55226e-06
3.22391e-06
7.50334e-06
3.25628e-06
7.24144e-06
3.27749e-06
6.88415e-06
3.29241e-06
6.50756e-06
3.30416e-06
6.14714e-06
3.31413e-06
5.81253e-06
3.32267e-06
5.50203e-06
3.32975e-06
5.2113e-06
3.33532e-06
4.93695e-06
3.3395e-06
4.67689e-06
3.34308e-06
4.42882e-06
3.34881e-06
4.18559e-06
3.91482e-06
1.77758e-06
2.03393e-05
1.75091e-06
2.03759e-05
1.72956e-06
2.05096e-05
1.72495e-06
2.06978e-05
1.75005e-06
2.08496e-05
1.80819e-06
2.08926e-05
1.88968e-06
2.0867e-05
2.01042e-06
2.08255e-05
2.2637e-06
2.03255e-05
2.73754e-06
1.80616e-05
3.25618e-06
1.29066e-05
3.54257e-06
6.73668e-06
3.72146e-06
4.59151e-06
4.07295e-06
5.15534e-06
3.97839e-06
2.80904e-06
3.90465e-06
2.01487e-06
3.76708e-06
1.81931e-06
3.65644e-06
1.51561e-06
3.5591e-06
1.12067e-06
3.4419e-06
7.70673e-07
3.3162e-06
4.73716e-07
3.1868e-06
3.89443e-07
3.08026e-06
3.41467e-07
3.01656e-06
3.22016e-07
2.9843e-06
3.80156e-07
2.96156e-06
5.10136e-07
2.95646e-06
6.08872e-07
2.88662e-06
7.25531e-07
2.63462e-06
1.0379e-06
2.5601e-06
1.47205e-06
2.72794e-06
1.90698e-06
2.78922e-06
3.07253e-06
2.77406e-06
4.29575e-06
2.81081e-06
5.45409e-06
2.87005e-06
6.49737e-06
2.92808e-06
7.20193e-06
2.97773e-06
7.5026e-06
3.0153e-06
7.46577e-06
3.04143e-06
7.21531e-06
3.0592e-06
6.86638e-06
3.07191e-06
6.49485e-06
3.08191e-06
6.13714e-06
3.09039e-06
5.80404e-06
3.09778e-06
5.49464e-06
3.10408e-06
5.205e-06
3.10928e-06
4.93175e-06
3.11363e-06
4.67253e-06
3.11865e-06
4.42381e-06
3.12975e-06
4.17449e-06
3.8869e-06
1.81644e-06
2.03634e-05
1.79101e-06
2.04013e-05
1.77011e-06
2.05305e-05
1.76431e-06
2.07036e-05
1.78432e-06
2.08296e-05
1.82964e-06
2.08473e-05
1.88785e-06
2.08088e-05
1.97818e-06
2.07351e-05
2.20147e-06
2.01023e-05
2.6531e-06
1.76099e-05
3.19192e-06
1.23678e-05
3.47444e-06
6.45415e-06
3.62784e-06
4.4381e-06
3.97765e-06
4.80553e-06
4.03242e-06
2.75428e-06
3.87603e-06
2.17125e-06
3.79277e-06
1.90257e-06
3.71865e-06
1.58974e-06
3.63749e-06
1.20183e-06
3.54646e-06
8.61698e-07
3.42954e-06
5.90643e-07
3.31918e-06
4.99797e-07
3.25383e-06
4.06815e-07
3.18994e-06
3.85911e-07
3.06421e-06
5.05888e-07
2.88696e-06
6.87386e-07
2.94815e-06
5.47673e-07
2.92995e-06
7.43733e-07
2.80461e-06
1.16324e-06
2.77651e-06
1.50016e-06
2.75039e-06
1.93311e-06
2.83532e-06
2.98759e-06
2.78508e-06
4.34599e-06
2.74268e-06
5.49649e-06
2.74623e-06
6.49382e-06
2.76815e-06
7.18002e-06
2.79441e-06
7.47634e-06
2.81814e-06
7.44205e-06
2.83657e-06
7.19687e-06
2.84994e-06
6.85302e-06
2.85976e-06
6.48503e-06
2.86753e-06
6.12937e-06
2.87418e-06
5.79739e-06
2.88011e-06
5.48871e-06
2.88536e-06
5.19975e-06
2.88992e-06
4.92719e-06
2.8944e-06
4.66805e-06
2.90162e-06
4.41659e-06
2.91851e-06
4.15759e-06
3.85756e-06
1.85297e-06
2.03867e-05
1.82764e-06
2.04267e-05
1.80574e-06
2.05524e-05
1.79688e-06
2.07125e-05
1.80952e-06
2.08169e-05
1.83982e-06
2.0817e-05
1.87418e-06
2.07744e-05
1.937e-06
2.06723e-05
2.13748e-06
1.99018e-05
2.57052e-06
1.71769e-05
3.12513e-06
1.18132e-05
3.35856e-06
6.22072e-06
3.4481e-06
4.34856e-06
3.86625e-06
4.38738e-06
3.95603e-06
2.6645e-06
3.93882e-06
2.18847e-06
3.86636e-06
1.97503e-06
3.78353e-06
1.67256e-06
3.7006e-06
1.28477e-06
3.6229e-06
9.39394e-07
3.55085e-06
6.62698e-07
3.48511e-06
5.65541e-07
3.45104e-06
4.40883e-07
3.3519e-06
4.85048e-07
3.21914e-06
6.38652e-07
3.13292e-06
7.73604e-07
3.02464e-06
6.55956e-07
2.98893e-06
7.79442e-07
2.97213e-06
1.18005e-06
2.95148e-06
1.5208e-06
2.85342e-06
2.03117e-06
2.9134e-06
2.92761e-06
2.80785e-06
4.45154e-06
2.68737e-06
5.61696e-06
2.63007e-06
6.55112e-06
2.61354e-06
7.19655e-06
2.61624e-06
7.47364e-06
2.62616e-06
7.43212e-06
2.63681e-06
7.18623e-06
2.64564e-06
6.84418e-06
2.65248e-06
6.47819e-06
2.65798e-06
6.12387e-06
2.66279e-06
5.79258e-06
2.66721e-06
5.48429e-06
2.6713e-06
5.19567e-06
2.67524e-06
4.92325e-06
2.68043e-06
4.66286e-06
2.6909e-06
4.40612e-06
2.71183e-06
4.13666e-06
3.83359e-06
1.88767e-06
2.04099e-05
1.86156e-06
2.04528e-05
1.83757e-06
2.05764e-05
1.82434e-06
2.07257e-05
1.82807e-06
2.08132e-05
1.84221e-06
2.08029e-05
1.85386e-06
2.07628e-05
1.89424e-06
2.06319e-05
2.07994e-06
1.97161e-05
2.50434e-06
1.67525e-05
3.03189e-06
1.12857e-05
3.19036e-06
6.06224e-06
3.24327e-06
4.29566e-06
3.70733e-06
3.92333e-06
3.83081e-06
2.54102e-06
3.92484e-06
2.09443e-06
3.95281e-06
1.94707e-06
3.89163e-06
1.73374e-06
3.78924e-06
1.38715e-06
3.69111e-06
1.03753e-06
3.6446e-06
7.09211e-07
3.61493e-06
5.95204e-07
3.55578e-06
5.00039e-07
3.50095e-06
5.3987e-07
3.42595e-06
7.13656e-07
3.33097e-06
8.68582e-07
3.18014e-06
8.06788e-07
3.07043e-06
8.89151e-07
3.03165e-06
1.21882e-06
2.92821e-06
1.62424e-06
2.77804e-06
2.18135e-06
2.68231e-06
3.02334e-06
2.64345e-06
4.4904e-06
2.54162e-06
5.7188e-06
2.46991e-06
6.62283e-06
2.43532e-06
7.23114e-06
2.42538e-06
7.48358e-06
2.42762e-06
7.42988e-06
2.43402e-06
7.17984e-06
2.44042e-06
6.83777e-06
2.44559e-06
6.47303e-06
2.44967e-06
6.11978e-06
2.45317e-06
5.78908e-06
2.4564e-06
5.48106e-06
2.45954e-06
5.19253e-06
2.46328e-06
4.9195e-06
2.47011e-06
4.65604e-06
2.48446e-06
4.39177e-06
2.50777e-06
4.11335e-06
3.81423e-06
1.9211e-06
2.04337e-05
1.8936e-06
2.04803e-05
1.8668e-06
2.06032e-05
1.84831e-06
2.07442e-05
1.84218e-06
2.08193e-05
1.83976e-06
2.08053e-05
1.83062e-06
2.07719e-05
1.85485e-06
2.06077e-05
2.0357e-06
1.95352e-05
2.45708e-06
1.63311e-05
2.94976e-06
1.0793e-05
3.02892e-06
5.98309e-06
3.09499e-06
4.22959e-06
3.4739e-06
3.54442e-06
3.61342e-06
2.4015e-06
3.76524e-06
1.94261e-06
3.92564e-06
1.78666e-06
4.0319e-06
1.62748e-06
4.05699e-06
1.36206e-06
4.01945e-06
1.07506e-06
3.98497e-06
7.43691e-07
3.94285e-06
6.37329e-07
3.86651e-06
5.76382e-07
3.76428e-06
6.42101e-07
3.66566e-06
8.12272e-07
3.57566e-06
9.58586e-07
3.39329e-06
9.8915e-07
3.20351e-06
1.07893e-06
3.08314e-06
1.33919e-06
2.94737e-06
1.76002e-06
2.76551e-06
2.3632e-06
2.57314e-06
3.2157e-06
2.46564e-06
4.5979e-06
2.36302e-06
5.82142e-06
2.28186e-06
6.70398e-06
2.23738e-06
7.27562e-06
2.22079e-06
7.50018e-06
2.21996e-06
7.43071e-06
2.22538e-06
7.17441e-06
2.23165e-06
6.83151e-06
2.23676e-06
6.46792e-06
2.24058e-06
6.11596e-06
2.2436e-06
5.78607e-06
2.24622e-06
5.47844e-06
2.24897e-06
5.18978e-06
2.25335e-06
4.91512e-06
2.26282e-06
4.64657e-06
2.28108e-06
4.37352e-06
2.3058e-06
4.08862e-06
3.79745e-06
1.95387e-06
2.04582e-05
1.92463e-06
2.05095e-05
1.89462e-06
2.06332e-05
1.87038e-06
2.07685e-05
1.8539e-06
2.08358e-05
1.83495e-06
2.08242e-05
1.80654e-06
2.08003e-05
1.81858e-06
2.05957e-05
1.99888e-06
1.93549e-05
2.42847e-06
1.59015e-05
2.87797e-06
1.03435e-05
2.89558e-06
5.96548e-06
2.94789e-06
4.17727e-06
3.22743e-06
3.26488e-06
3.35996e-06
2.26898e-06
3.52482e-06
1.77775e-06
3.75766e-06
1.55382e-06
3.99774e-06
1.3874e-06
4.16621e-06
1.1936e-06
4.2407e-06
1.00057e-06
4.25052e-06
7.33867e-07
4.2131e-06
6.7475e-07
4.12086e-06
6.68621e-07
4.00984e-06
7.53125e-07
3.91225e-06
9.0986e-07
3.80065e-06
1.07019e-06
3.60302e-06
1.18678e-06
3.36312e-06
1.31883e-06
3.14903e-06
1.55329e-06
2.95202e-06
1.95702e-06
2.73653e-06
2.57869e-06
2.44773e-06
3.50451e-06
2.31722e-06
4.72841e-06
2.19731e-06
5.94133e-06
2.09775e-06
6.80353e-06
2.03913e-06
7.33425e-06
2.01445e-06
7.52486e-06
2.01027e-06
7.43488e-06
2.01499e-06
7.1697e-06
2.02159e-06
6.8249e-06
2.02717e-06
6.46234e-06
2.03122e-06
6.11191e-06
2.03413e-06
5.78316e-06
2.0365e-06
5.47607e-06
2.03941e-06
5.18688e-06
2.04535e-06
4.90918e-06
2.05819e-06
4.63373e-06
2.07987e-06
4.35184e-06
2.10489e-06
4.0636e-06
3.78285e-06
1.9866e-06
2.04836e-05
1.95551e-06
2.05406e-05
1.92221e-06
2.06665e-05
1.8921e-06
2.07986e-05
1.86519e-06
2.08627e-05
1.82991e-06
2.08595e-05
1.78297e-06
2.08473e-05
1.78367e-06
2.05949e-05
1.96487e-06
1.91737e-05
2.40086e-06
1.54655e-05
2.78965e-06
9.95471e-06
2.7799e-06
5.97523e-06
2.81477e-06
4.1424e-06
3.00543e-06
3.07422e-06
3.14385e-06
2.13055e-06
3.32944e-06
1.59216e-06
3.59134e-06
1.29193e-06
3.87299e-06
1.10575e-06
4.10429e-06
9.623e-07
4.24858e-06
8.56279e-07
4.30694e-06
6.75508e-07
4.30904e-06
6.72647e-07
4.25725e-06
7.20416e-07
4.1769e-06
8.33477e-07
4.08253e-06
1.00423e-06
3.95331e-06
1.19941e-06
3.75088e-06
1.38922e-06
3.48569e-06
1.58401e-06
3.19649e-06
1.84248e-06
2.90999e-06
2.24352e-06
2.61576e-06
2.87293e-06
2.3568e-06
3.76347e-06
2.17684e-06
4.90837e-06
2.03676e-06
6.08141e-06
1.91936e-06
6.92094e-06
1.84643e-06
7.40717e-06
1.813e-06
7.55829e-06
1.80449e-06
7.4434e-06
1.80756e-06
7.16662e-06
1.81378e-06
6.81868e-06
1.81933e-06
6.4568e-06
1.82324e-06
6.10799e-06
1.82584e-06
5.78057e-06
1.828e-06
5.47391e-06
1.83162e-06
5.18326e-06
1.84012e-06
4.90067e-06
1.85701e-06
4.61684e-06
1.88171e-06
4.32714e-06
1.9063e-06
4.03901e-06
3.77042e-06
2.0199e-06
2.05098e-05
1.9871e-06
2.05734e-05
1.95073e-06
2.07029e-05
1.91499e-06
2.08343e-05
1.87798e-06
2.08997e-05
1.82692e-06
2.09106e-05
1.76207e-06
2.09121e-05
1.7522e-06
2.06048e-05
1.93491e-06
1.8991e-05
2.36745e-06
1.5033e-05
2.67866e-06
9.6435e-06
2.65571e-06
5.99818e-06
2.69263e-06
4.10548e-06
2.85113e-06
2.91571e-06
3.01335e-06
1.96833e-06
3.23159e-06
1.37392e-06
3.50539e-06
1.01813e-06
3.7884e-06
8.22729e-07
4.0312e-06
7.19506e-07
4.20564e-06
6.81836e-07
4.29535e-06
5.85793e-07
4.33305e-06
6.3495e-07
4.32142e-06
7.32046e-07
4.2709e-06
8.84e-07
4.18605e-06
1.08908e-06
4.05482e-06
1.33064e-06
3.85132e-06
1.59272e-06
3.57392e-06
1.86141e-06
3.24629e-06
2.17011e-06
2.90223e-06
2.58758e-06
2.56233e-06
3.21283e-06
2.27058e-06
4.05522e-06
2.05133e-06
5.12763e-06
1.88746e-06
6.24527e-06
1.75101e-06
7.05739e-06
1.66332e-06
7.49486e-06
1.6202e-06
7.60141e-06
1.60608e-06
7.45752e-06
1.60614e-06
7.16656e-06
1.6107e-06
6.81412e-06
1.61514e-06
6.45236e-06
1.61812e-06
6.10501e-06
1.61995e-06
5.77874e-06
1.62205e-06
5.47181e-06
1.62732e-06
5.17799e-06
1.63967e-06
4.88832e-06
1.66123e-06
4.59528e-06
1.68842e-06
4.29995e-06
1.71182e-06
4.01562e-06
3.7602e-06
2.05432e-06
2.05366e-05
2.0202e-06
2.06075e-05
1.98129e-06
2.07418e-05
1.94059e-06
2.0875e-05
1.89432e-06
2.0946e-05
1.8287e-06
2.09762e-05
1.74761e-06
2.09932e-05
1.72935e-06
2.06231e-05
1.91662e-06
1.88038e-05
2.3289e-06
1.46207e-05
2.56146e-06
9.41094e-06
2.5472e-06
6.01243e-06
2.58996e-06
4.06272e-06
2.7466e-06
2.75908e-06
2.95249e-06
1.76244e-06
3.20407e-06
1.12234e-06
3.49164e-06
7.30559e-07
3.77161e-06
5.42761e-07
4.0137e-06
4.77417e-07
4.20069e-06
4.94848e-07
4.30812e-06
4.78365e-07
4.3677e-06
5.75365e-07
4.3796e-06
7.20147e-07
4.34568e-06
9.17922e-07
4.26578e-06
1.16898e-06
4.13303e-06
1.46338e-06
3.93167e-06
1.79408e-06
3.65482e-06
2.13827e-06
3.31716e-06
2.50777e-06
2.94953e-06
2.95521e-06
2.58745e-06
3.57491e-06
2.24508e-06
4.39759e-06
1.98275e-06
5.38996e-06
1.77101e-06
6.45701e-06
1.60459e-06
7.22382e-06
1.49655e-06
7.6029e-06
1.4402e-06
7.65776e-06
1.41773e-06
7.47999e-06
1.41246e-06
7.17182e-06
1.41343e-06
6.81315e-06
1.41526e-06
6.45054e-06
1.41626e-06
6.10401e-06
1.41691e-06
5.77809e-06
1.41942e-06
5.4693e-06
1.42756e-06
5.16985e-06
1.44485e-06
4.87104e-06
1.47085e-06
4.56928e-06
1.49904e-06
4.27176e-06
1.51987e-06
3.99479e-06
3.75239e-06
2.09039e-06
2.05636e-05
2.05557e-06
2.06424e-05
2.01495e-06
2.07824e-05
1.97034e-06
2.09196e-05
1.91622e-06
2.10001e-05
1.83805e-06
2.10544e-05
1.74345e-06
2.10878e-05
1.71863e-06
2.06479e-05
1.90225e-06
1.86202e-05
2.26277e-06
1.42602e-05
2.44241e-06
9.2313e-06
2.44716e-06
6.00768e-06
2.51417e-06
3.99571e-06
2.68699e-06
2.58626e-06
2.92104e-06
1.5284e-06
3.21456e-06
8.28822e-07
3.51707e-06
4.28041e-07
3.79725e-06
2.62582e-07
4.04087e-06
2.33799e-07
4.23863e-06
2.97086e-07
4.35973e-06
3.57265e-07
4.43362e-06
5.01476e-07
4.45782e-06
6.95945e-07
4.42963e-06
9.46117e-07
4.34586e-06
1.25275e-06
4.20201e-06
1.60723e-06
3.99416e-06
2.00193e-06
3.71656e-06
2.41587e-06
3.37944e-06
2.8449e-06
2.99796e-06
3.33669e-06
2.60225e-06
3.97062e-06
2.22773e-06
4.77211e-06
1.91411e-06
5.70358e-06
1.66354e-06
6.70757e-06
1.46807e-06
7.41929e-06
1.33946e-06
7.7315e-06
1.26893e-06
7.72829e-06
1.23665e-06
7.51227e-06
1.22439e-06
7.18408e-06
1.22018e-06
6.81737e-06
1.21807e-06
6.45264e-06
1.21628e-06
6.1058e-06
1.21574e-06
5.77863e-06
1.21956e-06
5.46547e-06
1.23178e-06
5.15764e-06
1.25417e-06
4.84864e-06
1.28304e-06
4.5404e-06
1.30987e-06
4.24494e-06
1.32681e-06
3.97785e-06
3.74699e-06
2.12854e-06
2.05902e-05
2.09385e-06
2.06771e-05
2.05262e-06
2.08236e-05
2.00558e-06
2.09667e-05
1.94555e-06
2.10601e-05
1.85762e-06
2.11423e-05
1.75299e-06
2.11924e-05
1.72272e-06
2.06782e-05
1.89399e-06
1.84489e-05
2.2028e-06
1.39513e-05
2.30318e-06
9.13093e-06
2.3485e-06
5.96236e-06
2.45303e-06
3.89118e-06
2.66835e-06
2.37094e-06
2.93808e-06
1.25866e-06
3.25214e-06
5.14761e-07
3.55734e-06
1.22841e-07
3.83608e-06
-1.61559e-08
4.08404e-06
-1.41568e-08
4.29559e-06
8.55329e-08
4.4319e-06
2.20956e-07
4.51811e-06
4.15267e-07
4.5493e-06
6.64755e-07
4.52066e-06
9.74758e-07
4.42738e-06
1.34603e-06
4.26921e-06
1.7654e-06
4.05026e-06
2.22089e-06
3.76947e-06
2.69665e-06
3.42673e-06
3.18764e-06
3.02943e-06
3.73398e-06
2.6112e-06
4.38885e-06
2.19896e-06
5.18436e-06
1.84319e-06
6.05936e-06
1.54522e-06
7.00554e-06
1.32236e-06
7.64215e-06
1.17695e-06
7.87691e-06
1.09499e-06
7.81026e-06
1.05426e-06
7.55299e-06
1.03537e-06
7.20297e-06
1.02582e-06
6.82692e-06
1.01956e-06
6.4589e-06
1.01514e-06
6.11023e-06
1.01434e-06
5.77943e-06
1.02094e-06
5.45887e-06
1.0381e-06
5.14048e-06
1.06467e-06
4.82207e-06
1.09393e-06
4.51114e-06
1.11714e-06
4.22173e-06
1.12956e-06
3.96542e-06
3.74366e-06
2.16909e-06
2.06157e-05
2.13554e-06
2.07106e-05
2.09506e-06
2.08641e-05
2.04739e-06
2.10143e-05
1.98394e-06
2.11236e-05
1.88983e-06
2.12364e-05
1.77966e-06
2.13026e-05
1.74535e-06
2.07125e-05
1.8998e-06
1.82944e-05
2.14426e-06
1.37069e-05
2.225e-06
9.05019e-06
2.29107e-06
5.89629e-06
2.44307e-06
3.73918e-06
2.68692e-06
2.12708e-06
2.98921e-06
9.56369e-07
3.2946e-06
2.0937e-07
3.59262e-06
-1.75177e-07
3.86788e-06
-2.91408e-07
4.12165e-06
-2.67927e-07
4.34822e-06
-1.41038e-07
4.50452e-06
6.46563e-08
4.60502e-06
3.14758e-07
4.64058e-06
6.29199e-07
4.60744e-06
1.0079e-06
4.50028e-06
1.45319e-06
4.32256e-06
1.94312e-06
4.08906e-06
2.45438e-06
3.79256e-06
2.99316e-06
3.43113e-06
3.54907e-06
3.01301e-06
4.15209e-06
2.56806e-06
4.8338e-06
2.12619e-06
5.62622e-06
1.72557e-06
6.45998e-06
1.39064e-06
7.34047e-06
1.14901e-06
7.88378e-06
9.94114e-07
8.03181e-06
9.06229e-07
7.89815e-06
8.60768e-07
7.59845e-06
8.37528e-07
7.22621e-06
8.24074e-07
6.84037e-06
8.14874e-07
6.4681e-06
8.09418e-07
6.11568e-06
8.10526e-07
5.77832e-06
8.21888e-07
5.44751e-06
8.44371e-07
5.118e-06
8.7335e-07
4.79309e-06
9.00268e-07
4.48422e-06
9.18007e-07
4.20399e-06
9.25289e-07
3.95814e-06
3.74264e-06
2.21224e-06
2.06393e-05
2.18097e-06
2.07419e-05
2.14279e-06
2.09023e-05
2.0966e-06
2.10605e-05
2.03273e-06
2.11874e-05
1.93692e-06
2.13322e-05
1.82693e-06
2.14126e-05
1.79285e-06
2.07465e-05
1.93159e-06
1.81557e-05
2.13288e-06
1.35056e-05
2.199e-06
8.98407e-06
2.28205e-06
5.81324e-06
2.46263e-06
3.55859e-06
2.72424e-06
1.86548e-06
3.02482e-06
6.55782e-07
3.32707e-06
-9.28727e-08
3.61162e-06
-4.5973e-07
3.88854e-06
-5.68329e-07
4.1509e-06
-5.30285e-07
4.39591e-06
-3.86048e-07
4.56973e-06
-1.09168e-07
4.68238e-06
2.02115e-07
4.72066e-06
5.90916e-07
4.6794e-06
1.04916e-06
4.55406e-06
1.57853e-06
4.35306e-06
2.14412e-06
4.09201e-06
2.71544e-06
3.76705e-06
3.31811e-06
3.37798e-06
3.93815e-06
2.92942e-06
4.60065e-06
2.45317e-06
5.31006e-06
1.97913e-06
6.10026e-06
1.5348e-06
6.90431e-06
1.18009e-06
7.69517e-06
9.33652e-07
8.13022e-06
7.79714e-07
8.18575e-06
6.93491e-07
7.98437e-06
6.48506e-07
7.64344e-06
6.2447e-07
7.25025e-06
6.09791e-07
6.85505e-06
6.00279e-07
6.47761e-06
5.96946e-07
6.11901e-06
6.03297e-07
5.77196e-06
6.21537e-07
5.42927e-06
6.48991e-07
5.09055e-06
6.77861e-07
4.76422e-06
6.99391e-07
4.46269e-06
7.0906e-07
4.19432e-06
7.08389e-07
3.95881e-06
3.74678e-06
2.25806e-06
2.06602e-05
2.23024e-06
2.07697e-05
2.19603e-06
2.09365e-05
2.15364e-06
2.11029e-05
2.09279e-06
2.12483e-05
2.00062e-06
2.14244e-05
1.89804e-06
2.15152e-05
1.87181e-06
2.07728e-05
2.00397e-06
1.80236e-05
2.14274e-06
1.33668e-05
2.20769e-06
8.91912e-06
2.29942e-06
5.72152e-06
2.49917e-06
3.35885e-06
2.76754e-06
1.5971e-06
3.07125e-06
3.52079e-07
3.35928e-06
-3.80902e-07
3.64329e-06
-7.43743e-07
3.92437e-06
-8.49413e-07
4.1967e-06
-8.0261e-07
4.45172e-06
-6.41075e-07
4.6276e-06
-2.85039e-07
4.74356e-06
8.61507e-08
4.78138e-06
5.53098e-07
4.72593e-06
1.10461e-06
4.57714e-06
1.72732e-06
4.34936e-06
2.3719e-06
4.04802e-06
3.01678e-06
3.68164e-06
3.68449e-06
3.24944e-06
4.37035e-06
2.76805e-06
5.08204e-06
2.25201e-06
5.8261e-06
1.74961e-06
6.60266e-06
1.27388e-06
7.38005e-06
9.12396e-07
8.05665e-06
6.73134e-07
8.36949e-06
5.29909e-07
8.32897e-06
4.52761e-07
8.06152e-06
4.13569e-07
7.68263e-06
3.927e-07
7.27112e-06
3.80393e-07
6.86736e-06
3.74713e-07
6.48329e-06
3.78351e-07
6.11538e-06
3.9446e-07
5.75586e-06
4.2238e-07
5.40135e-06
4.5594e-07
5.05699e-06
4.86273e-07
4.73389e-06
5.0715e-07
4.44182e-06
5.18117e-07
4.18336e-06
5.23209e-07
3.95372e-06
3.74385e-06
2.3064e-06
2.06775e-05
2.28324e-06
2.07929e-05
2.25468e-06
2.09651e-05
2.21844e-06
2.11391e-05
2.16427e-06
2.13025e-05
2.08138e-06
2.15073e-05
1.99305e-06
2.16035e-05
1.97902e-06
2.07868e-05
2.08837e-06
1.79142e-05
2.19482e-06
1.32604e-05
2.24222e-06
8.87172e-06
2.34593e-06
5.6178e-06
2.5541e-06
3.15068e-06
2.83005e-06
1.32115e-06
3.12823e-06
5.38959e-08
3.41144e-06
-6.64104e-07
3.68597e-06
-1.01827e-06
3.97218e-06
-1.13563e-06
4.25189e-06
-1.08231e-06
4.51502e-06
-9.04207e-07
4.69042e-06
-4.60445e-07
4.79561e-06
-1.9033e-08
4.81843e-06
5.3028e-07
4.73132e-06
1.19172e-06
4.5493e-06
1.90933e-06
4.28702e-06
2.63418e-06
3.94209e-06
3.36171e-06
3.52941e-06
4.09718e-06
3.0546e-06
4.84515e-06
2.52687e-06
5.60977e-06
1.97476e-06
6.3782e-06
1.43675e-06
7.14067e-06
9.46876e-07
7.86992e-06
5.92717e-07
8.41081e-06
3.70615e-07
8.59159e-06
2.46373e-07
8.45321e-06
1.84461e-07
8.12343e-06
1.55526e-07
7.71156e-06
1.41613e-07
7.28503e-06
1.35869e-07
6.8731e-06
1.39001e-07
6.48016e-06
1.54353e-07
6.10002e-06
1.8275e-07
5.72746e-06
2.19469e-07
5.36463e-06
2.55655e-07
5.0208e-06
2.83269e-07
4.70627e-06
2.99371e-07
4.42572e-06
3.06314e-07
4.17641e-06
3.08673e-07
3.95136e-06
3.7428e-06
2.35699e-06
2.06905e-05
2.33958e-06
2.08103e-05
2.31824e-06
2.09864e-05
2.29039e-06
2.1167e-05
2.24638e-06
2.13465e-05
2.17808e-06
2.15756e-05
2.10931e-06
2.16723e-05
2.10737e-06
2.07887e-05
2.19695e-06
1.78246e-05
2.26126e-06
1.31961e-05
2.29814e-06
8.83484e-06
2.40519e-06
5.51076e-06
2.60268e-06
2.95319e-06
2.88787e-06
1.03597e-06
3.17309e-06
-2.31321e-07
3.44886e-06
-9.39883e-07
3.72017e-06
-1.28958e-06
4.009e-06
-1.42446e-06
4.31089e-06
-1.3842e-06
4.57897e-06
-1.17229e-06
4.74126e-06
-6.22735e-07
4.83619e-06
-1.13964e-07
4.80882e-06
5.57648e-07
4.67525e-06
1.32529e-06
4.44313e-06
2.14145e-06
4.13071e-06
2.94659e-06
3.7379e-06
3.75453e-06
3.27675e-06
4.55833e-06
2.75363e-06
5.36826e-06
2.18492e-06
6.17849e-06
1.60138e-06
6.96175e-06
1.03765e-06
7.7044e-06
5.56683e-07
8.35089e-06
2.24457e-07
8.74304e-06
3.05145e-08
8.78553e-06
-6.68456e-08
8.55057e-06
-1.08387e-07
8.16497e-06
-1.23273e-07
7.72645e-06
-1.26197e-07
7.28796e-06
-1.20298e-07
6.86721e-06
-1.03012e-07
6.46287e-06
-7.24882e-08
6.0695e-06
-3.20196e-08
5.68699e-06
9.95855e-09
5.32265e-06
4.41567e-08
4.9866e-06
6.53344e-08
4.68509e-06
7.38107e-08
4.41724e-06
7.30934e-08
4.17713e-06
6.64226e-08
3.95803e-06
3.75391e-06
2.40936e-06
2.06986e-05
2.39865e-06
2.0821e-05
2.38585e-06
2.09992e-05
2.36837e-06
2.11845e-05
2.3377e-06
2.13771e-05
2.28878e-06
2.16245e-05
2.24469e-06
2.17164e-05
2.25694e-06
2.07765e-05
2.32994e-06
1.77516e-05
2.3534e-06
1.31726e-05
2.37807e-06
8.81018e-06
2.47651e-06
5.41232e-06
2.67374e-06
2.75596e-06
2.94005e-06
7.69663e-07
3.21857e-06
-5.09841e-07
3.47761e-06
-1.19892e-06
3.74232e-06
-1.55429e-06
4.03386e-06
-1.716e-06
4.33673e-06
-1.68707e-06
4.58581e-06
-1.42136e-06
4.71775e-06
-7.5467e-07
4.75367e-06
-1.49892e-07
4.68613e-06
6.25192e-07
4.49405e-06
1.51737e-06
4.21665e-06
2.41885e-06
3.85732e-06
3.30592e-06
3.41546e-06
4.19639e-06
2.90228e-06
5.07151e-06
2.32814e-06
5.9424e-06
1.71896e-06
6.78767e-06
1.1104e-06
7.5703e-06
5.47153e-07
8.26765e-06
9.75965e-08
8.80044e-06
-1.91122e-07
9.03176e-06
-3.41812e-07
8.93622e-06
-4.0389e-07
8.61265e-06
-4.20401e-07
8.18148e-06
-4.17257e-07
7.7233e-06
-4.0412e-07
7.27482e-06
-3.80688e-07
6.84377e-06
-3.44657e-07
6.42684e-06
-2.97832e-07
6.02267e-06
-2.47604e-07
5.63676e-06
-2.03486e-07
5.27853e-06
-1.71869e-07
4.95498e-06
-1.5329e-07
4.66651e-06
-1.43781e-07
4.40773e-06
-1.38111e-07
4.17146e-06
-1.31985e-07
3.95191e-06
3.74371e-06
2.4629e-06
2.07011e-05
2.4596e-06
2.08243e-05
2.45635e-06
2.10025e-05
2.4508e-06
2.119e-05
2.43614e-06
2.13918e-05
2.4106e-06
2.165e-05
2.39523e-06
2.17318e-05
2.42421e-06
2.07475e-05
2.47925e-06
1.76966e-05
2.47818e-06
1.31737e-05
2.48458e-06
8.80378e-06
2.57193e-06
5.32496e-06
2.75645e-06
2.57143e-06
3.00714e-06
5.18977e-07
3.25515e-06
-7.57851e-07
3.50003e-06
-1.44381e-06
3.75814e-06
-1.8124e-06
4.03772e-06
-1.99557e-06
4.31298e-06
-1.96233e-06
4.52048e-06
-1.62887e-06
4.59849e-06
-8.32683e-07
4.57403e-06
-1.25429e-07
4.45423e-06
7.44992e-07
4.20401e-06
1.76759e-06
3.8594e-06
2.76346e-06
3.444e-06
3.72131e-06
2.95019e-06
4.6902e-06
2.38173e-06
5.63997e-06
1.76001e-06
6.56412e-06
1.11927e-06
7.42841e-06
5.04794e-07
8.18478e-06
-3.19926e-08
8.80444e-06
-4.1858e-07
9.18703e-06
-6.4007e-07
9.25325e-06
-7.33607e-07
9.02976e-06
-7.54187e-07
8.63323e-06
-7.42023e-07
8.16932e-06
-7.16475e-07
7.69776e-06
-6.81726e-07
7.24007e-06
-6.36129e-07
6.79818e-06
-5.80357e-07
6.37107e-06
-5.20659e-07
5.96298e-06
-4.66495e-07