/*--------------------------------*- C++ -*----------------------------------*\
  =========                 |
  \\      /  F ield         | OpenFOAM: The Open Source CFD Toolbox
   \\    /   O peration     | Website:  https://openfoam.org
    \\  /    A nd           | Version:  9
     \\/     M anipulation  |
\*---------------------------------------------------------------------------*/
FoamFile
{
    format      ascii;
    class       volScalarField;
    location    "0.2";
    object      rAU;
}
// * * * * * * * * * * * * * * * * * * * * * * * * * * * * * * * * * * * * * //

dimensions      [-1 3 1 0 0 0 0];

internalField   nonuniform List<scalar> 
5000
(
9.00717e-06
9.01112e-06
9.00631e-06
8.99211e-06
8.97142e-06
8.94964e-06
8.92998e-06
8.90455e-06
8.86438e-06
8.84632e-06
8.88191e-06
9.30131e-06
1.18296e-07
1.23898e-08
1.04785e-08
1.04981e-08
1.05073e-08
1.05203e-08
1.05385e-08
1.05569e-08
1.05102e-08
1.0492e-08
1.04619e-08
1.04229e-08
1.03798e-08
1.03379e-08
1.03014e-08
1.02682e-08
1.02312e-08
2.12948e-08
2.022e-06
5.74967e-06
7.13977e-06
8.33693e-06
8.37384e-06
8.20049e-06
8.08438e-06
8.01653e-06
7.97185e-06
7.9318e-06
7.88799e-06
7.83871e-06
7.78491e-06
7.7277e-06
7.66761e-06
7.6046e-06
7.53837e-06
7.46858e-06
7.39498e-06
7.54044e-06
8.99945e-06
9.00203e-06
8.99592e-06
8.98078e-06
8.95988e-06
8.9387e-06
8.91935e-06
8.89237e-06
8.85336e-06
8.84205e-06
8.57834e-06
9.2608e-06
1.67685e-07
1.31564e-08
1.04573e-08
1.0485e-08
1.04975e-08
1.05139e-08
1.05368e-08
1.05609e-08
1.05193e-08
1.05048e-08
1.04764e-08
1.04369e-08
1.03914e-08
1.03456e-08
1.03041e-08
1.02637e-08
1.03606e-08
2.72067e-08
4.24257e-06
6.18889e-06
6.50706e-06
8.2287e-06
8.44215e-06
8.28219e-06
8.15868e-06
8.08217e-06
8.03251e-06
7.99086e-06
7.94725e-06
7.89866e-06
7.84541e-06
7.78852e-06
7.7286e-06
7.66578e-06
7.59981e-06
7.53039e-06
7.45723e-06
7.60689e-06
8.9923e-06
8.99385e-06
8.98677e-06
8.97122e-06
8.95081e-06
8.93104e-06
8.91306e-06
8.88675e-06
8.8522e-06
8.83364e-06
8.62001e-06
9.35914e-06
1.31893e-06
1.50526e-08
1.04242e-08
1.04655e-08
1.04828e-08
1.05026e-08
1.053e-08
1.05594e-08
1.05225e-08
1.05125e-08
1.04875e-08
1.04498e-08
1.04044e-08
1.03573e-08
1.03127e-08
1.0267e-08
1.08192e-08
3.92449e-08
4.77363e-06
6.20292e-06
6.68503e-06
8.32022e-06
8.4541e-06
8.34834e-06
8.22299e-06
8.14157e-06
8.08827e-06
8.04547e-06
8.00228e-06
7.95467e-06
7.90232e-06
7.84605e-06
7.78654e-06
7.72398e-06
7.65822e-06
7.58899e-06
7.51608e-06
7.67071e-06
8.98579e-06
8.98654e-06
8.97885e-06
8.96333e-06
8.94401e-06
8.92632e-06
8.91059e-06
8.88688e-06
8.85948e-06
8.84927e-06
8.68253e-06
9.44621e-06
7.04913e-06
2.20218e-08
1.04817e-08
1.0438e-08
1.04608e-08
1.04844e-08
1.05162e-08
1.05504e-08
1.05168e-08
1.05114e-08
1.0491e-08
1.04571e-08
1.04143e-08
1.03688e-08
1.03249e-08
1.02781e-08
1.19635e-08
7.43307e-08
6.0618e-06
7.21984e-06
7.69594e-06
8.29333e-06
8.48651e-06
8.39936e-06
8.27815e-06
8.19463e-06
8.13921e-06
8.0958e-06
8.05331e-06
8.00692e-06
7.95579e-06
7.9005e-06
7.84171e-06
7.77972e-06
7.71442e-06
7.6456e-06
7.57328e-06
7.73346e-06
8.9799e-06
8.98002e-06
8.97203e-06
8.95695e-06
8.9392e-06
8.9241e-06
8.91123e-06
8.89156e-06
8.87307e-06
8.88546e-06
9.0947e-06
9.5539e-06
9.38725e-06
5.30999e-08
1.11704e-08
1.03993e-08
1.04297e-08
1.04583e-08
1.0495e-08
1.05334e-08
1.0501e-08
1.04998e-08
1.04844e-08
1.04552e-08
1.04156e-08
1.03727e-08
1.03318e-08
1.02876e-08
1.56574e-08
3.12555e-07
6.54475e-06
7.10536e-06
8.70051e-06
8.25989e-06
8.51076e-06
8.44162e-06
8.32835e-06
8.24305e-06
8.18643e-06
8.1428e-06
8.10113e-06
8.0561e-06
8.0064e-06
7.95238e-06
7.89466e-06
7.83357e-06
7.7691e-06
7.7011e-06
7.62992e-06
7.79601e-06
8.97457e-06
8.97422e-06
8.96616e-06
8.95184e-06
8.936e-06
8.92377e-06
8.91409e-06
8.89924e-06
8.89184e-06
8.93937e-06
9.21488e-06
9.37613e-06
9.61695e-06
1.2375e-06
1.41548e-08
1.0363e-08
1.0393e-08
1.04266e-08
1.0468e-08
1.05098e-08
1.04769e-08
1.04788e-08
1.04686e-08
1.04446e-08
1.04072e-08
1.03641e-08
1.03242e-08
1.11173e-08
3.71501e-08
3.5042e-06
5.82328e-06
6.39406e-06
8.86925e-06
8.62618e-06
8.53685e-06
8.48638e-06
8.37522e-06
8.28905e-06
8.23124e-06
8.18749e-06
8.14661e-06
8.10292e-06
8.0547e-06
8.00208e-06
7.94561e-06
7.8856e-06
7.82211e-06
7.75508e-06
7.68517e-06
7.85843e-06
8.9697e-06
8.96903e-06
8.96109e-06
8.94772e-06
8.93399e-06
8.92471e-06
8.91819e-06
8.90833e-06
8.91309e-06
8.97548e-06
8.8207e-06
9.25218e-06
9.63824e-06
6.51821e-06
3.77386e-08
1.12809e-08
1.03649e-08
1.03955e-08
1.04398e-08
1.04834e-08
1.04482e-08
1.0452e-08
1.04469e-08
1.04294e-08
1.03959e-08
1.03519e-08
1.07012e-08
2.28691e-08
7.06507e-07
4.16937e-06
5.7325e-06
6.79047e-06
8.75152e-06
8.92173e-06
8.61057e-06
8.5255e-06
8.41808e-06
8.33237e-06
8.27389e-06
8.23026e-06
8.19021e-06
8.14785e-06
8.10115e-06
8.05003e-06
7.99494e-06
7.9362e-06
7.87388e-06
7.80802e-06
7.73953e-06
7.91959e-06
8.96522e-06
8.96433e-06
8.95662e-06
8.94434e-06
8.93276e-06
8.92628e-06
8.92264e-06
8.91748e-06
8.93511e-06
8.97907e-06
8.80094e-06
9.49471e-06
9.71018e-06
9.38854e-06
2.5463e-06
2.96556e-08
1.13859e-08
1.03829e-08
1.04174e-08
1.04592e-08
1.04195e-08
1.04231e-08
1.0421e-08
1.04105e-08
1.03857e-08
1.17286e-08
2.51729e-08
4.98928e-07
6.93315e-06
4.9308e-06
5.08985e-06
7.53194e-06
7.88909e-06
8.98594e-06
8.77444e-06
8.56828e-06
8.45554e-06
8.37229e-06
8.31404e-06
8.27101e-06
8.23205e-06
8.19112e-06
8.14603e-06
8.09654e-06
8.04301e-06
7.98575e-06
7.92485e-06
7.86048e-06
7.79392e-06
7.98103e-06
8.96104e-06
8.95998e-06
8.95258e-06
8.94143e-06
8.93193e-06
8.92798e-06
8.92672e-06
8.9258e-06
8.95527e-06
8.99051e-06
8.84136e-06
9.5803e-06
9.72087e-06
8.62408e-06
8.6304e-06
2.38246e-06
3.57021e-08
1.30797e-08
1.04253e-08
1.04439e-08
1.03946e-08
1.03957e-08
1.07321e-08
1.22464e-08
1.77087e-08
5.04929e-08
1.26932e-06
7.33148e-06
9.4862e-06
7.06362e-06
5.0004e-06
6.39538e-06
7.98787e-06
9.016e-06
8.81647e-06
8.62337e-06
8.49167e-06
8.4082e-06
8.35177e-06
8.30987e-06
8.2723e-06
8.23297e-06
8.1896e-06
8.14184e-06
8.08998e-06
8.03431e-06
7.97497e-06
7.9124e-06
7.84861e-06
8.0446e-06
8.95706e-06
8.95588e-06
8.9488e-06
8.93875e-06
8.93119e-06
8.92939e-06
8.92996e-06
8.93292e-06
8.97353e-06
9.04317e-06
8.88379e-06
9.59172e-06
8.79077e-06
8.71923e-06
9.60012e-06
7.43418e-06
2.89314e-06
8.40158e-08
2.52748e-08
1.75872e-08
1.85037e-08
2.18741e-08
3.33562e-08
7.51167e-08
4.17792e-07
3.50969e-06
6.71429e-06
9.54805e-06
9.91238e-06
9.18046e-06
5.0213e-06
5.05932e-06
8.17421e-06
8.8623e-06
8.83082e-06
8.65371e-06
8.52723e-06
8.44186e-06
8.38773e-06
8.34753e-06
8.31156e-06
8.27392e-06
8.23234e-06
8.18638e-06
8.13629e-06
8.08233e-06
8.02476e-06
7.96439e-06
7.904e-06
8.1077e-06
8.9532e-06
8.95189e-06
8.94512e-06
8.93611e-06
8.93028e-06
8.93022e-06
8.93211e-06
8.93867e-06
8.9896e-06
8.99106e-06
9.07469e-06
8.78435e-06
8.35061e-06
9.57607e-06
1.01023e-05
9.72883e-06
7.67549e-06
4.50659e-06
2.1314e-06
5.42482e-07
7.06931e-07
1.35104e-06
2.97819e-06
4.46165e-06
6.34573e-06
8.06443e-06
9.48127e-06
9.96492e-06
9.95557e-06
9.81558e-06
6.00008e-06
5.10087e-06
7.85565e-06
8.78291e-06
8.84717e-06
8.67579e-06
8.55923e-06
8.47686e-06
8.42377e-06
8.38532e-06
8.35085e-06
8.31481e-06
8.27493e-06
8.23076e-06
8.18246e-06
8.13031e-06
8.07478e-06
8.01706e-06
7.96009e-06
8.16925e-06
8.9494e-06
8.94794e-06
8.94143e-06
8.93334e-06
8.92899e-06
8.93025e-06
8.93308e-06
8.9431e-06
8.99547e-06
8.98668e-06
9.37712e-06
8.2397e-06
8.36096e-06
9.96815e-06
1.01909e-05
1.01618e-05
9.84187e-06
8.85543e-06
7.43588e-06
6.8043e-06
6.89192e-06
7.18459e-06
7.78456e-06
8.62708e-06
9.39296e-06
9.77728e-06
9.97316e-06
9.99928e-06
9.93946e-06
9.8475e-06
8.40587e-06
5.23045e-06
8.03969e-06
8.89136e-06
8.86748e-06
8.70499e-06
8.59028e-06
8.51221e-06
8.46102e-06
8.42403e-06
8.39085e-06
8.35619e-06
8.31785e-06
8.27534e-06
8.22879e-06
8.17855e-06
8.12534e-06
8.07063e-06
8.01667e-06
8.22978e-06
8.94559e-06
8.94394e-06
8.9376e-06
8.9303e-06
8.92714e-06
8.9293e-06
8.93281e-06
8.94655e-06
8.99624e-06
9.07915e-06
9.46453e-06
8.2673e-06
9.0355e-06
1.01446e-05
1.02301e-05
1.025e-05
1.0208e-05
1.00638e-05
9.81947e-06
9.68756e-06
9.65035e-06
9.70867e-06
9.8123e-06
9.91934e-06
9.97441e-06
9.97632e-06
9.97148e-06
9.95169e-06
9.90606e-06
9.82632e-06
9.40745e-06
6.53501e-06
8.42259e-06
9.04482e-06
8.87952e-06
8.73213e-06
8.61972e-06
8.54702e-06
8.49879e-06
8.46333e-06
8.43141e-06
8.39803e-06
8.36112e-06
8.32021e-06
8.27543e-06
8.22727e-06
8.1767e-06
8.12516e-06
8.07373e-06
8.29018e-06
8.94171e-06
8.93981e-06
8.93357e-06
8.92688e-06
8.92461e-06
8.92727e-06
8.93126e-06
8.94914e-06
9.01466e-06
9.22036e-06
8.9735e-06
8.26798e-06
9.95139e-06
1.01899e-05
1.02605e-05
1.02898e-05
1.02873e-05
1.0263e-05
1.02248e-05
1.02016e-05
1.0108e-05
1.0085e-05
1.00679e-05
1.00457e-05
1.00117e-05
9.97048e-06
9.92965e-06
9.8973e-06
9.85695e-06
9.79158e-06
9.66746e-06
9.15107e-06
8.35327e-06
9.04958e-06
8.89203e-06
8.75263e-06
8.64743e-06
8.58055e-06
8.53586e-06
8.50242e-06
8.47195e-06
8.43991e-06
8.40447e-06
8.36521e-06
8.32232e-06
8.27648e-06
8.22879e-06
8.18027e-06
8.13066e-06
8.35001e-06
8.93775e-06
8.93553e-06
8.92926e-06
8.923e-06
8.92129e-06
8.92402e-06
8.92833e-06
8.9507e-06
9.04425e-06
9.23263e-06
8.05995e-06
8.2691e-06
1.00467e-05
1.02174e-05
1.02858e-05
1.03181e-05
1.0324e-05
1.0315e-05
1.02987e-05
1.02824e-05
1.01746e-05
1.01336e-05
1.00928e-05
1.00477e-05
9.99706e-06
9.94398e-06
9.87156e-06
9.84437e-06
9.79609e-06
9.73847e-06
9.63886e-06
9.1135e-06
8.24953e-06
9.01337e-06
8.90367e-06
8.76844e-06
8.67237e-06
8.61209e-06
8.57149e-06
8.54058e-06
8.51187e-06
8.48137e-06
8.44753e-06
8.41005e-06
8.36927e-06
8.326e-06
8.28126e-06
8.23535e-06
8.18682e-06
8.40877e-06
8.93367e-06
8.93106e-06
8.92465e-06
8.91859e-06
8.91711e-06
8.91947e-06
8.92386e-06
8.95115e-06
9.06492e-06
9.06616e-06
8.12187e-06
9.30187e-06
1.01385e-05
1.024e-05
1.03091e-05
1.033e-05
1.03482e-05
1.03434e-05
1.03269e-05
1.03064e-05
1.0191e-05
1.01417e-05
1.00913e-05
1.0037e-05
9.97834e-06
9.9173e-06
9.7807e-06
9.51429e-06
9.694e-06
9.67479e-06
9.553e-06
8.46874e-06
8.2116e-06
8.92841e-06
8.90105e-06
8.77816e-06
8.69413e-06
8.64059e-06
8.60501e-06
8.57726e-06
8.55075e-06
8.52212e-06
8.49014e-06
8.45471e-06
8.41635e-06
8.37592e-06
8.3341e-06
8.29034e-06
8.24237e-06
8.46708e-06
8.92947e-06
8.92639e-06
8.91971e-06
8.91365e-06
8.91202e-06
8.91357e-06
8.91779e-06
8.95045e-06
9.07975e-06
8.89522e-06
8.16949e-06
9.91903e-06
1.01499e-05
1.0254e-05
1.00947e-05
1.01598e-05
1.03727e-05
1.03662e-05
1.03466e-05
1.03212e-05
1.0199e-05
1.01431e-05
1.00855e-05
1.00239e-05
9.95825e-06
9.89018e-06
9.6178e-06
9.4007e-06
9.58082e-06
9.60797e-06
9.47445e-06
8.32995e-06
8.17404e-06
8.71711e-06
8.89123e-06
8.78303e-06
8.7115e-06
8.66637e-06
8.63655e-06
8.61256e-06
8.58871e-06
8.56231e-06
8.53254e-06
8.49955e-06
8.46401e-06
8.42669e-06
8.38767e-06
8.34562e-06
8.29795e-06
8.52594e-06
8.92516e-06
8.92153e-06
8.91447e-06
8.90818e-06
8.90604e-06
8.90634e-06
8.91016e-06
8.94836e-06
9.09259e-06
9.00217e-06
8.18715e-06
9.90099e-06
1.01572e-05
1.00193e-05
1.00548e-05
1.03117e-05
1.04006e-05
1.0384e-05
1.03619e-05
1.03349e-05
1.02057e-05
1.01433e-05
1.00787e-05
1.00098e-05
9.93687e-06
9.86167e-06
9.5855e-06
9.35283e-06
9.37094e-06
9.53752e-06
9.42728e-06
8.38277e-06
8.13674e-06
8.55155e-06
8.87881e-06
8.7854e-06
8.72738e-06
8.69127e-06
8.66743e-06
8.64744e-06
8.62653e-06
8.60266e-06
8.57542e-06
8.54526e-06
8.5129e-06
8.47878e-06
8.44227e-06
8.40155e-06
8.35418e-06
8.58623e-06
8.92077e-06
8.91654e-06
8.90897e-06
8.90224e-06
8.89924e-06
8.89788e-06
8.90104e-06
8.94471e-06
9.10307e-06
8.90984e-06
8.20035e-06
9.90802e-06
1.01448e-05
1.00001e-05
1.00752e-05
1.04059e-05
1.04054e-05
1.03774e-05
1.02563e-05
1.01317e-05
1.01366e-05
1.01438e-05
1.00724e-05
9.99565e-06
9.91497e-06
9.83269e-06
9.61503e-06
9.3085e-06
9.22967e-06
9.4522e-06
9.36874e-06
8.66628e-06
8.10548e-06
8.59363e-06
8.86917e-06
8.79047e-06
8.74508e-06
8.71762e-06
8.69952e-06
8.68342e-06
8.66545e-06
8.64422e-06
8.61976e-06
8.59269e-06
8.56363e-06
8.53247e-06
8.49804e-06
8.45838e-06
8.41167e-06
8.64893e-06
8.91633e-06
8.91145e-06
8.90328e-06
8.89591e-06
8.89173e-06
8.88834e-06
8.89059e-06
8.93935e-06
9.09499e-06
8.57595e-06
8.8094e-06
9.9615e-06
1.01414e-05
1.00193e-05
1.00969e-05
1.03984e-05
1.03844e-05
1.01633e-05
9.87208e-06
9.85766e-06
9.76631e-06
1.00279e-05
1.00673e-05
9.98238e-06
9.89332e-06
9.80389e-06
9.56166e-06
9.26729e-06
9.18338e-06
9.38655e-06
9.31831e-06
8.82126e-06
8.08355e-06
8.75758e-06
8.86712e-06
8.8016e-06
8.76735e-06
8.74767e-06
8.73465e-06
8.72202e-06
8.70678e-06
8.68817e-06
8.66654e-06
8.64253e-06
8.61642e-06
8.58759e-06
8.55465e-06
8.51603e-06
8.47084e-06
8.71541e-06
8.91191e-06
8.90634e-06
8.8975e-06
8.88933e-06
8.8837e-06
8.87798e-06
8.87911e-06
8.93241e-06
9.03902e-06
8.59694e-06
9.69482e-06
9.98112e-06
9.93156e-06
1.00375e-05
1.01977e-05
1.03838e-05
1.02232e-05
9.86776e-06
9.84167e-06
9.83076e-06
9.73879e-06
9.71203e-06
1.0005e-05
9.97021e-06
9.87266e-06
9.77619e-06
9.36821e-06
9.22667e-06
9.14481e-06
9.35766e-06
9.27787e-06
8.96017e-06
8.07283e-06
8.89135e-06
8.87322e-06
8.8213e-06
8.79608e-06
8.78305e-06
8.77424e-06
8.76449e-06
8.75167e-06
8.73551e-06
8.71649e-06
8.69499e-06
8.67075e-06
8.64269e-06
8.60929e-06
8.56933e-06
8.52228e-06
8.76892e-06
8.90757e-06
8.90131e-06
8.89175e-06
8.88266e-06
8.87539e-06
8.86716e-06
8.86706e-06
8.92443e-06
8.96939e-06
8.60753e-06
9.69556e-06
9.96669e-06
9.92974e-06
1.00592e-05
1.0368e-05
1.03188e-05
9.87921e-06
9.84051e-06
9.83739e-06
9.8041e-06
9.71474e-06
9.70416e-06
9.96547e-06
9.95911e-06
9.85404e-06
9.62045e-06
9.28643e-06
9.19282e-06
9.29334e-06
9.33723e-06
9.24078e-06
8.82645e-06
8.34658e-06
8.94685e-06
8.88792e-06
8.84964e-06
8.83231e-06
8.82472e-06
8.8192e-06
8.81177e-06
8.80111e-06
8.78729e-06
8.7707e-06
8.75139e-06
8.72868e-06
8.70144e-06
8.66859e-06
8.62957e-06
8.58438e-06
8.83822e-06
8.90337e-06
8.89645e-06
8.88616e-06
8.87609e-06
8.86708e-06
8.85632e-06
8.85498e-06
8.91587e-06
8.9702e-06
8.60551e-06
9.64359e-06
9.97956e-06
9.9877e-06
1.02856e-05
1.03554e-05
1.00815e-05
9.85589e-06
9.98667e-06
1.02084e-05
1.01015e-05
9.70021e-06
9.91976e-06
1.00512e-05
9.94881e-06
9.82552e-06
9.37336e-06
9.26342e-06
9.16864e-06
9.38849e-06
9.30847e-06
9.20992e-06
8.72539e-06
8.90927e-06
8.9656e-06
8.91261e-06
8.87117e-06
8.8384e-06
8.82412e-06
8.81609e-06
8.80929e-06
8.80372e-06
8.80111e-06
8.80187e-06
8.80236e-06
8.79005e-06
8.76365e-06
8.73184e-06
8.69447e-06
8.65161e-06
8.91319e-06
8.89939e-06
8.89187e-06
8.88089e-06
8.86984e-06
8.85909e-06
8.8459e-06
8.84334e-06
8.90686e-06
8.95701e-06
8.60135e-06
9.63553e-06
1.00294e-05
1.02179e-05
1.01481e-05
1.01232e-05
1.00432e-05
1.01295e-05
1.02233e-05
1.02044e-05
1.01998e-05
1.00828e-05
9.97507e-06
1.0046e-05
9.94692e-06
9.5836e-06
9.35562e-06
9.25199e-06
9.35485e-06
9.38866e-06
9.2903e-06
8.99217e-06
8.71084e-06
8.84035e-06
8.95222e-06
8.85371e-06
8.80106e-06
8.77867e-06
8.76933e-06
8.76389e-06
8.75988e-06
8.75818e-06
8.75952e-06
8.76215e-06
8.76187e-06
8.75408e-06
8.73606e-06
8.70785e-06
8.67117e-06
8.62783e-06
7.93053e-06
8.89571e-06
8.88766e-06
8.87607e-06
8.8641e-06
8.85171e-06
8.83635e-06
8.83266e-06
8.8972e-06
8.60172e-06
8.59083e-06
9.66536e-06
1.00295e-05
1.02424e-05
1.01188e-05
1.00887e-05
1.01274e-05
1.02379e-05
1.02018e-05
1.0181e-05
1.01852e-05
1.01203e-05
9.57966e-06
9.5287e-06
9.9164e-06
9.46823e-06
9.3538e-06
9.29524e-06
9.4799e-06
9.3848e-06
9.28466e-06
8.79635e-06
8.70341e-06
8.76213e-06
8.84963e-06
8.77123e-06
8.7358e-06
8.72252e-06
8.71771e-06
8.71563e-06
8.71561e-06
8.71817e-06
8.72214e-06
8.72394e-06
8.7191e-06
8.70454e-06
8.67974e-06
8.64612e-06
8.60553e-06
8.55925e-06
7.82967e-06
8.89238e-06
8.88392e-06
8.87184e-06
8.85906e-06
8.84526e-06
8.8281e-06
8.82344e-06
8.88253e-06
8.38461e-06
8.63028e-06
9.7121e-06
1.00261e-05
1.02427e-05
1.0132e-05
1.01092e-05
1.02615e-05
1.02174e-05
1.018e-05
1.01637e-05
1.01796e-05
1.01087e-05
9.44359e-06
9.33266e-06
9.80235e-06
9.65663e-06
9.36816e-06
9.52911e-06
9.4973e-06
9.39195e-06
9.10681e-06
8.77284e-06
8.60641e-06
8.7827e-06
8.75281e-06
8.69952e-06
8.67878e-06
8.67295e-06
8.67253e-06
8.67457e-06
8.67887e-06
8.68448e-06
8.68837e-06
8.68632e-06
8.67507e-06
8.65364e-06
8.6231e-06
8.58532e-06
8.54173e-06
8.49295e-06
7.73309e-06
8.88946e-06
8.88073e-06
8.86831e-06
8.8549e-06
8.83999e-06
8.82154e-06
8.81619e-06
8.85791e-06
8.44497e-06
9.22493e-06
9.7284e-06
1.002e-05
1.00273e-05
1.01389e-05
1.02951e-05
1.02502e-05
1.01982e-05
1.01632e-05
1.01483e-05
1.01851e-05
1.00861e-05
9.46668e-06
9.34876e-06
9.56756e-06
9.84821e-06
9.57114e-06
9.61978e-06
9.5159e-06
9.39621e-06
8.84785e-06
8.64271e-06
8.53981e-06
8.74382e-06
8.67427e-06
8.64229e-06
8.63291e-06
8.63306e-06
8.63701e-06
8.64325e-06
8.65068e-06
8.65664e-06
8.65724e-06
8.64914e-06
8.63102e-06
8.60362e-06
8.56869e-06
8.52778e-06
8.48171e-06
8.43064e-06
7.64291e-06
8.887e-06
8.87814e-06
8.86555e-06
8.85175e-06
8.8361e-06
8.81693e-06
8.81136e-06
8.84893e-06
8.49837e-06
9.36379e-06
9.71589e-06
1.0002e-05
9.98467e-06
1.01433e-05
1.03001e-05
1.02351e-05
1.01841e-05
1.01537e-05
1.01451e-05
1.02027e-05
1.0058e-05
9.47438e-06
9.36211e-06
9.67418e-06
9.87694e-06
9.7597e-06
9.64661e-06
9.53353e-06
9.06051e-06
8.69282e-06
8.5088e-06
8.69982e-06
8.66268e-06
8.61732e-06
8.60145e-06
8.60034e-06
8.6054e-06
8.61335e-06
8.62255e-06
8.63047e-06
8.63349e-06
8.62826e-06
8.61324e-06
8.58886e-06
8.55675e-06
8.51852e-06
8.47513e-06
8.4269e-06
8.3737e-06
7.56097e-06
8.88502e-06
8.8762e-06
8.86363e-06
8.84967e-06
8.8337e-06
8.81442e-06
8.80899e-06
8.84008e-06
8.85995e-06
9.33888e-06
9.7015e-06
9.97512e-06
9.9936e-06
1.03326e-05
1.02955e-05
1.02259e-05
9.90577e-06
9.96264e-06
1.01501e-05
1.02329e-05
1.00111e-05
9.49269e-06
9.38901e-06
9.95689e-06
9.89685e-06
9.78366e-06
9.64015e-06
9.25635e-06
8.7828e-06
8.55999e-06
8.67037e-06
8.66722e-06
8.60754e-06
8.58239e-06
8.57764e-06
8.5824e-06
8.59138e-06
8.60199e-06
8.61162e-06
8.61679e-06
8.61416e-06
8.60197e-06
8.58043e-06
8.55102e-06
8.51543e-06
8.47479e-06
8.42951e-06
8.37948e-06
8.3244e-06
7.4902e-06
8.88353e-06
8.87491e-06
8.86254e-06
8.8487e-06
8.83282e-06
8.81399e-06
8.80916e-06
8.84459e-06
9.04337e-06
9.31109e-06
9.6868e-06
9.96428e-06
9.99425e-06
1.03527e-05
1.029e-05
1.01569e-05
9.46943e-06
9.45724e-06
1.01259e-05
1.02759e-05
9.99848e-06
9.50552e-06
9.88374e-06
1.00293e-05
9.91117e-06
9.7475e-06
9.41146e-06
8.90789e-06
8.69069e-06
8.71988e-06
8.69006e-06
8.61552e-06
8.57885e-06
8.5679e-06
8.57045e-06
8.57928e-06
8.59063e-06
8.60153e-06
8.60852e-06
8.60827e-06
8.59877e-06
8.57999e-06
8.55329e-06
8.52037e-06
8.48253e-06
8.44031e-06
8.39364e-06
8.34206e-06
8.28521e-06
7.4337e-06
8.88251e-06
8.87425e-06
8.86229e-06
8.84881e-06
8.8334e-06
8.81555e-06
8.81175e-06
8.86684e-06
9.04675e-06
9.31225e-06
9.67275e-06
9.95875e-06
9.99064e-06
1.0336e-05
1.02887e-05
9.6054e-06
9.46518e-06
9.5593e-06
1.01931e-05
1.0331e-05
9.9156e-06
9.51057e-06
1.01313e-05
1.00323e-05
9.85486e-06
9.56496e-06
9.06255e-06
8.79389e-06
8.7745e-06
8.73062e-06
8.64195e-06
8.59267e-06
8.57314e-06
8.57131e-06
8.57845e-06
8.5895e-06
8.60094e-06
8.60924e-06
8.61101e-06
8.60405e-06
8.58802e-06
8.56407e-06
8.53389e-06
8.49888e-06
8.45971e-06
8.41636e-06
8.36835e-06
8.31511e-06
8.25638e-06
7.39159e-06
8.88194e-06
8.87418e-06
8.8628e-06
8.84992e-06
8.83533e-06
8.81889e-06
8.81644e-06
8.86189e-06
9.0457e-06
9.32893e-06
9.66078e-06
9.94798e-06
9.98419e-06
1.03377e-05
1.02353e-05
9.5228e-06
9.47038e-06
1.01177e-05
1.0261e-05
1.03767e-05
9.71734e-06
9.58433e-06
1.01377e-05
9.96606e-06
9.70114e-06
9.34149e-06
8.94975e-06
8.8513e-06
8.79079e-06
8.68665e-06
8.62406e-06
8.59424e-06
8.58589e-06
8.58957e-06
8.59902e-06
8.61e-06
8.61881e-06
8.62198e-06
8.61713e-06
8.6036e-06
8.58227e-06
8.55473e-06
8.52238e-06
8.48602e-06
8.44572e-06
8.40104e-06
8.35132e-06
8.29617e-06
8.23555e-06
7.3608e-06
8.88178e-06
8.87465e-06
8.86401e-06
8.85193e-06
8.83844e-06
8.82374e-06
8.82277e-06
8.8629e-06
9.04508e-06
9.32303e-06
9.64991e-06
9.93581e-06
9.97636e-06
1.03404e-05
1.01091e-05
9.53361e-06
9.83611e-06
1.02134e-05
1.0317e-05
1.04534e-05
9.90432e-06
9.86618e-06
1.00828e-05
9.82835e-06
9.52754e-06
9.2171e-06
9.01686e-06
8.87013e-06
8.74924e-06
8.67222e-06
8.63081e-06
8.61418e-06
8.61263e-06
8.61903e-06
8.62842e-06
8.63676e-06
8.64049e-06
8.63704e-06
8.62546e-06
8.60632e-06
8.58104e-06
8.55099e-06
8.51701e-06
8.47928e-06
8.43748e-06
8.391e-06
8.33934e-06
8.28233e-06
8.22013e-06
7.33798e-06
8.88198e-06
8.87558e-06
8.86581e-06
8.85471e-06
8.84252e-06
8.82981e-06
8.83043e-06
8.87004e-06
9.04596e-06
9.31775e-06
9.64106e-06
9.93425e-06
9.96604e-06
1.02899e-05
9.87998e-06
9.54439e-06
1.01677e-05
1.02536e-05
1.03862e-05
1.05086e-05
1.03036e-05
1.01794e-05
9.97597e-06
9.67058e-06
9.38898e-06
9.15507e-06
8.96817e-06
8.82874e-06
8.7361e-06
8.6817e-06
8.6553e-06
8.64697e-06
8.64895e-06
8.65559e-06
8.66247e-06
8.66586e-06
8.66302e-06
8.6527e-06
8.63519e-06
8.61167e-06
8.58344e-06
8.55136e-06
8.5157e-06
8.47628e-06
8.43263e-06
8.38424e-06
8.33083e-06
8.27239e-06
8.20906e-06
7.32162e-06
8.88246e-06
8.87688e-06
8.86809e-06
8.85809e-06
8.84737e-06
8.8368e-06
8.83894e-06
8.87875e-06
9.04905e-06
9.31512e-06
9.63439e-06
9.93901e-06
1.00276e-05
1.0282e-05
9.65771e-06
9.56027e-06
1.02132e-05
1.03039e-05
1.04663e-05
1.04963e-05
1.03264e-05
1.0119e-05
9.82711e-06
9.53658e-06
9.28444e-06
9.08006e-06
8.92345e-06
8.81411e-06
8.74547e-06
8.70788e-06
8.69141e-06
8.68773e-06
8.69059e-06
8.69513e-06
8.6974e-06
8.69447e-06
8.68479e-06
8.66836e-06
8.64614e-06
8.61932e-06
8.58877e-06
8.55482e-06
8.5174e-06
8.47617e-06
8.43072e-06
8.38072e-06
8.32602e-06
8.26662e-06
8.20253e-06
7.31173e-06
8.88316e-06
8.87845e-06
8.87072e-06
8.8619e-06
8.85273e-06
8.84437e-06
8.84767e-06
8.8886e-06
9.05569e-06
9.31493e-06
9.62987e-06
9.94825e-06
1.01599e-05
1.02225e-05
9.68532e-06
1.00431e-05
1.02661e-05
1.03554e-05
1.05422e-05
1.04593e-05
1.02652e-05
1.00054e-05
9.69763e-06
9.42747e-06
9.204e-06
9.03015e-06
8.90405e-06
8.82027e-06
8.77029e-06
8.74444e-06
8.73405e-06
8.73224e-06
8.73372e-06
8.73428e-06
8.73072e-06
8.72123e-06
8.70548e-06
8.68421e-06
8.65852e-06
8.62926e-06
8.59681e-06
8.56116e-06
8.52208e-06
8.47924e-06
8.43235e-06
8.38117e-06
8.32559e-06
8.26553e-06
8.20087e-06
7.30863e-06
8.88399e-06
8.88019e-06
8.87356e-06
8.86597e-06
8.85836e-06
8.8522e-06
8.85767e-06
8.89917e-06
9.06492e-06
9.31676e-06
9.62727e-06
9.94462e-06
1.01867e-05
1.01807e-05
9.7223e-06
1.02915e-05
1.0306e-05
1.03763e-05
1.05105e-05
1.04148e-05
1.01794e-05
9.88142e-06
9.5894e-06
9.34264e-06
9.148e-06
9.0037e-06
8.90398e-06
8.84068e-06
8.80445e-06
8.78641e-06
8.77919e-06
8.77705e-06
8.77546e-06
8.77094e-06
8.76136e-06
8.74606e-06
8.72553e-06
8.70077e-06
8.67264e-06
8.64155e-06
8.60755e-06
8.57046e-06
8.53001e-06
8.48592e-06
8.43797e-06
8.38597e-06
8.32976e-06
8.2692e-06
8.2041e-06
7.31226e-06
8.88488e-06
8.88199e-06
8.87647e-06
8.87012e-06
8.86404e-06
8.85998e-06
8.86839e-06
8.91973e-06
9.07414e-06
9.31957e-06
9.62538e-06
9.93942e-06
1.01698e-05
1.01402e-05
9.93383e-06
1.03261e-05
1.0355e-05
1.04241e-05
1.02906e-05
1.03487e-05
1.00823e-05
9.77363e-06
9.50117e-06
9.28e-06
9.1132e-06
8.99526e-06
8.91738e-06
8.86982e-06
8.84334e-06
8.83009e-06
8.82386e-06
8.81979e-06
8.81412e-06
8.80434e-06
8.78941e-06
8.76953e-06
8.74561e-06
8.71848e-06
8.68865e-06
8.6562e-06
8.62098e-06
8.58276e-06
8.54127e-06
8.49628e-06
8.44759e-06
8.39499e-06
8.33831e-06
8.27735e-06
8.21193e-06
7.3223e-06
8.88575e-06
8.88375e-06
8.87931e-06
8.87416e-06
8.86952e-06
8.86743e-06
8.87959e-06
8.93878e-06
9.08217e-06
9.32083e-06
9.62252e-06
9.9039e-06
1.01442e-05
1.02016e-05
1.03613e-05
1.03742e-05
1.04114e-05
1.0501e-05
1.00172e-05
1.02001e-05
9.97681e-06
9.68245e-06
9.43183e-06
9.23629e-06
9.09512e-06
8.99975e-06
8.93933e-06
8.90352e-06
8.88365e-06
8.87294e-06
8.86614e-06
8.85919e-06
8.84919e-06
8.83469e-06
8.81552e-06
8.79241e-06
8.76623e-06
8.73755e-06
8.70653e-06
8.67306e-06
8.6369e-06
8.59782e-06
8.55556e-06
8.50992e-06
8.46068e-06
8.40765e-06
8.35063e-06
8.28943e-06
8.22384e-06
7.33808e-06
8.88653e-06
8.88536e-06
8.88195e-06
8.87792e-06
8.87461e-06
8.8743e-06
8.88892e-06
8.94934e-06
9.08927e-06
9.32671e-06
9.62521e-06
9.78219e-06
1.00401e-05
1.01587e-05
1.04809e-05
1.04198e-05
1.04718e-05
1.05036e-05
9.87952e-06
9.88913e-06
9.88402e-06
9.60702e-06
9.37917e-06
9.20804e-06
9.08961e-06
9.01298e-06
8.96615e-06
8.93885e-06
8.92323e-06
8.91345e-06
8.90509e-06
8.89492e-06
8.88098e-06
8.86269e-06
8.8405e-06
8.81527e-06
8.78766e-06
8.75796e-06
8.72611e-06
8.69189e-06
8.65505e-06
8.61536e-06
8.57259e-06
8.52653e-06
8.47698e-06
8.42373e-06
8.36659e-06
8.30536e-06
8.23979e-06
7.35958e-06
8.88713e-06
8.88674e-06
8.88428e-06
8.88126e-06
8.87911e-06
8.88035e-06
8.89694e-06
8.95884e-06
9.09789e-06
9.33343e-06
9.62833e-06
9.75822e-06
9.9774e-06
1.00927e-05
9.88343e-06
1.00646e-05
1.05337e-05
1.04239e-05
9.53097e-06
9.76602e-06
9.80385e-06
9.54595e-06
9.34069e-06
9.19199e-06
9.09315e-06
9.03171e-06
8.99525e-06
8.97396e-06
8.96086e-06
8.95095e-06
8.94058e-06
8.92735e-06
8.91018e-06
8.88914e-06
8.86497e-06
8.83844e-06
8.80997e-06
8.77961e-06
8.7472e-06
8.71249e-06
8.67524e-06
8.63523e-06
8.59224e-06
8.54607e-06
8.49648e-06
8.44325e-06
8.38615e-06
8.32498e-06
8.25952e-06
7.38641e-06
8.8875e-06
8.88778e-06
8.88617e-06
8.88403e-06
8.88284e-06
8.88539e-06
8.90372e-06
8.96681e-06
9.10575e-06
9.33895e-06
9.60739e-06
9.812e-06
9.95417e-06
9.45388e-06
9.6165e-06
9.64991e-06
1.0584e-05
1.02087e-05
9.4747e-06
9.47747e-06
9.73558e-06
9.49759e-06
9.31395e-06
9.18533e-06
9.103e-06
9.05365e-06
9.02496e-06
9.00781e-06
8.99604e-06
8.9854e-06
8.97298e-06
8.95716e-06
8.93758e-06
8.91472e-06
8.88935e-06
8.86208e-06
8.83311e-06
8.80236e-06
8.76962e-06
8.73464e-06
8.69721e-06
8.65712e-06
8.61415e-06
8.56805e-06
8.51855e-06
8.46539e-06
8.40836e-06
8.34731e-06
8.28206e-06
7.41734e-06
8.88757e-06
8.88843e-06
8.88753e-06
8.88611e-06
8.88566e-06
8.88922e-06
8.90902e-06
8.97157e-06
9.11233e-06
9.34368e-06
9.58761e-06
9.88656e-06
9.82505e-06
9.44282e-06
9.61514e-06
1.03612e-05
1.05898e-05
9.93299e-06
9.42252e-06
9.16075e-06
9.62657e-06
9.46045e-06
9.29682e-06
9.18577e-06
9.1171e-06
9.07723e-06
9.0543e-06
9.03996e-06
9.02876e-06
9.01714e-06
9.0029e-06
8.98509e-06
8.96386e-06
8.93988e-06
8.91386e-06
8.88622e-06
8.85699e-06
8.82605e-06
8.79316e-06
8.7581e-06
8.72067e-06
8.68067e-06
8.63784e-06
8.5919e-06
8.54253e-06
8.48948e-06
8.43261e-06
8.37183e-06
8.30699e-06
7.45185e-06
8.88731e-06
8.88861e-06
8.88827e-06
8.88737e-06
8.88742e-06
8.89169e-06
8.91263e-06
8.97661e-06
9.11957e-06
9.34388e-06
9.58736e-06
9.88901e-06
9.84791e-06
9.44166e-06
9.71946e-06
1.05957e-05
1.05716e-05
9.8941e-06
9.37075e-06
9.11112e-06
9.60881e-06
9.43313e-06
9.2875e-06
9.19153e-06
9.13402e-06
9.10153e-06
9.08286e-06
9.07039e-06
9.05933e-06
9.04674e-06
9.03102e-06
9.01179e-06
8.98952e-06
8.96494e-06
8.93864e-06
8.91086e-06
8.88157e-06
8.8506e-06
8.81774e-06
8.78277e-06
8.74552e-06
8.70576e-06
8.66323e-06
8.61757e-06
8.56844e-06
8.51562e-06
8.45903e-06
8.39865e-06
8.33432e-06
7.4899e-06
8.88667e-06
8.88828e-06
8.88833e-06
8.88775e-06
8.88802e-06
8.89266e-06
8.91436e-06
8.98087e-06
9.12414e-06
9.33846e-06
9.60039e-06
9.88305e-06
9.87295e-06
9.44106e-06
1.02031e-05
1.06154e-05
1.05641e-05
9.98738e-06
9.31259e-06
9.24394e-06
9.59516e-06
9.41427e-06
9.28446e-06
9.20125e-06
9.15281e-06
9.12605e-06
9.11051e-06
9.0993e-06
9.08819e-06
9.07475e-06
9.05794e-06
9.03779e-06
9.01494e-06
8.99011e-06
8.96376e-06
8.93602e-06
8.90681e-06
8.87596e-06
8.84327e-06
8.80856e-06
8.77164e-06
8.73228e-06
8.69014e-06
8.64482e-06
8.59594e-06
8.54332e-06
8.48699e-06
8.427e-06
8.36319e-06
7.53034e-06
8.88563e-06
8.8874e-06
8.88766e-06
8.88719e-06
8.8874e-06
8.89205e-06
8.91409e-06
8.98131e-06
9.1241e-06
9.34404e-06
9.62318e-06
9.87494e-06
9.92036e-06
9.47013e-06
1.04524e-05
1.06126e-05
1.05506e-05
9.99627e-06
9.24766e-06
9.72296e-06
9.56883e-06
9.40236e-06
9.2864e-06
9.21395e-06
9.17285e-06
9.15056e-06
9.13738e-06
9.12703e-06
9.1158e-06
9.10171e-06
9.08416e-06
9.06347e-06
9.04038e-06
9.01554e-06
8.98929e-06
8.96171e-06
8.93269e-06
8.90205e-06
8.86962e-06
8.83523e-06
8.79868e-06
8.75969e-06
8.71783e-06
8.67266e-06
8.62384e-06
8.5713e-06
8.5152e-06
8.45568e-06
8.39255e-06
7.57182e-06
8.88418e-06
8.88596e-06
8.88624e-06
8.88564e-06
8.88551e-06
8.88979e-06
8.91175e-06
8.979e-06
9.12129e-06
9.34698e-06
9.61387e-06
9.85262e-06
9.60042e-06
9.43137e-06
1.05177e-05
1.06106e-05
1.05209e-05
9.90574e-06
9.20304e-06
9.78047e-06
9.54823e-06
9.39609e-06
9.29231e-06
9.22892e-06
9.19382e-06
9.17504e-06
9.16365e-06
9.15394e-06
9.1426e-06
9.12807e-06
9.11008e-06
9.08915e-06
9.06603e-06
9.04133e-06
9.0153e-06
8.98796e-06
8.95919e-06
8.92881e-06
8.89666e-06
8.86256e-06
8.82628e-06
8.78745e-06
8.74564e-06
8.70041e-06
8.65157e-06
8.59924e-06
8.54368e-06
8.48497e-06
8.42279e-06
7.61488e-06
8.88232e-06
8.88395e-06
8.88408e-06
8.8831e-06
8.88233e-06
8.88588e-06
8.90729e-06
8.97406e-06
9.11599e-06
9.33907e-06
9.59887e-06
9.79103e-06
9.15505e-06
9.38858e-06
1.04514e-05
1.05796e-05
1.04669e-05
9.78936e-06
9.14748e-06
9.71429e-06
9.53383e-06
9.39458e-06
9.30154e-06
9.24579e-06
9.21557e-06
9.19958e-06
9.18959e-06
9.18036e-06
9.16898e-06
9.1542e-06
9.136e-06
9.11505e-06
9.09208e-06
9.06763e-06
9.0419e-06
9.01486e-06
8.98639e-06
8.9563e-06
8.92443e-06
8.89057e-06
8.85444e-06
8.81568e-06
8.77387e-06
8.72872e-06
8.68021e-06
8.6286e-06
8.57409e-06
8.51656e-06
8.45551e-06
7.66159e-06
8.88006e-06
8.8814e-06
8.88118e-06
8.8796e-06
8.8779e-06
8.88035e-06
8.90072e-06
8.96648e-06
9.10736e-06
9.32682e-06
9.57893e-06
9.7047e-06
9.13622e-06
9.37382e-06
1.04138e-05
1.05219e-05
1.03784e-05
9.3851e-06
9.11459e-06
9.44024e-06
9.52562e-06
9.39756e-06
9.31376e-06
9.26438e-06
9.2381e-06
9.22433e-06
9.21543e-06
9.2066e-06
9.19524e-06
9.18038e-06
9.16219e-06
9.14138e-06
9.11869e-06
9.09458e-06
9.06922e-06
9.04255e-06
9.01444e-06
8.98471e-06
8.95317e-06
8.91959e-06
8.8837e-06
8.84515e-06
8.80366e-06
8.75907e-06
8.71151e-06
8.66117e-06
8.60806e-06
8.55183e-06
8.49192e-06
7.71358e-06
8.87745e-06
8.87834e-06
8.87759e-06
8.8752e-06
8.8723e-06
8.87329e-06
8.89213e-06
8.95631e-06
9.09513e-06
9.31021e-06
9.54405e-06
9.10817e-06
9.11111e-06
9.639e-06
1.0405e-05
1.04657e-05
9.96311e-06
9.31837e-06
9.09356e-06
8.91092e-06