/*--------------------------------*- C++ -*----------------------------------*\
  =========                 |
  \\      /  F ield         | OpenFOAM: The Open Source CFD Toolbox
   \\    /   O peration     | Website:  https://openfoam.org
    \\  /    A nd           | Version:  9
     \\/     M anipulation  |
\*---------------------------------------------------------------------------*/
FoamFile
{
    format      ascii;
    class       surfaceVectorField;
    location    "0.2";
    object      Uf;
}
// * * * * * * * * * * * * * * * * * * * * * * * * * * * * * * * * * * * * * //

dimensions      [0 1 -1 0 0 0 0];

internalField   nonuniform List<vector> 
9850
(
(-0.395142 0 0.297849)
(-0.379566 0 0.302188)
(-0.415095 0 0.311315)
(-0.396848 0 0.304903)
(-0.43689 0 0.34829)
(-0.416193 0 0.330344)
(-0.458457 0 0.404794)
(-0.436311 0 0.378917)
(-0.475773 0 0.468349)
(-0.453831 0 0.44122)
(-0.483928 0 0.52553)
(-0.463335 0 0.500736)
(-0.48191 0 0.581221)
(-0.460483 0 0.54814)
(-0.475083 0 0.656374)
(-0.448736 0 0.605516)
(-0.448891 0 0.689096)
(-0.426054 0 0.687147)
(-0.330126 0 0.415196)
(-0.35653 0 0.628563)
(-0.0802689 0 -0.485114)
(-0.226735 0 0.0642416)
(0.170423 0 -1.70852)
(0.318479 0 -1.21216)
(0.0494962 0 -2.52215)
(0.124359 0 -2.23181)
(-0.00937413 0 -2.8041)
(0.0293487 0 -2.72366)
(-0.0480832 0 -2.86455)
(-0.0256451 0 -2.84294)
(-0.0730838 0 -2.87402)
(-0.05848 0 -2.86416)
(-0.0880927 0 -2.8843)
(-0.0769392 0 -2.87103)
(-0.0939294 0 -2.9088)
(-0.0881388 0 -2.89029)
(-0.0895011 0 -2.94505)
(-0.0906272 0 -2.92572)
(-0.074382 0 -2.98277)
(-0.0828465 0 -2.96925)
(-0.0553901 0 -3.00386)
(-0.0676758 0 -3.00395)
(-0.0348229 0 -3.00679)
(-0.0497062 0 -3.01813)
(-0.0166718 0 -2.99117)
(-0.0318333 0 -3.01099)
(-0.00401649 0 -2.96116)
(-0.0170682 0 -2.98504)
(0.00169983 0 -2.92374)
(-0.00766504 0 -2.94667)
(0.000701575 0 -2.88695)
(-0.0043943 0 -2.90468)
(-0.00657584 0 -2.85271)
(-0.00617697 0 -2.86706)
(-0.0203029 0 -2.80303)
(-0.0132683 0 -2.82941)
(-0.0380458 0 -2.70137)
(-0.0291992 0 -2.76139)
(-0.0465846 0 -2.55563)
(-0.0442083 0 -2.62823)
(-0.0442978 0 -2.08325)
(-0.0526016 0 -2.47523)
(0.0576441 0 -1.36748)
(-0.0221624 0 -1.76844)
(0.156396 0 -0.735485)
(0.0838757 0 -1.11045)
(0.260722 0 -0.169458)
(0.173056 0 -0.511176)
(0.352474 0 0.267269)
(0.268609 0 0.019645)
(0.417189 0 0.519456)
(0.34543 0 0.384774)
(0.454396 0 0.609091)
(0.394094 0 0.562282)
(0.472358 0 0.599898)
(0.420109 0 0.601628)
(0.480337 0 0.550939)
(0.432509 0 0.570121)
(0.484426 0 0.496873)
(0.438698 0 0.51748)
(0.487223 0 0.450087)
(0.442693 0 0.467602)
(0.489242 0 0.410842)
(0.445796 0 0.426145)
(0.490289 0 0.375828)
(0.44803 0 0.390894)
(0.490178 0 0.342341)
(0.449164 0 0.358457)
(0.488917 0 0.309205)
(0.449104 0 0.326766)
(0.486659 0 0.276331)
(0.447922 0 0.295186)
(0.483603 0 0.244068)
(0.445824 0 0.263896)
(0.479935 0 0.21272)
(0.442852 0 0.233307)
(0.475788 0 0.181431)
(0.44001 0 0.20363)
(0.434161 0 0.172491)
(-0.381431 0 0.309175)
(-0.367199 0 0.312117)
(-0.39829 0 0.323971)
(-0.381855 0 0.316143)
(-0.416085 0 0.361086)
(-0.39807 0 0.342207)
(-0.432167 0 0.415479)
(-0.41383 0 0.389638)
(-0.44205 0 0.473808)
(-0.425501 0 0.447809)
(-0.440838 0 0.523768)
(-0.427357 0 0.499927)
(-0.427359 0 0.57314)
(-0.415158 0 0.539155)
(-0.403299 0 0.637224)
(-0.392876 0 0.589476)
(-0.34976 0 0.629213)
(-0.354262 0 0.651454)
(-0.202189 0 0.279391)
(-0.247272 0 0.530182)
(0.0837888 0 -0.662896)
(-0.111236 0 -0.126409)
(0.38234 0 -1.73968)
(0.443647 0 -1.41119)
(0.116636 0 -2.43864)
(0.245871 0 -2.05467)
(0.0120664 0 -2.76388)
(0.0706924 0 -2.65395)
(-0.0372719 0 -2.84321)
(-0.00300949 0 -2.81004)
(-0.0612387 0 -2.86146)
(-0.0401895 0 -2.84818)
(-0.0763468 0 -2.8773)
(-0.0587974 0 -2.86096)
(-0.0847339 0 -2.90748)
(-0.0721895 0 -2.88469)
(-0.0847322 0 -2.95019)
(-0.0786765 0 -2.92572)
(-0.07542 0 -2.99419)
(-0.0763529 0 -2.97546)
(-0.0618136 0 -3.01884)
(-0.0676493 0 -3.01505)
(-0.0461464 0 -3.02248)
(-0.0562392 0 -3.03154)
(-0.0314992 0 -3.00464)
(-0.044211 0 -3.02414)
(-0.0202652 0 -2.97013)
(-0.0334213 0 -2.99562)
(-0.0136733 0 -2.92715)
(-0.0255367 0 -2.95319)
(-0.0116391 0 -2.88451)
(-0.021126 0 -2.90679)
(-0.0138885 0 -2.84362)
(-0.0192609 0 -2.86461)
(-0.0214164 0 -2.78713)
(-0.0204946 0 -2.82082)
(-0.0323279 0 -2.68554)
(-0.028978 0 -2.74834)
(-0.0400282 0 -2.54243)
(-0.0376249 0 -2.61857)
(-0.0489282 0 -2.14205)
(-0.047615 0 -2.46352)
(0.0213938 0 -1.49527)
(-0.0369493 0 -1.86551)
(0.102722 0 -0.870077)
(0.0458435 0 -1.2282)
(0.185114 0 -0.307325)
(0.116574 0 -0.636314)
(0.261589 0 0.147371)
(0.194096 0 -0.102195)
(0.320936 0 0.432996)
(0.260057 0 0.285592)
(0.35905 0 0.556606)
(0.305821 0 0.495467)
(0.380109 0 0.571706)
(0.333016 0 0.562903)
(0.391007 0 0.535857)
(0.347535 0 0.549101)
(0.397174 0 0.487367)
(0.355439 0 0.505003)
(0.401431 0 0.44294)
(0.36059 0 0.458568)
(0.404675 0 0.405561)
(0.364571 0 0.418923)
(0.406936 0 0.372898)
(0.367677 0 0.385614)
(0.40808 0 0.342224)
(0.369786 0 0.355657)
(0.408076 0 0.312038)
(0.3708 0 0.326775)
(0.407023 0 0.281987)
(0.370744 0 0.298025)
(0.405082 0 0.252313)
(0.369766 0 0.269384)
(0.402426 0 0.223331)
(0.367891 0 0.241184)
(0.399276 0 0.193642)
(0.365893 0 0.213432)
(0.362709 0 0.181009)
(-0.367879 0 0.31908)
(-0.354918 0 0.320742)
(-0.381958 0 0.33445)
(-0.367364 0 0.325529)
(-0.396153 0 0.370913)
(-0.38077 0 0.35167)
(-0.40745 0 0.422212)
(-0.392763 0 0.39717)
(-0.411147 0 0.474291)
(-0.399568 0 0.450274)
(-0.402555 0 0.515908)
(-0.395487 0 0.494199)
(-0.380473 0 0.556486)
(-0.376518 0 0.524434)
(-0.34346 0 0.605119)
(-0.346696 0 0.5648)
(-0.270831 0 0.555302)
(-0.298731 0 0.603034)
(-0.112853 0 0.132516)
(-0.170665 0 0.424864)
(0.163514 0 -0.849937)
(-0.0334558 0 -0.310653)
(0.390419 0 -1.6996)
(0.401202 0 -1.56246)
(0.207156 0 -2.26032)
(0.356014 0 -1.9325)
(0.0587143 0 -2.69918)
(0.134825 0 -2.55499)
(-0.0077515 0 -2.81599)
(0.0400041 0 -2.76573)
(-0.0363766 0 -2.84804)
(-0.00453936 0 -2.8291)
(-0.0537691 0 -2.86888)
(-0.0267591 0 -2.84937)
(-0.0658968 0 -2.90352)
(-0.0442715 0 -2.87661)
(-0.0710177 0 -2.95158)
(-0.055475 0 -2.92231)
(-0.068613 0 -3.0008)
(-0.0590884 0 -2.97706)
(-0.0622134 0 -3.0285)
(-0.0580288 0 -3.02028)
(-0.0539434 0 -3.03324)
(-0.0551541 0 -3.03862)
(-0.0454976 0 -3.01461)
(-0.051354 0 -3.03172)
(-0.0382051 0 -2.97788)
(-0.0468864 0 -3.00249)
(-0.032816 0 -2.93202)
(-0.0429566 0 -2.95851)
(-0.0291565 0 -2.88629)
(-0.0401759 0 -2.91058)
(-0.0269981 0 -2.84152)
(-0.0372709 0 -2.86696)
(-0.0269902 0 -2.78031)
(-0.0340721 0 -2.82083)
(-0.0306531 0 -2.67714)
(-0.0345255 0 -2.74396)
(-0.0353191 0 -2.5355)
(-0.0349014 0 -2.61271)
(-0.0476438 0 -2.17363)
(-0.0343484 0 -2.4473)
(-0.00622342 0 -1.58302)
(-0.0401145 0 -1.92269)
(0.0634291 0 -0.979716)
(0.0205098 0 -1.32906)
(0.130094 0 -0.418656)
(0.0782392 0 -0.737567)
(0.192549 0 0.0455962)
(0.13905 0 -0.201697)
(0.243721 0 0.353612)
(0.192721 0 0.200073)
(0.279019 0 0.503866)
(0.2327 0 0.433589)
(0.300174 0 0.540367)
(0.258182 0 0.524002)
(0.312017 0 0.517513)
(0.272742 0 0.526257)
(0.319026 0 0.475353)
(0.281065 0 0.490822)
(0.323886 0 0.43381)
(0.286528 0 0.448253)
(0.327668 0 0.398341)
(0.290745 0 0.410503)
(0.330565 0 0.367773)
(0.294168 0 0.378846)
(0.332506 0 0.33959)
(0.296772 0 0.350903)
(0.333446 0 0.312103)
(0.29847 0 0.324361)
(0.333438 0 0.284728)
(0.299252 0 0.298048)
(0.332601 0 0.25755)
(0.299222 0 0.271749)
(0.331098 0 0.230597)
(0.298405 0 0.245642)
(0.329271 0 0.200116)
(0.297308 0 0.219115)
(0.296349 0 0.183376)
(-0.354659 0 0.327352)
(-0.342965 0 0.328108)
(-0.366433 0 0.342905)
(-0.353573 0 0.333378)
(-0.377602 0 0.378117)
(-0.364602 0 0.359116)
(-0.385003 0 0.425524)
(-0.373572 0 0.402103)
(-0.383911 0 0.470621)
(-0.376616 0 0.449546)
(-0.370061 0 0.503382)
(-0.368376 0 0.484966)
(-0.342568 0 0.533838)
(-0.345415 0 0.506105)
(-0.298057 0 0.564426)
(-0.311525 0 0.535126)
(-0.215063 0 0.475739)
(-0.260193 0 0.547705)
(-0.0610073 0 -0.00917979)
(-0.126876 0 0.32216)
(0.182573 0 -1.00722)
(0.017116 0 -0.47304)
(0.323612 0 -1.76304)
(0.303556 0 -1.65649)
(0.326212 0 -2.20051)
(0.468718 0 -1.93423)
(0.124986 0 -2.62045)
(0.229499 0 -2.42084)
(0.0399528 0 -2.78209)
(0.104256 0 -2.70904)
(0.00631844 0 -2.83171)
(0.0529459 0 -2.80668)
(-0.0163757 0 -2.85773)
(0.0227521 0 -2.83424)
(-0.0334667 0 -2.89625)
(-0.00185863 0 -2.86522)
(-0.0441918 0 -2.94862)
(-0.0185329 0 -2.91516)
(-0.0493606 0 -3.00149)
(-0.028403 0 -2.97361)
(-0.0514673 0 -3.0311)
(-0.0357266 0 -3.01856)
(-0.0524841 0 -3.03684)
(-0.0426146 0 -3.03775)
(-0.0523215 0 -3.01852)
(-0.0484623 0 -3.03187)
(-0.051223 0 -2.9815)
(-0.0513494 0 -3.00352)
(-0.0499669 0 -2.93522)
(-0.0524048 0 -2.95975)
(-0.0484151 0 -2.88925)
(-0.0535524 0 -2.91219)
(-0.0454654 0 -2.84386)
(-0.0529134 0 -2.87016)
(-0.040614 0 -2.78055)
(-0.0468207 0 -2.82636)
(-0.0364199 0 -2.6767)
(-0.0379537 0 -2.74898)
(-0.021071 0 -2.52299)
(-0.027928 0 -2.63197)
(-0.0427624 0 -2.18806)
(-0.021624 0 -2.41876)
(-0.0112119 0 -1.65569)
(-0.0400027 0 -1.96624)
(0.0392215 0 -1.07055)
(0.00170953 0 -1.40208)
(0.0900306 0 -0.507436)
(0.0474443 0 -0.814737)
(0.139024 0 -0.0374237)
(0.0939454 0 -0.279752)
(0.180702 0 0.285761)
(0.136725 0 0.13042)
(0.211076 0 0.455999)
(0.170076 0 0.380342)
(0.230382 0 0.510071)
(0.19241 0 0.4885)
(0.241764 0 0.498849)
(0.205831 0 0.504303)
(0.248693 0 0.462836)
(0.213776 0 0.476802)
(0.253521 0 0.424175)
(0.219018 0 0.438005)
(0.257335 0 0.390383)
(0.223059 0 0.402014)
(0.260419 0 0.361439)
(0.22642 0 0.371644)
(0.262748 0 0.335173)
(0.229146 0 0.345197)
(0.264271 0 0.309817)
(0.231164 0 0.320447)
(0.265005 0 0.284589)
(0.232441 0 0.296067)
(0.265038 0 0.25937)
(0.233037 0 0.271657)
(0.264525 0 0.23365)
(0.232992 0 0.247163)
(0.2639 0 0.201543)
(0.232752 0 0.221057)
(0.233399 0 0.182062)
(-0.342041 0 0.334247)
(-0.331514 0 0.334362)
(-0.351909 0 0.34972)
(-0.340594 0 0.339956)
(-0.360688 0 0.383271)
(-0.349755 0 0.364968)
(-0.365173 0 0.426366)
(-0.356482 0 0.405093)
(-0.360803 0 0.464245)
(-0.35691 0 0.446634)
(-0.343942 0 0.488218)
(-0.346256 0 0.473725)
(-0.314328 0 0.50828)
(-0.322015 0 0.486363)
(-0.267901 0 0.51986)
(-0.287705 0 0.504173)
(-0.182688 0 0.39591)
(-0.237751 0 0.490896)
(-0.0358918 0 -0.137582)
(-0.110276 0 0.224295)
(0.165654 0 -1.12958)
(0.0425988 0 -0.607404)
(0.305682 0 -1.8578)
(0.206885 0 -1.74984)
(0.504893 0 -2.177)
(0.459232 0 -2.06704)
(0.217014 0 -2.51186)
(0.308523 0 -2.22892)
(0.116318 0 -2.73303)
(0.176249 0 -2.64191)
(0.069155 0 -2.80903)
(0.124377 0 -2.77524)
(0.0380513 0 -2.84194)
(0.0863098 0 -2.8135)
(0.0136508 0 -2.8847)
(0.0530914 0 -2.84895)
(-0.00321626 0 -2.94085)
(0.0305138 0 -2.90391)
(-0.0163523 0 -2.99557)
(0.0141618 0 -2.96486)
(-0.0276643 0 -3.02565)
(-0.00183319 0 -3.00933)
(-0.0387626 0 -3.03226)
(-0.0187634 0 -3.02825)
(-0.0473559 0 -3.01538)
(-0.0344979 0 -3.02415)
(-0.052358 0 -2.97942)
(-0.0440696 0 -2.99881)
(-0.0554429 0 -2.93385)
(-0.0478966 0 -2.9567)
(-0.0574482 0 -2.88979)
(-0.0503229 0 -2.91011)
(-0.0557916 0 -2.84875)
(-0.0504103 0 -2.87196)
(-0.0450568 0 -2.7906)
(-0.0414446 0 -2.8386)
(-0.0227944 0 -2.70084)
(-0.0241011 0 -2.7756)
(-0.0211726 0 -2.52453)
(0.0113057 0 -2.634)
(-0.0361758 0 -2.18817)
(-0.0190383 0 -2.39902)
(-0.0244627 0 -1.70361)
(-0.0449107 0 -1.9824)
(0.0133024 0 -1.13706)
(-0.0229685 0 -1.45676)
(0.0526008 0 -0.575984)
(0.01375 0 -0.874424)
(0.0916631 0 -0.103262)
(0.0510495 0 -0.341986)
(0.125237 0 0.230412)
(0.0856251 0 0.0743114)
(0.150595 0 0.415157)
(0.113119 0 0.335889)
(0.167433 0 0.482994)
(0.132232 0 0.457538)
(0.177762 0 0.481567)
(0.144204 0 0.48438)
(0.184187 0 0.451065)
(0.151504 0 0.463802)
(0.188671 0 0.415041)
(0.156346 0 0.42849)
(0.19223 0 0.382629)
(0.160057 0 0.39409)
(0.195197 0 0.354865)
(0.163178 0 0.364717)
(0.197584 0 0.329986)
(0.165806 0 0.33935)
(0.199341 0 0.306233)
(0.167894 0 0.315932)
(0.200459 0 0.28268)
(0.169399 0 0.293054)
(0.200987 0 0.259008)
(0.17034 0 0.270165)
(0.20106 0 0.234124)
(0.170762 0 0.246945)
(0.201142 0 0.200851)
(0.17122 0 0.220803)
(0.17299 0 0.175388)
(-0.330149 0 0.340133)
(-0.320608 0 0.339745)
(-0.33853 0 0.355306)
(-0.328517 0 0.345543)
(-0.345565 0 0.386939)
(-0.336326 0 0.369659)
(-0.348098 0 0.425567)
(-0.341556 0 0.406781)
(-0.341899 0 0.456403)
(-0.340455 0 0.442501)
(-0.324155 0 0.472257)
(-0.328956 0 0.461896)
(-0.29544 0 0.482787)
(-0.305778 0 0.467219)
(-0.251768 0 0.476011)
(-0.274351 0 0.475058)
(-0.17097 0 0.319698)
(-0.229233 0 0.437031)
(-0.0337363 0 -0.246571)
(-0.113136 0 0.132806)
(0.125797 0 -1.22845)
(0.0405577 0 -0.713759)
(0.232651 0 -1.97044)
(0.141138 0 -1.82108)
(0.385853 0 -2.15525)
(0.310719 0 -2.16918)
(0.250902 0 -2.38138)
(0.304515 0 -2.13895)
(0.19106 0 -2.68115)
(0.220512 0 -2.60202)
(0.140583 0 -2.77867)
(0.18912 0 -2.74158)
(0.101259 0 -2.82015)
(0.149216 0 -2.78728)
(0.0706565 0 -2.86832)
(0.11105 0 -2.82855)
(0.047472 0 -2.92803)
(0.0842467 0 -2.88846)
(0.0262767 0 -2.98295)
(0.0619461 0 -2.95073)
(0.00607282 0 -3.01206)
(0.0380408 0 -2.99284)
(-0.014827 0 -3.0197)
(0.0120767 0 -3.01036)
(-0.0313314 0 -3.00664)
(-0.0127167 0 -3.00934)
(-0.0398109 0 -2.97466)
(-0.0279783 0 -2.99083)
(-0.0421927 0 -2.93123)
(-0.0320338 0 -2.95435)
(-0.0422853 0 -2.89095)
(-0.0309226 0 -2.91002)
(-0.0384268 0 -2.86063)
(-0.02706 0 -2.87616)
(-0.0205985 0 -2.81532)
(-0.0233036 0 -2.85893)
(0.0311674 0 -2.70007)
(-0.0189314 0 -2.83751)
(0.00320533 0 -2.49881)
(-0.003165 0 -2.59892)
(-0.0312547 0 -2.17819)
(-0.0291138 0 -2.35367)
(-0.0398186 0 -1.72442)
(-0.0453808 0 -1.97058)
(-0.0189144 0 -1.18338)
(-0.0435863 0 -1.48703)
(0.0135578 0 -0.629582)
(-0.0200335 0 -0.923744)
(0.0450992 0 -0.155465)
(0.00988917 0 -0.392238)
(0.0727467 0 0.185336)
(0.0373685 0 0.0281068)
(0.0939818 0 0.380805)
(0.0597128 0 0.298663)
(0.108558 0 0.459364)
(0.0757727 0 0.430733)
(0.117825 0 0.466023)
(0.0862277 0 0.466505)
(0.123716 0 0.440343)
(0.0928161 0 0.45188)
(0.127832 0 0.406709)
(0.0972357 0 0.419755)
(0.131088 0 0.375482)
(0.100604 0 0.38684)
(0.13384 0 0.348603)
(0.103436 0 0.358289)
(0.136144 0 0.324737)
(0.105872 0 0.333705)
(0.137966 0 0.302199)
(0.107899 0 0.311249)
(0.139286 0 0.279974)
(0.10948 0 0.289495)
(0.140134 0 0.257525)
(0.110606 0 0.267768)
(0.140655 0 0.232975)
(0.111332 0 0.2454)
(0.141292 0 0.19423)
(0.112433 0 0.21882)
(0.115489 0 0.166352)
(-0.319013 0 0.345224)
(-0.310269 0 0.344483)
(-0.326338 0 0.359993)
(-0.317355 0 0.350426)
(-0.332249 0 0.389631)
(-0.324297 0 0.3736)
(-0.333713 0 0.423885)
(-0.328705 0 0.407757)
(-0.326958 0 0.448209)
(-0.32703 0 0.437997)
(-0.310133 0 0.457099)
(-0.316 0 0.45068)
(-0.284759 0 0.459694)
(-0.295687 0 0.450304)
(-0.247053 0 0.436205)
(-0.269586 0 0.44992)
(-0.174541 0 0.249661)
(-0.231368 0 0.38869)
(-0.0475106 0 -0.338116)
(-0.127386 0 0.0481194)
(0.0871979 0 -1.3079)
(0.0195136 0 -0.803565)
(0.161486 0 -2.04044)
(0.110778 0 -1.8706)
(0.276794 0 -2.16229)
(0.209159 0 -2.24605)
(0.253326 0 -2.32393)
(0.255764 0 -2.12331)
(0.233344 0 -2.63782)
(0.242725 0 -2.5887)
(0.197354 0 -2.74823)
(0.229535 0 -2.71759)
(0.157663 0 -2.79552)
(0.190998 0 -2.76082)
(0.12527 0 -2.84861)
(0.156575 0 -2.80695)
(0.0984213 0 -2.91099)
(0.130139 0 -2.87056)
(0.070632 0 -2.96435)
(0.10469 0 -2.9322)
(0.0427905 0 -2.99097)
(0.0760635 0 -2.97013)
(0.0137129 0 -2.99961)
(0.0442835 0 -2.98548)
(-0.00962128 0 -2.99321)
(0.0136901 0 -2.98839)
(-0.0208005 0 -2.97052)
(-0.00586657 0 -2.9803)
(-0.0199375 0 -2.93312)
(-0.0131915 0 -2.9552)
(-0.0152644 0 -2.89471)
(-0.0145606 0 -2.91486)
(-0.0144389 0 -2.86899)
(-0.0115937 0 -2.87706)
(-0.018565 0 -2.83879)
(-0.0142635 0 -2.85422)
(-0.0447926 0 -2.6988)
(-0.0402086 0 -2.80615)
(-0.0416905 0 -2.46294)
(-0.0870575 0 -2.60282)
(-0.0379866 0 -2.15116)
(-0.0655564 0 -2.35854)
(-0.0458806 0 -1.72387)
(-0.0486053 0 -1.95969)
(-0.0427089 0 -1.21265)
(-0.0556836 0 -1.49162)
(-0.0213345 0 -0.672679)
(-0.0475249 0 -0.956207)
(0.00213517 0 -0.197959)
(-0.0266779 0 -0.429629)
(0.0236814 0 0.148187)
(-0.00675676 0 -0.00790074)
(0.040763 0 0.351876)
(0.0101286 0 0.268719)
(0.0529649 0 0.438782)
(0.0227908 0 0.408296)
(0.061057 0 0.452036)
(0.031435 0 0.450897)
(0.0663594 0 0.430538)
(0.0371283 0 0.441153)
(0.0700905 0 0.399105)
(0.0410198 0 0.411838)
(0.0730276 0 0.368966)
(0.0439758 0 0.380302)
(0.0755191 0 0.342799)
(0.046453 0 0.352472)
(0.0776547 0 0.31967)
(0.0486083 0 0.328475)
(0.0794256 0 0.298006)
(0.0504568 0 0.3067)
(0.0808174 0 0.276736)
(0.0519778 0 0.285744)
(0.0818626 0 0.25506)
(0.0531412 0 0.264814)
(0.0827561 0 0.230543)
(0.0539782 0 0.24275)
(0.0841902 0 0.189514)
(0.0555723 0 0.214358)
(0.0615103 0 0.152853)
(-0.308617 0 0.349751)
(-0.300481 0 0.348771)
(-0.315286 0 0.364116)
(-0.307056 0 0.354872)
(-0.320623 0 0.391828)
(-0.313558 0 0.377158)
(-0.321776 0 0.421994)
(-0.317723 0 0.408525)
(-0.315502 0 0.440606)
(-0.316258 0 0.433815)
(-0.300965 0 0.444002)
(-0.30672 0 0.440989)
(-0.280592 0 0.440529)
(-0.290497 0 0.436722)
(-0.250408 0 0.402141)
(-0.271039 0 0.429797)
(-0.187089 0 0.18633)
(-0.240249 0 0.346477)
(-0.0686288 0 -0.420832)
(-0.146266 0 -0.0308546)
(0.0610314 0 -1.37466)
(-0.00497353 0 -0.890005)
(0.132629 0 -2.083)
(0.0996825 0 -1.91833)
(0.177351 0 -2.19637)
(0.14989 0 -2.27586)
(0.265224 0 -2.31378)
(0.21993 0 -2.18189)
(0.241586 0 -2.6029)
(0.25385 0 -2.57294)
(0.223151 0 -2.72598)
(0.242203 0 -2.7053)
(0.188756 0 -2.7703)
(0.204936 0 -2.73789)
(0.161096 0 -2.82772)
(0.181094 0 -2.78851)
(0.136761 0 -2.89156)
(0.158483 0 -2.85433)
(0.107462 0 -2.94141)
(0.134501 0 -2.91267)
(0.0760371 0 -2.96443)
(0.106939 0 -2.94449)
(0.0436861 0 -2.97385)
(0.0751811 0 -2.95779)
(0.0170518 0 -2.97466)
(0.0474042 0 -2.96448)
(0.00112662 0 -2.9631)
(0.0299486 0 -2.9653)
(-0.00693871 0 -2.93469)
(0.0143093 0 -2.94724)
(-0.0126227 0 -2.89781)
(-0.00749145 0 -2.90897)
(-0.0138973 0 -2.86919)
(-0.0243511 0 -2.87567)
(-0.0313574 0 -2.83468)
(-0.0123009 0 -2.83432)
(-0.0943591 0 -2.69974)
(-0.0427158 0 -2.7308)
(-0.112988 0 -2.47799)
(-0.0909775 0 -2.57945)
(-0.0710277 0 -2.15798)
(-0.0816857 0 -2.41376)
(-0.0557083 0 -1.71698)
(-0.0511212 0 -1.98083)
(-0.0594989 0 -1.22141)
(-0.0537809 0 -1.48613)
(-0.0503098 0 -0.7003)
(-0.0628346 0 -0.970164)
(-0.0355003 0 -0.229108)
(-0.056241 0 -0.453223)
(-0.0209939 0 0.119694)
(-0.0457087 0 -0.0321445)
(-0.00858079 0 0.328723)
(-0.0353472 0 0.246958)
(0.000811569 0 0.421602)
(-0.0267638 0 0.391024)
(0.00734398 0 0.439902)
(-0.0203951 0 0.438296)
(0.0117864 0 0.421825)
(-0.015928 0 0.432164)
(0.0149642 0 0.392324)
(-0.0127753 0 0.405092)
(0.0174634 0 0.363174)
(-0.0103678 0 0.374737)
(0.0195853 0 0.337601)
(-0.00834762 0 0.347516)
(0.0214311 0 0.315012)
(-0.00656878 0 0.323953)
(0.0230074 0 0.293966)
(-0.00500267 0 0.302649)
(0.0243067 0 0.273341)
(-0.00365325 0 0.282242)
(0.0253953 0 0.251968)
(-0.00254217 0 0.261735)
(0.0266485 0 0.22588)
(-0.00162698 0 0.239033)
(0.0294235 0 0.176418)
(0.000458554 0 0.205725)
(0.00914559 0 0.130073)
(-0.298903 0 0.353944)
(-0.291186 0 0.352782)
(-0.305261 0 0.367978)
(-0.297519 0 0.359111)
(-0.310485 0 0.393931)
(-0.30394 0 0.380641)
(-0.311936 0 0.42043)
(-0.308325 0 0.409492)
(-0.306934 0 0.434278)
(-0.30768 0 0.43048)
(-0.295603 0 0.43375)
(-0.300372 0 0.433436)
(-0.28105 0 0.425915)
(-0.288961 0 0.42702)
(-0.258468 0 0.373767)
(-0.276445 0 0.414742)
(-0.202647 0 0.12848)
(-0.252334 0 0.309264)
(-0.0897369 0 -0.502036)
(-0.166548 0 -0.106128)
(0.044966 0 -1.4393)
(-0.0255642 0 -0.979807)
(0.115597 0 -2.11597)
(0.0909583 0 -1.96542)
(0.153947 0 -2.24709)
(0.101064 0 -2.30143)
(0.241401 0 -2.4496)
(0.186685 0 -2.24019)
(0.255091 0 -2.70146)
(0.245843 0 -2.58207)
(0.215995 0 -2.71912)
(0.242441 0 -2.67924)
(0.195181 0 -2.75206)
(0.214163 0 -2.72402)
(0.176649 0 -2.80791)
(0.194518 0 -2.77616)
(0.156359 0 -2.86949)
(0.174558 0 -2.84081)
(0.133603 0 -2.91595)
(0.15402 0 -2.8975)
(0.104371 0 -2.93668)
(0.132276 0 -2.92064)
(0.0767825 0 -2.94843)
(0.10804 0 -2.93418)
(0.0604456 0 -2.95529)
(0.0903408 0 -2.94981)
(0.0444718 0 -2.94834)
(0.0760817 0 -2.95026)
(0.0130388 0 -2.92195)
(0.0490626 0 -2.91619)
(-0.0312739 0 -2.89293)
(0.0174724 0 -2.86305)
(-0.0159743 0 -2.84679)
(-0.00974306 0 -2.8923)
(-0.0205249 0 -2.76154)
(-0.00905038 0 -2.82913)
(-0.0518604 0 -2.64601)
(-0.020877 0 -2.69332)
(-0.0588857 0 -2.50155)
(-0.0296503 0 -2.57063)
(-0.0654164 0 -2.2053)
(-0.0544236 0 -2.40517)
(-0.0441828 0 -1.7319)
(-0.0414021 0 -2.01014)
(-0.0567433 0 -1.21821)
(-0.0361758 0 -1.46795)
(-0.0673424 0 -0.708554)
(-0.0680574 0 -0.954065)
(-0.0664544 0 -0.245291)
(-0.0805198 0 -0.454637)
(-0.0609763 0 0.102177)
(-0.0812029 0 -0.0412989)
(-0.0544095 0 0.312905)
(-0.0781992 0 0.235447)
(-0.048479 0 0.408916)
(-0.07409 0 0.380119)
(-0.0438702 0 0.430413)
(-0.0702307 0 0.429407)
(-0.0405278 0 0.41477)
(-0.0671771 0 0.425401)
(-0.0380734 0 0.386768)
(-0.0648868 0 0.399883)
(-0.0361316 0 0.35842)
(-0.0631009 0 0.370414)
(-0.0344671 0 0.333297)
(-0.061586 0 0.343629)
(-0.0329846 0 0.311075)
(-0.060225 0 0.320321)
(-0.0316737 0 0.290438)
(-0.0589896 0 0.29928)
(-0.0305339 0 0.270161)
(-0.0578703 0 0.279169)
(-0.029413 0 0.24829)
(-0.056811 0 0.258566)
(-0.0276089 0 0.218109)
(-0.0555436 0 0.233681)
(-0.0233851 0 0.157578)
(-0.0524994 0 0.192584)
(-0.0434739 0 0.106131)
(-0.28977 0 0.35799)
(-0.282298 0 0.356667)
(-0.296104 0 0.371822)
(-0.28861 0 0.363333)
(-0.301579 0 0.396256)
(-0.295228 0 0.384291)
(-0.303793 0 0.419596)
(-0.300188 0 0.410969)
(-0.300632 0 0.429681)
(-0.300812 0 0.428372)
(-0.293057 0 0.426713)
(-0.296233 0 0.428386)
(-0.284467 0 0.415794)
(-0.289962 0 0.421293)
(-0.268763 0 0.350082)
(-0.284019 0 0.404273)
(-0.218642 0 0.0744184)
(-0.264885 0 0.275851)
(-0.110384 0 -0.584364)
(-0.185722 0 -0.1783)
(0.0282697 0 -1.50603)
(-0.0421504 0 -1.07224)
(0.0866282 0 -2.14756)
(0.0714318 0 -2.00433)
(0.109013 0 -2.29725)
(0.0487696 0 -2.31635)
(0.21355 0 -2.45815)
(0.140074 0 -2.30988)
(0.235995 0 -2.64518)
(0.22211 0 -2.59703)
(0.231692 0 -2.68523)
(0.230703 0 -2.67637)
(0.213576 0 -2.74)
(0.229814 0 -2.71194)
(0.19287 0 -2.79985)
(0.215698 0 -2.76235)
(0.172137 0 -2.85764)
(0.194483 0 -2.82699)
(0.152713 0 -2.89934)
(0.170954 0 -2.88455)
(0.134699 0 -2.91865)
(0.1538 0 -2.90594)
(0.118264 0 -2.93426)
(0.138976 0 -2.92011)
(0.109746 0 -2.94344)
(0.130413 0 -2.94217)
(0.0849622 0 -2.93044)
(0.115943 0 -2.92692)
(0.0517712 0 -2.88904)
(0.0882939 0 -2.8834)
(0.0302168 0 -2.8757)
(0.0655833 0 -2.84072)
(0.00314627 0 -2.85772)
(0.0434329 0 -2.86288)
(-0.00578083 0 -2.75416)
(0.0074138 0 -2.81895)
(-0.00998149 0 -2.62416)
(-0.00187306 0 -2.6883)
(-0.0151435 0 -2.48347)
(5.71429e-06 0 -2.56416)
(-0.0396591 0 -2.20988)
(-0.0399656 0 -2.37291)
(-0.0246635 0 -1.73363)
(-0.0572265 0 -2.03084)
(-0.0510515 0 -1.19057)
(-0.0523433 0 -1.42974)
(-0.0811708 0 -0.68801)
(-0.0883303 0 -0.90832)
(-0.0954944 0 -0.240819)
(-0.110902 0 -0.431817)
(-0.099627 0 0.0983804)
(-0.119845 0 -0.0343926)
(-0.0989542 0 0.305878)
(-0.122633 0 0.234267)
(-0.0964724 0 0.401602)
(-0.121968 0 0.375556)
(-0.0938117 0 0.424158)
(-0.120023 0 0.424275)
(-0.0916032 0 0.409797)
(-0.118042 0 0.420933)
(-0.0898934 0 0.382743)
(-0.116415 0 0.396255)
(-0.088517 0 0.354923)
(-0.115122 0 0.36735)
(-0.0873152 0 0.330055)
(-0.114028 0 0.340823)
(-0.0862102 0 0.308001)
(-0.113034 0 0.317615)
(-0.085189 0 0.287526)
(-0.112107 0 0.296656)
(-0.0842029 0 0.267098)
(-0.111211 0 0.276512)
(-0.0829064 0 0.243409)
(-0.110132 0 0.2549)
(-0.0802889 0 0.207233)
(-0.108198 0 0.225918)
(-0.0750564 0 0.139017)
(-0.103863 0 0.176306)
(-0.0958512 0 0.0865803)
(-0.281096 0 0.362039)
(-0.273712 0 0.360543)
(-0.287624 0 0.375836)
(-0.280168 0 0.367684)
(-0.293621 0 0.399038)
(-0.287185 0 0.388288)
(-0.296929 0 0.419775)
(-0.292968 0 0.413175)
(-0.295996 0 0.427098)
(-0.295176 0 0.427749)
(-0.292461 0 0.422962)
(-0.293637 0 0.426029)
(-0.289547 0 0.409734)
(-0.292542 0 0.419351)
(-0.279452 0 0.330011)
(-0.292483 0 0.397542)
(-0.233028 0 0.0230642)
(-0.276147 0 0.244901)
(-0.126927 0 -0.665351)
(-0.200744 0 -0.249034)
(0.00495962 0 -1.5695)
(-0.0543039 0 -1.16017)
(0.0445777 0 -2.17222)
(0.0404401 0 -2.03074)
(0.0578042 0 -2.3369)
(0.0018098 0 -2.32517)
(0.173818 0 -2.47156)
(0.0911462 0 -2.38723)
(0.204689 0 -2.62906)
(0.175693 0 -2.61761)
(0.228198 0 -2.69116)
(0.191843 0 -2.69204)
(0.235189 0 -2.73706)
(0.223086 0 -2.7166)
(0.219895 0 -2.78968)
(0.238662 0 -2.75216)
(0.194298 0 -2.85012)
(0.234157 0 -2.80992)
(0.169764 0 -2.89215)
(0.217815 0 -2.86819)
(0.158136 0 -2.90995)
(0.205714 0 -2.89646)
(0.15072 0 -2.92741)
(0.195498 0 -2.91377)
(0.135931 0 -2.92845)
(0.186987 0 -2.92889)
(0.122226 0 -2.88507)
(0.16827 0 -2.91402)
(0.103475 0 -2.82519)
(0.143112 0 -2.86488)
(0.0797301 0 -2.82452)
(0.122781 0 -2.81612)
(0.042022 0 -2.82905)
(0.0969079 0 -2.82189)
(0.0145949 0 -2.74694)
(0.0463283 0 -2.78768)
(0.00490049 0 -2.61716)
(0.0179295 0 -2.67671)
(-0.0209593 0 -2.45005)
(0.00375054 0 -2.53172)
(-0.058504 0 -2.18724)
(-0.0377159 0 -2.3235)
(-0.0824358 0 -1.71987)
(-0.0892457 0 -1.99781)
(-0.0921504 0 -1.15063)
(-0.100937 0 -1.41567)
(-0.117609 0 -0.648609)
(-0.128093 0 -0.869652)
(-0.135536 0 -0.219775)
(-0.15213 0 -0.403256)
(-0.144183 0 0.10599)
(-0.165295 0 -0.0199418)
(-0.146668 0 0.306159)
(-0.171238 0 0.238623)
(-0.146107 0 0.398726)
(-0.172327 0 0.374525)
(-0.144509 0 0.420569)
(-0.171267 0 0.421191)
(-0.142907 0 0.406551)
(-0.169693 0 0.417692)
(-0.141616 0 0.380012)
(-0.168288 0 0.393515)
(-0.140595 0 0.352516)
(-0.167191 0 0.365075)
(-0.13972 0 0.327768)
(-0.166314 0 0.33878)
(-0.138913 0 0.305738)
(-0.165548 0 0.315637)
(-0.138128 0 0.285149)
(-0.164835 0 0.29464)
(-0.137192 0 0.263796)
(-0.164055 0 0.273988)
(-0.135486 0 0.236724)
(-0.162768 0 0.250076)
(-0.131898 0 0.193835)
(-0.159952 0 0.215279)
(-0.12607 0 0.121772)
(-0.154415 0 0.158173)
(-0.147364 0 0.0707861)
(-0.272739 0 0.366205)
(-0.26531 0 0.364496)
(-0.279613 0 0.380156)
(-0.27202 0 0.372268)
(-0.286313 0 0.402441)
(-0.279563 0 0.392755)
(-0.290936 0 0.421158)
(-0.286322 0 0.416257)
(-0.292469 0 0.426679)
(-0.290309 0 0.428771)
(-0.293073 0 0.422396)
(-0.291985 0 0.426431)
(-0.295359 0 0.407085)
(-0.295942 0 0.420876)
(-0.2893 0 0.312286)
(-0.30109 0 0.393503)
(-0.244087 0 -0.0273661)
(-0.286028 0 0.214759)
(-0.138743 0 -0.744388)
(-0.211145 0 -0.319265)
(-0.0155718 0 -1.62314)
(-0.0617875 0 -1.24228)
(0.004217 0 -2.18658)
(0.00541081 0 -2.04393)
(0.0207348 0 -2.37544)
(-0.0322904 0 -2.33618)
(0.115462 0 -2.52184)
(0.045827 0 -2.45038)
(0.150342 0 -2.66456)
(0.111433 0 -2.64086)
(0.188297 0 -2.71597)
(0.132659 0 -2.71734)
(0.228397 0 -2.7394)
(0.181754 0 -2.74334)
(0.254961 0 -2.77858)
(0.232606 0 -2.76987)
(0.261233 0 -2.83381)
(0.266073 0 -2.8141)
(0.25185 0 -2.87725)
(0.278838 0 -2.86194)
(0.24323 0 -2.89893)
(0.279651 0 -2.88943)
(0.232699 0 -2.91571)
(0.27318 0 -2.90475)
(0.213613 0 -2.91067)
(0.259444 0 -2.91176)
(0.188056 0 -2.87151)
(0.234534 0 -2.88995)
(0.163402 0 -2.82361)
(0.206294 0 -2.84053)
(0.140901 0 -2.80001)
(0.183792 0 -2.7928)
(0.0953105 0 -2.77995)
(0.151891 0 -2.77234)
(0.0478654 0 -2.71301)
(0.0957355 0 -2.73359)
(0.0177728 0 -2.58802)
(0.0442218 0 -2.64072)
(-0.0161713 0 -2.4019)
(0.00795822 0 -2.48913)
(-0.061635 0 -2.12816)
(-0.0340756 0 -2.26367)
(-0.109727 0 -1.67613)
(-0.106546 0 -1.93142)
(-0.136603 0 -1.11576)
(-0.141493 0 -1.37676)
(-0.162259 0 -0.612119)
(-0.168988 0 -0.830685)
(-0.182547 0 -0.194607)
(-0.196472 0 -0.370934)
(-0.193667 0 0.118289)
(-0.213619 0 -0.00135761)
(-0.197816 0 0.309727)
(-0.221991 0 0.245897)
(-0.198023 0 0.397724)
(-0.224283 0 0.374906)
(-0.196667 0 0.417967)
(-0.22364 0 0.418576)
(-0.1951 0 0.403901)
(-0.222087 0 0.414522)
(-0.193823 0 0.377782)
(-0.220605 0 0.390804)
(-0.192867 0 0.350636)
(-0.219475 0 0.362946)
(-0.192114 0 0.326046)
(-0.21864 0 0.337022)
(-0.191458 0 0.304004)
(-0.21798 0 0.314031)
(-0.190772 0 0.282963)
(-0.21737 0 0.292875)
(-0.189675 0 0.259678)
(-0.216533 0 0.271032)
(-0.187308 0 0.227779)
(-0.214768 0 0.243384)
(-0.182744 0 0.178232)
(-0.210952 0 0.201743)
(-0.176563 0 0.105096)
(-0.204547 0 0.138942)
(-0.198237 0 0.0570941)
(-0.264545 0 0.370564)
(-0.256968 0 0.368579)
(-0.271856 0 0.38487)
(-0.263986 0 0.377142)
(-0.279358 0 0.406569)
(-0.27211 0 0.397756)
(-0.285418 0 0.423859)
(-0.279908 0 0.420297)
(-0.289537 0 0.428497)
(-0.285764 0 0.431517)
(-0.294275 0 0.424868)
(-0.290732 0 0.42959)
(-0.301378 0 0.407221)
(-0.299579 0 0.425611)
(-0.298368 0 0.295897)
(-0.309519 0 0.391496)
(-0.253293 0 -0.0774572)
(-0.295377 0 0.18471)
(-0.145896 0 -0.818351)
(-0.21856 0 -0.390863)
(-0.0335199 0 -1.6649)
(-0.0697434 0 -1.3172)
(-0.0291175 0 -2.19434)
(-0.0298508 0 -2.04687)
(-0.0160393 0 -2.40945)
(-0.0577276 0 -2.3449)
(0.053845 0 -2.56676)
(0.000745086 0 -2.49697)
(0.0869759 0 -2.69394)
(0.0468885 0 -2.66295)
(0.128191 0 -2.74605)
(0.0753479 0 -2.74482)
(0.186402 0 -2.77218)
(0.131703 0 -2.78214)
(0.246423 0 -2.80326)
(0.199427 0 -2.80988)
(0.288539 0 -2.8423)
(0.259356 0 -2.84218)
(0.307162 0 -2.87562)
(0.298239 0 -2.87435)
(0.309618 0 -2.89234)
(0.315409 0 -2.89143)
(0.300263 0 -2.89875)
(0.317292 0 -2.89675)
(0.277203 0 -2.88693)
(0.30638 0 -2.89105)
(0.249447 0 -2.85224)
(0.284411 0 -2.86381)
(0.225051 0 -2.80573)
(0.259237 0 -2.81643)
(0.197149 0 -2.76365)
(0.234345 0 -2.76389)
(0.147741 0 -2.72302)
(0.197581 0 -2.71864)
(0.0877669 0 -2.6565)
(0.138958 0 -2.66521)
(0.034244 0 -2.53656)
(0.071443 0 -2.57671)
(-0.0150069 0 -2.344)
(0.0099801 0 -2.42735)
(-0.0688799 0 -2.05312)
(-0.0473974 0 -2.19278)
(-0.141081 0 -1.61318)
(-0.126119 0 -1.83176)
(-0.173709 0 -1.07581)
(-0.176266 0 -1.32952)
(-0.203686 0 -0.575471)
(-0.207309 0 -0.785154)
(-0.228575 0 -0.166889)
(-0.239592 0 -0.331281)
(-0.243231 0 0.133237)
(-0.261159 0 0.0231356)
(-0.249401 0 0.314761)
(-0.272251 0 0.256713)
(-0.250445 0 0.397123)
(-0.275962 0 0.376824)
(-0.249266 0 0.415205)
(-0.275834 0 0.416301)
(-0.247615 0 0.400952)
(-0.274346 0 0.411181)
(-0.24622 0 0.375354)
(-0.272799 0 0.387843)
(-0.245208 0 0.348743)
(-0.271624 0 0.360694)
(-0.244481 0 0.324473)
(-0.270814 0 0.335324)
(-0.243888 0 0.302405)
(-0.270235 0 0.312579)
(-0.243162 0 0.280427)
(-0.269654 0 0.291008)
(-0.241676 0 0.25408)
(-0.26856 0 0.267028)
(-0.238464 0 0.216354)