/*--------------------------------*- C++ -*----------------------------------*\
  =========                 |
  \\      /  F ield         | OpenFOAM: The Open Source CFD Toolbox
   \\    /   O peration     | Website:  https://openfoam.org
    \\  /    A nd           | Version:  9
     \\/     M anipulation  |
\*---------------------------------------------------------------------------*/
FoamFile
{
    format      ascii;
    class       volScalarField;
    location    "0.16";
    object      alpha.water;
}
// * * * * * * * * * * * * * * * * * * * * * * * * * * * * * * * * * * * * * //

dimensions      [0 0 0 0 0 0 0];

internalField   nonuniform List<scalar> 
20000
(
4.07308e-319
3.89314e-319
3.72071e-319
3.5553e-319
3.3969e-319
3.24502e-319
3.09957e-319
2.96024e-319
2.82685e-319
2.69918e-319
2.57685e-319
2.45995e-319
2.3482e-319
2.24128e-319
2.13911e-319
2.04168e-319
1.94859e-319
1.85976e-319
1.77508e-319
1.69425e-319
1.61708e-319
1.54356e-319
1.4735e-319
1.4066e-319
1.34287e-319
1.282e-319
1.2237e-319
1.16797e-319
1.11481e-319
1.06382e-319
8.72125e-320
8.72718e-320
8.73508e-320
8.74694e-320
8.75978e-320
8.77461e-320
8.79239e-320
8.81018e-320
8.82599e-320
8.8418e-320
8.85366e-320
8.86354e-320
8.87045e-320
8.87737e-320
8.88528e-320
8.89318e-320
8.90504e-320
8.91788e-320
8.93271e-320
8.95049e-320
8.96828e-320
8.98409e-320
8.99397e-320
8.99694e-320
8.99298e-320
8.98409e-320
8.97421e-320
8.96235e-320
8.95049e-320
8.93468e-320
8.91887e-320
8.90405e-320
8.90306e-320
8.95247e-320
9.12045e-320
9.36847e-320
9.29535e-320
9.02164e-320
8.87243e-320
8.82006e-320
1.0743e-319
1.12528e-319
1.17874e-319
1.23457e-319
1.29307e-319
1.35414e-319
1.41797e-319
1.48496e-319
1.55502e-319
1.62844e-319
1.70532e-319
1.78575e-319
1.86994e-319
1.95818e-319
2.05057e-319
2.14721e-319
2.24839e-319
2.35432e-319
2.46509e-319
2.581e-319
2.70234e-319
2.82922e-319
2.96182e-319
3.10056e-319
3.24562e-319
3.3971e-319
3.5553e-319
3.72061e-319
3.89314e-319
4.07318e-319
4.07318e-319
3.89314e-319
3.72071e-319
3.5553e-319
3.397e-319
3.24512e-319
3.09967e-319
2.96034e-319
2.82685e-319
2.69918e-319
2.57685e-319
2.45995e-319
2.3482e-319
2.24128e-319
2.13921e-319
2.04168e-319
1.94859e-319
1.85986e-319
1.77508e-319
1.69425e-319
1.61718e-319
1.54366e-319
1.4735e-319
1.4067e-319
1.34287e-319
1.282e-319
1.2237e-319
1.16797e-319
1.11481e-319
1.06382e-319
8.72125e-320
8.72718e-320
8.73508e-320
8.74694e-320
8.7588e-320
8.77461e-320
8.79239e-320
8.81018e-320
8.82599e-320
8.8418e-320
8.85366e-320
8.86354e-320
8.87045e-320
8.87737e-320
8.88528e-320
8.89318e-320
8.90504e-320
8.9169e-320
8.93271e-320
8.95049e-320
8.96828e-320
8.98409e-320
8.99397e-320
8.99595e-320
8.99199e-320
8.98409e-320
8.97421e-320
8.96235e-320
8.95049e-320
8.93567e-320
8.91887e-320
8.90405e-320
8.90306e-320
8.95247e-320
9.1165e-320
9.35563e-320
9.29239e-320
9.03152e-320
8.87935e-320
8.82302e-320
1.07459e-319
1.12548e-319
1.17884e-319
1.23467e-319
1.29307e-319
1.35414e-319
1.41807e-319
1.48496e-319
1.55512e-319
1.62844e-319
1.70532e-319
1.78575e-319
1.86994e-319
1.95808e-319
2.05057e-319
2.14721e-319
2.24839e-319
2.35422e-319
2.46499e-319
2.581e-319
2.70234e-319
2.82922e-319
2.96182e-319
3.10056e-319
3.24542e-319
3.397e-319
3.5552e-319
3.72051e-319
3.89304e-319
4.07308e-319
4.07327e-319
3.89324e-319
3.72071e-319
3.55549e-319
3.397e-319
3.24522e-319
3.09977e-319
2.96044e-319
2.82694e-319
2.69918e-319
2.57695e-319
2.46005e-319
2.3482e-319
2.24128e-319
2.13921e-319
2.04168e-319
1.94859e-319
1.85986e-319
1.77508e-319
1.69425e-319
1.61718e-319
1.54366e-319
1.4735e-319
1.4067e-319
1.34287e-319
1.282e-319
1.2237e-319
1.16807e-319
1.11481e-319
1.06382e-319
8.72125e-320
8.72718e-320
8.73508e-320
8.74694e-320
8.75978e-320
8.77461e-320
8.79239e-320
8.81018e-320
8.82599e-320
8.8418e-320
8.85366e-320
8.86255e-320
8.87045e-320
8.87737e-320
8.88528e-320
8.89318e-320
8.90405e-320
8.9169e-320
8.93271e-320
8.95049e-320
8.96729e-320
8.98211e-320
8.99298e-320
8.99595e-320
8.99199e-320
8.98409e-320
8.97421e-320
8.96235e-320
8.95049e-320
8.93567e-320
8.91887e-320
8.90504e-320
8.90504e-320
8.95445e-320
9.1165e-320
9.33883e-320
9.28448e-320
9.03745e-320
8.88528e-320
8.82698e-320
1.07489e-319
1.12568e-319
1.17904e-319
1.23477e-319
1.29317e-319
1.35423e-319
1.41817e-319
1.48496e-319
1.55512e-319
1.62844e-319
1.70532e-319
1.78575e-319
1.86994e-319
1.95808e-319
2.05047e-319
2.14711e-319
2.2483e-319
2.35412e-319
2.46499e-319
2.5809e-319
2.70214e-319
2.82902e-319
2.96173e-319
3.10036e-319
3.24542e-319
3.3968e-319
3.5551e-319
3.72031e-319
3.89284e-319
4.07278e-319
4.07347e-319
3.89343e-319
3.72091e-319
3.55559e-319
3.3971e-319
3.24522e-319
3.09977e-319
2.96044e-319
2.82704e-319
2.69928e-319
2.57705e-319
2.46005e-319
2.3482e-319
2.24138e-319
2.1393e-319
2.04168e-319
1.94869e-319
1.85986e-319
1.77508e-319
1.69425e-319
1.61718e-319
1.54366e-319
1.4735e-319
1.4067e-319
1.34287e-319
1.282e-319
1.2237e-319
1.16807e-319
1.11481e-319
1.06382e-319
8.72125e-320
8.72718e-320
8.73508e-320
8.74694e-320
8.75978e-320
8.77461e-320
8.79239e-320
8.80919e-320
8.82599e-320
8.8418e-320
8.85366e-320
8.86255e-320
8.86947e-320
8.87737e-320
8.88429e-320
8.89318e-320
8.90405e-320
8.9169e-320
8.93271e-320
8.94951e-320
8.9663e-320
8.98211e-320
8.99199e-320
8.99595e-320
8.99199e-320
8.98409e-320
8.97421e-320
8.96235e-320
8.95049e-320
8.93666e-320
8.92085e-320
8.90603e-320
8.90702e-320
8.9584e-320
9.11452e-320
9.32005e-320
9.27262e-320
9.04338e-320
8.89318e-320
8.83192e-320
1.07528e-319
1.12588e-319
1.17914e-319
1.23497e-319
1.29327e-319
1.35433e-319
1.41817e-319
1.48506e-319
1.55512e-319
1.62844e-319
1.70532e-319
1.78575e-319
1.86994e-319
1.95808e-319
2.05037e-319
2.14701e-319
2.2482e-319
2.35412e-319
2.46489e-319
2.5808e-319
2.70214e-319
2.82892e-319
2.96153e-319
3.10016e-319
3.24522e-319
3.3966e-319
3.5548e-319
3.72002e-319
3.89245e-319
4.07248e-319
4.07367e-319
3.89363e-319
3.7211e-319
3.55569e-319
3.3972e-319
3.24542e-319
3.09997e-319
2.96064e-319
2.82714e-319
2.69938e-319
2.57705e-319
2.46015e-319
2.34829e-319
2.24148e-319
2.1393e-319
2.04178e-319
1.94869e-319
1.85986e-319
1.77508e-319
1.69425e-319
1.61718e-319
1.54366e-319
1.4735e-319
1.4067e-319
1.34287e-319
1.282e-319
1.2238e-319
1.16807e-319
1.11481e-319
1.06392e-319
8.72125e-320
8.72718e-320
8.73508e-320
8.74694e-320
8.75978e-320
8.77461e-320
8.79239e-320
8.81018e-320
8.82599e-320
8.84081e-320
8.85366e-320
8.86255e-320
8.86947e-320
8.87737e-320
8.88429e-320
8.89318e-320
8.90405e-320
8.9169e-320
8.93271e-320
8.94951e-320
8.9663e-320
8.98211e-320
8.99199e-320
8.99496e-320
8.99199e-320
8.98409e-320
8.97421e-320
8.96235e-320
8.95049e-320
8.93666e-320
8.92085e-320
8.908e-320
8.91097e-320
8.96235e-320
9.11255e-320
9.30227e-320
9.26077e-320
9.04733e-320
8.89911e-320
8.83587e-320
1.07558e-319
1.12607e-319
1.17924e-319
1.23497e-319
1.29337e-319
1.35433e-319
1.41817e-319
1.48516e-319
1.55512e-319
1.62844e-319
1.70532e-319
1.78575e-319
1.86994e-319
1.95808e-319
2.05037e-319
2.14701e-319
2.2482e-319
2.35403e-319
2.46479e-319
2.5807e-319
2.70195e-319
2.82872e-319
2.96143e-319
3.09997e-319
3.24492e-319
3.3964e-319
3.55451e-319
3.71972e-319
3.89215e-319
4.07209e-319
4.07387e-319
3.89383e-319
3.7213e-319
3.55589e-319
3.39739e-319
3.24562e-319
3.10006e-319
2.96074e-319
2.82724e-319
2.69948e-319
2.57724e-319
2.46025e-319
2.34839e-319
2.24148e-319
2.1393e-319
2.04187e-319
1.94879e-319
1.85986e-319
1.77518e-319
1.69425e-319
1.61718e-319
1.54366e-319
1.4736e-319
1.4067e-319
1.34297e-319
1.282e-319
1.2238e-319
1.16817e-319
1.11481e-319
1.06392e-319
8.72125e-320
8.72718e-320
8.73607e-320
8.74694e-320
8.75978e-320
8.77559e-320
8.79239e-320
8.81018e-320
8.82599e-320
8.84081e-320
8.85366e-320
8.86255e-320
8.86947e-320
8.87737e-320
8.88528e-320
8.89318e-320
8.90405e-320
8.9169e-320
8.93271e-320
8.94852e-320
8.9663e-320
8.98113e-320
8.99101e-320
8.99397e-320
8.99101e-320
8.98409e-320
8.97421e-320
8.96235e-320
8.95049e-320
8.93666e-320
8.92283e-320
8.90998e-320
8.91393e-320
8.9663e-320
9.11057e-320
9.28448e-320
9.24891e-320
9.04931e-320
8.90504e-320
8.83982e-320
1.07588e-319
1.12627e-319
1.17943e-319
1.23516e-319
1.29346e-319
1.35443e-319
1.41836e-319
1.48516e-319
1.55512e-319
1.62844e-319
1.70532e-319
1.78565e-319
1.86994e-319
1.95808e-319
2.05037e-319
2.14691e-319
2.248e-319
2.35393e-319
2.4646e-319
2.5805e-319
2.70175e-319
2.82853e-319
2.96113e-319
3.09977e-319
3.24463e-319
3.39601e-319
3.55411e-319
3.71933e-319
3.89166e-319
4.07159e-319
4.07416e-319
3.89403e-319
3.7215e-319
3.55609e-319
3.39759e-319
3.24581e-319
3.10026e-319
2.96084e-319
2.82744e-319
2.69957e-319
2.57734e-319
2.46035e-319
2.34849e-319
2.24158e-319
2.1395e-319
2.04187e-319
1.94879e-319
1.86006e-319
1.77528e-319
1.69435e-319
1.61727e-319
1.54376e-319
1.4737e-319
1.4067e-319
1.34297e-319
1.282e-319
1.2239e-319
1.16817e-319
1.11481e-319
1.06402e-319
8.72125e-320
8.72718e-320
8.73607e-320
8.74694e-320
8.76077e-320
8.77559e-320
8.79239e-320
8.81018e-320
8.82599e-320
8.84081e-320
8.85366e-320
8.86255e-320
8.86947e-320
8.87737e-320
8.88528e-320
8.89318e-320
8.90504e-320
8.9169e-320
8.93271e-320
8.94852e-320
8.9663e-320
8.98014e-320
8.99002e-320
8.99397e-320
8.99002e-320
8.98409e-320
8.97421e-320
8.96334e-320
8.95148e-320
8.93864e-320
8.92381e-320
8.91294e-320
8.91788e-320
8.97124e-320
9.10859e-320
9.26867e-320
9.23508e-320
9.05128e-320
8.90899e-320
8.84378e-320
1.07627e-319
1.12657e-319
1.17963e-319
1.23536e-319
1.29356e-319
1.35453e-319
1.41836e-319
1.48516e-319
1.55512e-319
1.62844e-319
1.70532e-319
1.78565e-319
1.86984e-319
1.95788e-319
2.05017e-319
2.14681e-319
2.2479e-319
2.35373e-319
2.4644e-319
2.58031e-319
2.70155e-319
2.82823e-319
2.96084e-319
3.09937e-319
3.24423e-319
3.39561e-319
3.55372e-319
3.71883e-319
3.89116e-319
4.071e-319
4.07456e-319
3.89442e-319
3.7219e-319
3.55648e-319
3.39789e-319
3.24601e-319
3.10046e-319
2.96103e-319
2.82764e-319
2.69977e-319
2.57744e-319
2.46045e-319
2.34859e-319
2.24167e-319
2.1395e-319
2.04207e-319
1.94889e-319
1.86006e-319
1.77528e-319
1.69445e-319
1.61737e-319
1.54386e-319
1.4737e-319
1.4068e-319
1.34307e-319
1.2821e-319
1.2239e-319
1.16817e-319
1.11491e-319
1.06402e-319
8.72125e-320
8.72816e-320
8.73706e-320
8.74694e-320
8.76077e-320
8.77658e-320
8.79239e-320
8.81018e-320
8.82599e-320
8.84081e-320
8.85366e-320
8.86255e-320
8.86947e-320
8.87737e-320
8.88528e-320
8.89318e-320
8.90504e-320
8.9169e-320
8.93271e-320
8.94852e-320
8.96532e-320
8.98014e-320
8.99002e-320
8.99298e-320
8.99002e-320
8.9831e-320
8.97421e-320
8.96334e-320
8.95247e-320
8.93864e-320
8.9248e-320
8.91492e-320
8.92184e-320
8.9752e-320
9.10662e-320
9.25286e-320
9.22322e-320
9.05128e-320
8.91393e-320
8.84773e-320
1.07647e-319
1.12686e-319
1.17983e-319
1.23546e-319
1.29366e-319
1.35453e-319
1.41836e-319
1.48516e-319
1.55522e-319
1.62844e-319
1.70522e-319
1.78555e-319
1.86974e-319
1.95788e-319
2.05017e-319
2.14662e-319
2.2478e-319
2.35353e-319
2.4642e-319
2.58001e-319
2.70125e-319
2.82803e-319
2.96044e-319
3.09898e-319
3.24384e-319
3.39522e-319
3.55322e-319
3.71824e-319
3.89047e-319
4.07031e-319
4.07495e-319
3.89482e-319
3.72209e-319
3.55668e-319
3.39818e-319
3.24621e-319
3.10076e-319
2.96123e-319
2.82783e-319
2.69997e-319
2.57764e-319
2.46064e-319
2.34879e-319
2.24187e-319
2.1397e-319
2.04207e-319
1.94899e-319
1.86016e-319
1.77538e-319
1.69445e-319
1.61737e-319
1.54386e-319
1.4737e-319
1.4069e-319
1.34307e-319
1.2822e-319
1.2239e-319
1.16817e-319
1.11491e-319
1.06402e-319
8.72223e-320
8.72816e-320
8.73706e-320
8.74694e-320
8.76077e-320
8.77658e-320
8.79239e-320
8.81018e-320
8.82599e-320
8.8418e-320
8.85366e-320
8.86255e-320
8.87045e-320
8.87737e-320
8.88528e-320
8.89417e-320
8.90504e-320
8.91788e-320
8.93271e-320
8.94852e-320
8.96532e-320
8.97915e-320
8.98903e-320
8.99199e-320
8.99002e-320
8.9831e-320
8.97421e-320
8.96433e-320
8.95247e-320
8.93962e-320
8.92678e-320
8.9169e-320
8.9248e-320
8.97816e-320
9.10464e-320
9.23903e-320
9.21136e-320
9.05128e-320
8.91887e-320
8.85069e-320
1.07687e-319
1.12706e-319
1.18003e-319
1.23556e-319
1.29376e-319
1.35473e-319
1.41846e-319
1.48526e-319
1.55522e-319
1.62844e-319
1.70522e-319
1.78555e-319
1.86974e-319
1.95778e-319
2.04998e-319
2.14652e-319
2.2476e-319
2.35333e-319
2.464e-319
2.57981e-319
2.70096e-319
2.82764e-319
2.96005e-319
3.09858e-319
3.24334e-319
3.39463e-319
3.55263e-319
3.71755e-319
3.88988e-319
4.06952e-319
4.07545e-319
3.89521e-319
3.72249e-319
3.55708e-319
3.39848e-319
3.2466e-319
3.10095e-319
2.96153e-319
2.82803e-319
2.70017e-319
2.57784e-319
2.46084e-319
2.34889e-319
2.24197e-319
2.1398e-319
2.04227e-319
1.94909e-319
1.86026e-319
1.77547e-319
1.69455e-319
1.61737e-319
1.54386e-319
1.4738e-319
1.4069e-319
1.34307e-319
1.2822e-319
1.2239e-319
1.16827e-319
1.11501e-319
1.06402e-319
8.72322e-320
8.72915e-320
8.73706e-320
8.74793e-320
8.76077e-320
8.77658e-320
8.79338e-320
8.81018e-320
8.82698e-320
8.8418e-320
8.85366e-320
8.86255e-320
8.87045e-320
8.87737e-320
8.88528e-320
8.89417e-320
8.90504e-320
8.91788e-320
8.93271e-320
8.94852e-320
8.96433e-320
8.97816e-320
8.98804e-320
8.99199e-320
8.98903e-320
8.98211e-320
8.97421e-320
8.96433e-320
8.95247e-320
8.94061e-320
8.92875e-320
8.91986e-320
8.92875e-320
8.98211e-320
9.10168e-320
9.22519e-320
9.20049e-320
9.05128e-320
8.92184e-320
8.85366e-320
1.07706e-319
1.12726e-319
1.18022e-319
1.23576e-319
1.29386e-319
1.35473e-319
1.41856e-319
1.48526e-319
1.55522e-319
1.62844e-319
1.70512e-319
1.78545e-319
1.86954e-319
1.95769e-319
2.04978e-319
2.14642e-319
2.24741e-319
2.35314e-319
2.46371e-319
2.57942e-319
2.70056e-319
2.82724e-319
2.95965e-319
3.09809e-319
3.24285e-319
3.39403e-319
3.55194e-319
3.71676e-319
3.88899e-319
4.06863e-319
4.07584e-319
3.89561e-319
3.72288e-319
3.55747e-319
3.39878e-319
3.2468e-319
3.10125e-319
2.96182e-319
2.82823e-319
2.70037e-319
2.57803e-319
2.46104e-319
2.34908e-319
2.24207e-319
2.1399e-319
2.04237e-319
1.94919e-319
1.86026e-319
1.77547e-319
1.69465e-319
1.61757e-319
1.54396e-319
1.4739e-319
1.407e-319
1.34317e-319
1.2822e-319
1.224e-319
1.16837e-319
1.11501e-319
1.06412e-319
8.72322e-320
8.72915e-320
8.73706e-320
8.74891e-320
8.76176e-320
8.77658e-320
8.79437e-320
8.81018e-320
8.82698e-320
8.8418e-320
8.85366e-320
8.86354e-320
8.87045e-320
8.87737e-320
8.88528e-320
8.89516e-320
8.90504e-320
8.91887e-320
8.93271e-320
8.94852e-320
8.96433e-320
8.97816e-320
8.98804e-320
8.99101e-320
8.98804e-320
8.98211e-320
8.97421e-320
8.96433e-320
8.95346e-320
8.9416e-320
8.92974e-320
8.92283e-320
8.93271e-320
8.98508e-320
9.09871e-320
9.21334e-320
9.18962e-320
9.04931e-320
8.9248e-320
8.85662e-320
1.07736e-319
1.12746e-319
1.18032e-319
1.23576e-319
1.29386e-319
1.35473e-319
1.41856e-319
1.48526e-319
1.55512e-319
1.62844e-319
1.70512e-319
1.78536e-319
1.86945e-319
1.95749e-319
2.04958e-319
2.14612e-319
2.24711e-319
2.35274e-319
2.46341e-319
2.57912e-319
2.70017e-319
2.82675e-319
2.95906e-319
3.0975e-319
3.24216e-319
3.39324e-319
3.55115e-319
3.71597e-319
3.8881e-319
4.06754e-319
4.07644e-319
3.8962e-319
3.72348e-319
3.55787e-319
3.39917e-319
3.2472e-319
3.10155e-319
2.96202e-319
2.82853e-319
2.70056e-319
2.57823e-319
2.46124e-319
2.34918e-319
2.24227e-319
2.14009e-319
2.04247e-319
1.94939e-319
1.86045e-319
1.77567e-319
1.69474e-319
1.61757e-319
1.54405e-319
1.4739e-319
1.4071e-319
1.34327e-319
1.2823e-319
1.2241e-319
1.16837e-319
1.11501e-319
1.06412e-319
8.72322e-320
8.72915e-320
8.73706e-320
8.74891e-320
8.76275e-320
8.77757e-320
8.79437e-320
8.81117e-320
8.82796e-320
8.8418e-320
8.85366e-320
8.86354e-320
8.87144e-320
8.87836e-320
8.88528e-320
8.89516e-320
8.90603e-320
8.91887e-320
8.93271e-320
8.94852e-320
8.96433e-320
8.97816e-320
8.98705e-320
8.99002e-320
8.98804e-320
8.98211e-320
8.97421e-320
8.96433e-320
8.95445e-320
8.94259e-320
8.93172e-320
8.9248e-320
8.93567e-320
8.98804e-320
9.09575e-320
9.20148e-320
9.17974e-320
9.04931e-320
8.92678e-320
8.85959e-320
1.07766e-319
1.12766e-319
1.18042e-319
1.23595e-319
1.29406e-319
1.35483e-319
1.41856e-319
1.48526e-319
1.55512e-319
1.62834e-319
1.70502e-319
1.78526e-319
1.86935e-319
1.95729e-319
2.04938e-319
2.14583e-319
2.24681e-319
2.35254e-319
2.46302e-319
2.57863e-319
2.69967e-319
2.82625e-319
2.95856e-319
3.0968e-319
3.24147e-319
3.39245e-319
3.55026e-319
3.71498e-319
3.88691e-319
4.06636e-319
4.07703e-319
3.8967e-319
3.72387e-319
3.55826e-319
3.39957e-319
3.24759e-319
3.10194e-319
2.96242e-319
2.82882e-319
2.70096e-319
2.57843e-319
2.46144e-319
2.34938e-319
2.24247e-319
2.14029e-319
2.04267e-319
1.94948e-319
1.86055e-319
1.77567e-319
1.69484e-319
1.61767e-319
1.54415e-319
1.474e-319
1.4071e-319
1.34327e-319
1.2824e-319
1.2241e-319
1.16837e-319
1.11511e-319
1.06422e-319
8.72322e-320
8.72915e-320
8.73805e-320
8.74891e-320
8.76275e-320
8.77856e-320
8.79437e-320
8.81215e-320
8.82796e-320
8.8418e-320
8.85366e-320
8.86354e-320
8.87144e-320
8.87836e-320
8.88626e-320
8.89516e-320
8.90702e-320
8.91887e-320
8.93271e-320
8.94852e-320
8.96433e-320
8.97816e-320
8.98607e-320
8.99002e-320
8.98804e-320
8.98211e-320
8.97421e-320
8.96433e-320
8.95445e-320
8.94358e-320
8.93271e-320
8.92678e-320
8.93864e-320
8.99002e-320
9.09278e-320
9.19061e-320
9.17085e-320
9.04733e-320
8.92974e-320
8.86156e-320
1.07785e-319
1.12775e-319
1.18062e-319
1.23595e-319
1.29406e-319
1.35493e-319
1.41856e-319
1.48526e-319
1.55512e-319
1.62824e-319
1.70492e-319
1.78516e-319
1.86915e-319
1.95709e-319
2.04919e-319
2.14563e-319
2.24652e-319
2.35215e-319
2.46262e-319
2.57823e-319
2.69918e-319
2.82566e-319
2.95787e-319
3.09621e-319
3.24068e-319
3.39166e-319
3.54927e-319
3.71399e-319
3.88573e-319
4.06517e-319
4.07762e-319
3.89729e-319
3.72446e-319
3.55885e-319
3.40016e-319
3.24799e-319
3.10234e-319
2.96281e-319
2.82912e-319
2.70116e-319
2.57883e-319
2.46163e-319
2.34968e-319
2.24266e-319
2.14039e-319
2.04286e-319
1.94958e-319
1.86065e-319
1.77587e-319
1.69494e-319
1.61777e-319
1.54425e-319
1.47409e-319
1.4072e-319
1.34346e-319
1.2824e-319
1.2242e-319
1.16847e-319
1.1152e-319
1.06422e-319
8.72322e-320
8.73014e-320
8.73903e-320
8.74891e-320
8.76275e-320
8.77856e-320
8.79437e-320
8.81215e-320
8.82796e-320
8.8418e-320
8.85366e-320
8.86354e-320
8.87144e-320
8.87935e-320
8.88725e-320
8.89615e-320
8.90702e-320
8.91887e-320
8.9337e-320
8.94852e-320
8.96433e-320
8.97717e-320
8.98607e-320
8.99002e-320
8.98804e-320
8.98211e-320
8.97421e-320
8.96532e-320
8.95543e-320
8.94456e-320
8.93468e-320
8.92875e-320
8.9416e-320
8.99199e-320
9.08982e-320
9.18073e-320
9.16195e-320
9.04535e-320
8.93271e-320
8.86354e-320
1.07805e-319
1.12785e-319
1.18062e-319
1.23605e-319
1.29406e-319
1.35493e-319
1.41856e-319
1.48516e-319
1.55502e-319
1.62824e-319
1.70472e-319
1.78496e-319
1.86895e-319
1.9569e-319
2.04899e-319
2.14533e-319
2.24622e-319
2.35175e-319
2.46223e-319
2.57774e-319
2.69859e-319
2.82507e-319
2.95718e-319
3.09542e-319
3.23969e-319
3.39067e-319
3.54818e-319
3.7128e-319
3.88454e-319
4.06369e-319
4.07841e-319
3.89798e-319
3.72506e-319
3.55935e-319
3.40056e-319
3.24838e-319
3.10273e-319
2.96311e-319
2.82942e-319
2.70155e-319
2.57902e-319
2.46183e-319
2.34997e-319
2.24286e-319
2.14059e-319
2.04296e-319
1.94978e-319
1.86085e-319
1.77597e-319
1.69504e-319
1.61797e-319
1.54435e-319
1.47419e-319
1.4073e-319
1.34346e-319
1.28259e-319
1.22429e-319
1.16856e-319
1.1152e-319
1.06432e-319
8.72421e-320
8.73113e-320
8.73903e-320
8.75089e-320
8.76374e-320
8.77856e-320
8.79634e-320
8.81215e-320
8.82796e-320
8.84279e-320
8.85464e-320
8.86354e-320
8.87144e-320
8.87935e-320
8.88725e-320
8.89713e-320
8.90702e-320
8.91986e-320
8.93468e-320
8.94852e-320
8.96433e-320
8.97618e-320
8.98607e-320
8.98903e-320
8.98804e-320
8.98211e-320
8.97421e-320
8.96532e-320
8.95642e-320
8.94654e-320
8.93666e-320
8.93172e-320
8.94456e-320
8.99397e-320
9.08686e-320
9.17183e-320
9.15405e-320
9.04437e-320
8.93468e-320
8.8665e-320
1.07825e-319
1.12805e-319
1.18082e-319
1.23615e-319
1.29406e-319
1.35493e-319
1.41856e-319
1.48516e-319
1.55492e-319
1.62805e-319
1.70463e-319
1.78476e-319
1.86875e-319
1.9567e-319
2.04859e-319
2.14504e-319
2.24582e-319
2.35126e-319
2.46163e-319
2.57715e-319
2.69799e-319
2.82428e-319
2.95639e-319
3.09443e-319
3.2388e-319
3.38949e-319
3.547e-319
3.71142e-319
3.88306e-319
4.06211e-319
4.0792e-319
3.89857e-319
3.72565e-319
3.55994e-319
3.40115e-319
3.24898e-319
3.10313e-319
2.9636e-319
2.82981e-319
2.70185e-319
2.57942e-319
2.46223e-319
2.35017e-319
2.24306e-319
2.14079e-319
2.04316e-319
1.94998e-319
1.86105e-319
1.77607e-319
1.69524e-319
1.61797e-319
1.54445e-319
1.47429e-319
1.4074e-319
1.34356e-319
1.28259e-319
1.22429e-319
1.16856e-319
1.1153e-319
1.06442e-319
8.7252e-320
8.73113e-320
8.73903e-320
8.75089e-320
8.76472e-320
8.77955e-320
8.79634e-320
8.81314e-320
8.82895e-320
8.84378e-320
8.85563e-320
8.86453e-320
8.87243e-320
8.87935e-320
8.88725e-320
8.89713e-320
8.908e-320
8.92085e-320
8.93468e-320
8.94951e-320
8.96433e-320
8.97618e-320
8.98508e-320
8.98804e-320
8.98705e-320
8.98211e-320
8.97421e-320
8.9663e-320
8.95642e-320
8.94654e-320
8.93765e-320
8.9337e-320
8.94654e-320
8.99496e-320
9.08389e-320
9.16294e-320
9.14614e-320
9.04239e-320
8.93567e-320
8.86848e-320
1.07845e-319
1.12815e-319
1.18082e-319
1.23615e-319
1.29416e-319
1.35493e-319
1.41846e-319
1.48516e-319
1.55492e-319
1.62795e-319
1.70453e-319
1.78457e-319
1.86856e-319
1.9563e-319
2.0484e-319
2.14464e-319
2.24533e-319
2.35076e-319
2.46104e-319
2.57645e-319
2.6972e-319
2.82349e-319
2.9555e-319
3.09344e-319
3.23771e-319
3.3883e-319
3.54571e-319
3.71004e-319
3.88148e-319
4.06043e-319
4.07999e-319
3.89936e-319
3.72634e-319
3.56053e-319
3.40174e-319
3.24947e-319
3.10362e-319
2.964e-319
2.83021e-319
2.70214e-319
2.57962e-319
2.46242e-319
2.35037e-319
2.24326e-319
2.14108e-319
2.04336e-319
1.95018e-319
1.86115e-319
1.77626e-319
1.69534e-319
1.61816e-319
1.54455e-319
1.47439e-319
1.40749e-319
1.34366e-319
1.28269e-319
1.22449e-319
1.16866e-319
1.1154e-319
1.06442e-319
8.7252e-320
8.73113e-320
8.74002e-320
8.75089e-320
8.76472e-320
8.78053e-320
8.79634e-320
8.81413e-320
8.82994e-320
8.84378e-320
8.85563e-320
8.86551e-320
8.87342e-320
8.88034e-320
8.88824e-320
8.89713e-320
8.90899e-320
8.92085e-320
8.93468e-320
8.94951e-320
8.96433e-320
8.97618e-320
8.98508e-320
8.98804e-320
8.98705e-320
8.98211e-320
8.97421e-320
8.9663e-320
8.95741e-320
8.94852e-320
8.93864e-320
8.93567e-320
8.94852e-320
8.99595e-320
9.08093e-320
9.15504e-320
9.13923e-320
9.0414e-320
8.93666e-320
8.87045e-320
1.07855e-319
1.12825e-319
1.18092e-319
1.23615e-319
1.29416e-319
1.35483e-319
1.41836e-319
1.48496e-319
1.55473e-319
1.62785e-319
1.70433e-319
1.78437e-319
1.86826e-319
1.9561e-319
2.048e-319
2.14424e-319
2.24484e-319
2.35017e-319
2.46045e-319
2.57586e-319
2.69641e-319
2.8227e-319
2.95451e-319
3.09246e-319
3.23653e-319
3.38712e-319
3.54423e-319
3.70846e-319
3.8798e-319
4.05845e-319
4.08078e-319
3.90015e-319
3.72703e-319
3.56123e-319
3.40233e-319
3.24996e-319
3.10412e-319
2.96439e-319
2.8306e-319
2.70254e-319
2.58001e-319
2.46282e-319
2.35076e-319
2.24365e-319
2.14128e-319
2.04355e-319
1.95027e-319
1.86124e-319
1.77646e-319
1.69544e-319
1.61826e-319
1.54465e-319
1.47449e-319
1.40759e-319
1.34376e-319
1.28279e-319
1.22449e-319
1.16876e-319
1.1154e-319
1.06451e-319
8.7252e-320
8.73212e-320
8.74101e-320
8.75188e-320
8.76571e-320
8.78053e-320
8.79733e-320
8.81413e-320
8.82994e-320
8.84378e-320
8.85563e-320
8.86551e-320
8.87342e-320
8.88132e-320
8.88923e-320
8.89812e-320
8.90899e-320
8.92085e-320
8.93468e-320
8.95049e-320
8.96433e-320
8.97618e-320
8.98409e-320
8.98804e-320
8.98705e-320
8.98211e-320
8.9752e-320
8.9663e-320
8.9584e-320
8.94852e-320
8.94061e-320
8.93765e-320
8.95148e-320
8.99792e-320
9.07895e-320
9.14812e-320
9.13231e-320
9.03943e-320
8.93864e-320
8.87243e-320
1.07864e-319
1.12835e-319
1.18101e-319
1.23615e-319
1.29416e-319
1.35483e-319
1.41836e-319
1.48496e-319
1.55463e-319
1.62765e-319
1.70413e-319
1.78417e-319
1.86796e-319
1.95571e-319
2.04761e-319
2.14365e-319
2.24434e-319
2.34958e-319
2.45985e-319
2.57507e-319
2.69562e-319
2.82171e-319
2.95352e-319
3.09127e-319
3.23534e-319
3.38573e-319
3.54275e-319
3.70668e-319
3.87782e-319
4.05648e-319
4.08177e-319
3.90094e-319
3.72782e-319
3.56182e-319
3.40293e-319
3.25056e-319
3.10471e-319
2.96489e-319
2.831e-319
2.70293e-319
2.58041e-319
2.46311e-319
2.35096e-319
2.24385e-319
2.14148e-319
2.04385e-319
1.95047e-319
1.86144e-319
1.77656e-319
1.69563e-319
1.61836e-319
1.54484e-319
1.47469e-319
1.40769e-319
1.34386e-319
1.28289e-319
1.22459e-319
1.16886e-319
1.1155e-319
1.06461e-319
8.72619e-320
8.7331e-320
8.74101e-320
8.75287e-320
8.7667e-320
8.78152e-320
8.79832e-320
8.81512e-320
8.83093e-320
8.84476e-320
8.85662e-320
8.86551e-320
8.87342e-320
8.88132e-320
8.88923e-320
8.89911e-320
8.90998e-320
8.92283e-320
8.93567e-320
8.95049e-320
8.96433e-320
8.97618e-320
8.98409e-320
8.98804e-320
8.98607e-320
8.98211e-320
8.9752e-320
8.96729e-320
8.9584e-320
8.95049e-320
8.94259e-320
8.93962e-320
8.95346e-320
8.99792e-320
9.075e-320
9.14021e-320
9.12638e-320
9.03745e-320
8.94061e-320
8.87441e-320
1.07884e-319
1.12845e-319
1.18101e-319
1.23625e-319
1.29416e-319
1.35473e-319
1.41836e-319
1.48477e-319
1.55453e-319
1.62745e-319
1.70393e-319
1.78387e-319
1.86757e-319
1.95531e-319
2.04721e-319
2.14326e-319
2.24385e-319
2.34899e-319
2.45906e-319
2.57428e-319
2.69473e-319
2.82072e-319
2.95244e-319
3.09008e-319
3.23396e-319
3.38415e-319
3.54107e-319
3.7049e-319
3.87585e-319
4.0543e-319
4.08266e-319
3.90183e-319
3.72861e-319
3.56261e-319
3.40352e-319
3.25115e-319
3.1052e-319
2.96538e-319
2.83159e-319
2.70333e-319
2.5808e-319
2.46341e-319
2.35136e-319
2.24414e-319
2.14177e-319
2.04405e-319
1.95077e-319
1.86164e-319
1.77676e-319
1.69583e-319
1.61856e-319
1.54494e-319
1.47469e-319
1.40789e-319
1.34396e-319
1.28299e-319
1.22469e-319
1.16896e-319
1.1156e-319
1.06461e-319
8.72718e-320
8.7331e-320
8.742e-320
8.75287e-320
8.7667e-320
8.78251e-320
8.79832e-320
8.81611e-320
8.83192e-320
8.84575e-320
8.85761e-320
8.8665e-320
8.8754e-320
8.88231e-320
8.89121e-320
8.89911e-320
8.91097e-320
8.92283e-320
8.93666e-320
8.95049e-320
8.96433e-320
8.97618e-320
8.98409e-320
8.98804e-320
8.98705e-320
8.98211e-320
8.97618e-320
8.96828e-320
8.96037e-320
8.95049e-320
8.94358e-320
8.9416e-320
8.95543e-320
8.9999e-320
9.07302e-320
9.13429e-320
9.12045e-320
9.03547e-320
8.9416e-320
8.8754e-320
1.07904e-319
1.12854e-319
1.18101e-319
1.23625e-319
1.29406e-319
1.35473e-319
1.41817e-319
1.48477e-319
1.55433e-319
1.62725e-319
1.70364e-319
1.78358e-319
1.86727e-319
1.95492e-319
2.04662e-319
2.14266e-319
2.24316e-319
2.34839e-319
2.45827e-319
2.57349e-319
2.69384e-319
2.81963e-319
2.95115e-319
3.0887e-319
3.23238e-319
3.38257e-319
3.53929e-319
3.70292e-319
3.87367e-319
4.05193e-319
4.08365e-319
3.90272e-319
3.72941e-319
3.5634e-319
3.40431e-319
3.25174e-319
3.1058e-319
2.96597e-319
2.83198e-319
2.70382e-319
2.5812e-319
2.46381e-319
2.35165e-319
2.24444e-319
2.14207e-319
2.04425e-319
1.95097e-319
1.86184e-319
1.77696e-319
1.69593e-319
1.61876e-319
1.54504e-319
1.47488e-319
1.40789e-319
1.34406e-319
1.28309e-319
1.22479e-319
1.16896e-319
1.1157e-319
1.06481e-319
8.72718e-320
8.73409e-320
8.74299e-320
8.75386e-320
8.76769e-320
8.78251e-320
8.8003e-320
8.81611e-320
8.83192e-320
8.84575e-320
8.85761e-320
8.86749e-320
8.8754e-320
8.8833e-320
8.89121e-320
8.90109e-320
8.91097e-320
8.92283e-320
8.93666e-320
8.95148e-320
8.96433e-320
8.97618e-320
8.98409e-320
8.98804e-320
8.98705e-320
8.98211e-320
8.97618e-320
8.96828e-320
8.96037e-320
8.95247e-320
8.94456e-320
8.94358e-320
8.9584e-320
8.9999e-320
9.07105e-320
9.12836e-320
9.11452e-320
9.03448e-320
8.94259e-320
8.87737e-320
1.07914e-319
1.12864e-319
1.18111e-319
1.23625e-319
1.29406e-319
1.35473e-319
1.41817e-319
1.48457e-319
1.55413e-319
1.62706e-319
1.70334e-319
1.78328e-319
1.86698e-319
1.95452e-319
2.04622e-319
2.14207e-319
2.24247e-319
2.3476e-319
2.45748e-319
2.5725e-319
2.69276e-319
2.81855e-319
2.94997e-319
3.08732e-319
3.23079e-319
3.38079e-319
3.53731e-319
3.70085e-319
3.8714e-319
4.04936e-319
4.08474e-319
3.90371e-319
3.73029e-319
3.56419e-319
3.4049e-319
3.25243e-319
3.10639e-319
2.96647e-319
2.83258e-319
2.70432e-319
2.58159e-319
2.4642e-319
2.35195e-319
2.24474e-319
2.14227e-319
2.04444e-319
1.95116e-319
1.86203e-319
1.77715e-319
1.69613e-319
1.61886e-319
1.54524e-319
1.47508e-319
1.40809e-319
1.34425e-319
1.28319e-319
1.22489e-319
1.16916e-319
1.1158e-319
1.06481e-319
8.72816e-320
8.73508e-320
8.74299e-320
8.75484e-320
8.76868e-320
8.78449e-320
8.8003e-320
8.8171e-320
8.83291e-320
8.84674e-320
8.8586e-320
8.86749e-320
8.87638e-320
8.8833e-320
8.89219e-320
8.90109e-320
8.91196e-320
8.9248e-320
8.93765e-320
8.95247e-320
8.96532e-320
8.97618e-320
8.98409e-320
8.98804e-320
8.98705e-320
8.9831e-320
8.97618e-320
8.96927e-320
8.96136e-320
8.95346e-320
8.94654e-320
8.94555e-320
8.95939e-320
9.00188e-320
9.06808e-320
9.12243e-320
9.11057e-320
9.0335e-320
8.94358e-320
8.87935e-320
1.07924e-319
1.12874e-319
1.18121e-319
1.23625e-319
1.29406e-319
1.35453e-319
1.41797e-319
1.48437e-319
1.55394e-319
1.62686e-319
1.70304e-319
1.78298e-319
1.86658e-319
1.95403e-319
2.04563e-319
2.14148e-319
2.24187e-319
2.34681e-319
2.45659e-319
2.57151e-319
2.69167e-319
2.81726e-319
2.94858e-319
3.08574e-319
3.22921e-319
3.37901e-319
3.53534e-319
3.69858e-319
3.86893e-319
4.0466e-319
4.08573e-319
3.9047e-319
3.73118e-319
3.56498e-319
3.40569e-319
3.25313e-319
3.10698e-319
2.96706e-319
2.83297e-319
2.70471e-319
2.58199e-319
2.4646e-319
2.35235e-319
2.24503e-319
2.14266e-319
2.04484e-319
1.95136e-319
1.86233e-319
1.77735e-319
1.69632e-319
1.61905e-319
1.54544e-319
1.47518e-319
1.40828e-319
1.34435e-319
1.28338e-319
1.22509e-319
1.16926e-319
1.1159e-319
1.06491e-319
8.72915e-320
8.73508e-320
8.74397e-320
8.75484e-320
8.76868e-320
8.78449e-320
8.80129e-320
8.81808e-320
8.83389e-320
8.84773e-320
8.85959e-320
8.86947e-320
8.87737e-320
8.88528e-320
8.89318e-320
8.90207e-320
8.91294e-320
8.9248e-320
8.93864e-320
8.95247e-320
8.9663e-320
8.97717e-320
8.98409e-320
8.98804e-320
8.98804e-320
8.9831e-320
8.97717e-320
8.97026e-320
8.96235e-320
8.95445e-320
8.94852e-320
8.94753e-320
8.96136e-320
9.00188e-320
9.0661e-320
9.1165e-320
9.10464e-320
9.03152e-320
8.94456e-320
8.88132e-320
1.07943e-319
1.12884e-319
1.18121e-319
1.23625e-319
1.29406e-319
1.35453e-319