/*--------------------------------*- C++ -*----------------------------------*\
  =========                 |
  \\      /  F ield         | OpenFOAM: The Open Source CFD Toolbox
   \\    /   O peration     | Website:  https://openfoam.org
    \\  /    A nd           | Version:  9
     \\/     M anipulation  |
\*---------------------------------------------------------------------------*/
FoamFile
{
    format      ascii;
    class       volScalarField;
    location    "0.16";
    object      p;
}
// * * * * * * * * * * * * * * * * * * * * * * * * * * * * * * * * * * * * * //

dimensions      [1 -1 -2 0 0 0 0];

internalField   nonuniform List<scalar> 
20000
(
3.1662
3.16624
3.16628
3.16631
3.16635
3.16638
3.16642
3.16645
3.16647
3.16649
3.1665
3.1665
3.16648
3.16646
3.16643
3.1664
3.16638
3.16636
3.16636
3.16639
3.16644
3.16651
3.16661
3.16673
3.16687
3.16702
3.16717
3.16732
3.16746
3.16756
3.16764
3.16765
3.16756
3.16731
3.16686
3.16614
3.16513
3.16385
3.16239
3.1609
3.15952
3.15829
3.15717
3.15602
3.1547
3.15308
3.15105
3.14854
3.14552
3.14205
3.13843
3.13521
3.13307
3.13247
3.13333
3.13514
3.13737
3.13967
3.14196
3.14414
3.14576
3.1456
3.14064
3.1246
3.08347
3.01066
3.04043
3.11443
3.14449
3.15559
3.1601
3.16235
3.16375
3.16475
3.16549
3.16605
3.16647
3.16679
3.16701
3.16715
3.16724
3.16728
3.16729
3.16726
3.16722
3.16716
3.16708
3.167
3.16692
3.16684
3.16675
3.16667
3.16659
3.16651
3.16644
3.16637
3.16631
3.16625
3.16621
3.16617
3.16426
3.16435
3.16443
3.16452
3.1646
3.16469
3.16478
3.16488
3.16496
3.16505
3.16513
3.1652
3.16526
3.16531
3.16536
3.1654
3.16544
3.16548
3.16554
3.16561
3.16569
3.16579
3.16592
3.16607
3.16625
3.16646
3.1667
3.16694
3.16718
3.16738
3.16754
3.1676
3.16754
3.16733
3.16695
3.16637
3.16561
3.16469
3.16367
3.16262
3.16161
3.16064
3.15966
3.15858
3.15732
3.1558
3.15398
3.15183
3.14938
3.14674
3.14417
3.14202
3.14065
3.14026
3.14076
3.14187
3.14325
3.14466
3.14585
3.1465
3.14592
3.14268
3.1344
3.11873
3.09679
3.06591
3.08424
3.12018
3.13853
3.15007
3.15649
3.16014
3.16248
3.16404
3.1651
3.16583
3.16633
3.16665
3.16684
3.16693
3.16694
3.1669
3.16681
3.16669
3.16655
3.16639
3.16622
3.16604
3.16586
3.16568
3.1655
3.16532
3.16515
3.16499
3.16483
3.16469
3.16456
3.16444
3.16433
3.16424
3.16229
3.16239
3.16249
3.16259
3.16269
3.1628
3.16291
3.16302
3.16313
3.16324
3.16335
3.16346
3.16357
3.16367
3.16377
3.16387
3.16398
3.16409
3.16421
3.16434
3.16449
3.16466
3.16485
3.16507
3.16531
3.16557
3.16585
3.16614
3.16643
3.16669
3.16693
3.16709
3.16714
3.16705
3.16681
3.16641
3.16584
3.16514
3.16435
3.16351
3.16268
3.16184
3.16097
3.16
3.15887
3.15753
3.15594
3.1541
3.15205
3.1499
3.14784
3.14612
3.145
3.14462
3.1449
3.14563
3.14656
3.14745
3.14803
3.14794
3.14658
3.14291
3.13564
3.12387
3.1109
3.08982
3.10163
3.12598
3.1392
3.1493
3.15542
3.15911
3.16158
3.16324
3.16436
3.1651
3.16558
3.16586
3.166
3.16603
3.16598
3.16587
3.16572
3.16553
3.16532
3.16509
3.16486
3.16463
3.16439
3.16416
3.16393
3.16371
3.1635
3.1633
3.1631
3.16292
3.16275
3.1626
3.16245
3.16231
3.16033
3.16044
3.16055
3.16067
3.16079
3.16091
3.16104
3.16117
3.1613
3.16144
3.16158
3.16172
3.16186
3.16201
3.16216
3.16231
3.16247
3.16264
3.16282
3.16302
3.16323
3.16346
3.16371
3.16399
3.16429
3.16461
3.16495
3.1653
3.16564
3.16597
3.16629
3.16656
3.16672
3.16677
3.16667
3.16643
3.16605
3.16554
3.16493
3.16428
3.1636
3.1629
3.16216
3.16132
3.16035
3.1592
3.15784
3.15628
3.15456
3.15276
3.15106
3.14963
3.14868
3.1483
3.14844
3.14894
3.14957
3.15011
3.15032
3.1499
3.14837
3.14515
3.1395
3.13053
3.1215
3.10566
3.11382
3.13209
3.14242
3.15081
3.15591
3.15913
3.16136
3.16289
3.16392
3.16458
3.16499
3.16519
3.16525
3.16521
3.16508
3.16489
3.16466
3.1644
3.16413
3.16384
3.16354
3.16324
3.16295
3.16266
3.16238
3.16211
3.16186
3.16161
3.16137
3.16115
3.16094
3.16074
3.16055
3.16037
3.15838
3.1585
3.15863
3.15876
3.1589
3.15905
3.1592
3.15936
3.15952
3.15969
3.15986
3.16005
3.16023
3.16043
3.16063
3.16084
3.16105
3.16128
3.16153
3.16179
3.16207
3.16237
3.16269
3.16303
3.1634
3.16379
3.16419
3.16461
3.16503
3.16544
3.16586
3.16625
3.16654
3.16673
3.16679
3.16672
3.16653
3.16622
3.16582
3.16536
3.16486
3.16432
3.16373
3.16306
3.16226
3.1613
3.16018
3.15891
3.15751
3.15606
3.1547
3.15356
3.15279
3.15243
3.15247
3.15276
3.15313
3.15337
3.1533
3.15266
3.15108
3.14824
3.14376
3.13685
3.13113
3.12103
3.12625
3.1383
3.14585
3.15277
3.15701
3.15978
3.16172
3.16304
3.16391
3.16445
3.16474
3.16483
3.16479
3.16464
3.16442
3.16414
3.16382
3.16347
3.16311
3.16274
3.16236
3.16199
3.16163
3.16127
3.16093
3.1606
3.16028
3.15998
3.15969
3.15941
3.15915
3.1589
3.15866
3.15843
3.15642
3.15656
3.15671
3.15686
3.15703
3.1572
3.15738
3.15757
3.15776
3.15797
3.15818
3.1584
3.15864
3.15888
3.15913
3.1594
3.15968
3.15997
3.16028
3.1606
3.16095
3.16132
3.16171
3.16212
3.16256
3.16302
3.1635
3.164
3.16451
3.16501
3.16555
3.16607
3.1665
3.16683
3.16706
3.16717
3.16716
3.16706
3.16687
3.16661
3.16631
3.16595
3.16553
3.16502
3.16441
3.16366
3.16278
3.16177
3.16068
3.15956
3.15852
3.15765
3.15705
3.15674
3.1567
3.15683
3.15698
3.157
3.15672
3.15594
3.15439
3.15186
3.14831
3.14315
3.14003
3.13426
3.13749
3.14473
3.14974
3.15516
3.15859
3.16091
3.16252
3.16359
3.16426
3.16463
3.16477
3.16473
3.16456
3.16429
3.16395
3.16355
3.16313
3.16268
3.16221
3.16175
3.16129
3.16083
3.16039
3.15995
3.15954
3.15913
3.15875
3.15838
3.15802
3.15769
3.15737
3.15706
3.15677
3.15649
3.15447
3.15463
3.1548
3.15497
3.15516
3.15536
3.15556
3.15578
3.15601
3.15625
3.1565
3.15677
3.15704
3.15733
3.15763
3.15795
3.15829
3.15864
3.15901
3.1594
3.15982
3.16025
3.16071
3.1612
3.16172
3.16226
3.16282
3.16341
3.164
3.16461
3.16526
3.16592
3.16649
3.16698
3.16737
3.16765
3.16784
3.16793
3.16795
3.16789
3.16777
3.1676
3.16736
3.16703
3.1666
3.16606
3.16541
3.16466
3.16383
3.163
3.16222
3.16158
3.16113
3.16087
3.1608
3.16082
3.16084
3.16072
3.16032
3.15949
3.15807
3.15591
3.15323
3.14948
3.14782
3.1444
3.14645
3.1509
3.15413
3.15809
3.16065
3.16245
3.16367
3.16446
3.16489
3.16505
3.16501
3.16481
3.16449
3.16408
3.1636
3.16308
3.16254
3.16197
3.1614
3.16084
3.16028
3.15973
3.15919
3.15868
3.15818
3.1577
3.15724
3.1568
3.15638
3.15598
3.15559
3.15523
3.15489
3.15456
3.15251
3.15269
3.15288
3.15309
3.1533
3.15352
3.15376
3.154
3.15426
3.15454
3.15483
3.15513
3.15545
3.15578
3.15613
3.1565
3.15689
3.1573
3.15773
3.15819
3.15867
3.15917
3.15971
3.16027
3.16087
3.16149
3.16214
3.16281
3.1635
3.16421
3.16499
3.16578
3.16651
3.16715
3.16771
3.16817
3.16854
3.16883
3.16903
3.16917
3.16924
3.16925
3.16919
3.16905
3.16881
3.16848
3.16805
3.16753
3.16695
3.16635
3.1658
3.16534
3.16501
3.16482
3.16474
3.16472
3.16466
3.16447
3.16403
3.16324
3.16201
3.16025
3.15828
3.15555
3.15458
3.15236
3.15371
3.15658
3.15864
3.16138
3.1631
3.16434
3.16515
3.1656
3.16576
3.16569
3.16545
3.16506
3.16457
3.16401
3.16339
3.16273
3.16205
3.16137
3.16068
3.16
3.15933
3.15868
3.15805
3.15744
3.15686
3.15629
3.15575
3.15524
3.15475
3.15428
3.15383
3.15341
3.15301
3.15262
3.15056
3.15076
3.15098
3.1512
3.15144
3.15169
3.15195
3.15223
3.15252
3.15283
3.15316
3.1535
3.15386
3.15424
3.15463
3.15505
3.1555
3.15596
3.15645
3.15697
3.15752
3.1581
3.15871
3.15935
3.16002
3.16073
3.16147
3.16223
3.16303
3.16384
3.16475
3.16569
3.16657
3.16737
3.1681
3.16874
3.1693
3.16977
3.17017
3.1705
3.17076
3.17095
3.17108
3.17112
3.17108
3.17095
3.17073
3.17043
3.17007
3.16969
3.16934
3.16904
3.16883
3.16871
3.16865
3.16861
3.16852
3.1683
3.16787
3.16716
3.16612
3.16471
3.16326
3.16125
3.16066
3.15917
3.16003
3.16183
3.16303
3.16477
3.16578
3.16649
3.16687
3.16698
3.16686
3.16654
3.16608
3.1655
3.16483
3.16409
3.16331
3.16251
3.16169
3.16087
3.16005
3.15925
3.15847
3.15771
3.15698
3.15627
3.15559
3.15494
3.15431
3.15371
3.15315
3.1526
3.15209
3.1516
3.15113
3.15069
3.14861
3.14883
3.14907
3.14932
3.14958
3.14986
3.15015
3.15046
3.15079
3.15113
3.15149
3.15187
3.15228
3.1527
3.15314
3.15361
3.15411
3.15463
3.15519
3.15577
3.15639
3.15704
3.15772
3.15844
3.1592
3.15999
3.16082
3.16169
3.16259
3.16352
3.16455
3.16565
3.16668
3.16766
3.16856
3.16938
3.17012
3.17079
3.17138
3.1719
3.17235
3.17273
3.17304
3.17327
3.17343
3.17349
3.17348
3.17339
3.17324
3.17306
3.17288
3.17274
3.17265
3.1726
3.17257
3.17254
3.17244
3.17222
3.17183
3.1712
3.17034
3.1692
3.16812
3.16663
3.16629
3.16528
3.16576
3.16676
3.16727
3.16818
3.16857
3.16882
3.1688
3.16857
3.16816
3.16759
3.1669
3.16611
3.16524
3.16433
3.16338
3.16241
3.16145
3.16048
3.15953
3.1586
3.1577
3.15682
3.15597
3.15516
3.15437
3.15362
3.15291
3.15222
3.15157
3.15095
3.15036
3.1498
3.14927
3.14876
3.14666
3.1469
3.14716
3.14744
3.14773
3.14803
3.14836
3.1487
3.14906
3.14943
3.14983
3.15025
3.1507
3.15117
3.15166
3.15218
3.15273
3.15331
3.15393
3.15458
3.15526
3.15598
3.15675
3.15755
3.15839
3.15928
3.1602
3.16117
3.16218
3.16323
3.1644
3.16566
3.16686
3.168
3.16908
3.17008
3.17101
3.17187
3.17265
3.17336
3.174
3.17457
3.17507
3.17549
3.17584
3.1761
3.17628
3.17639
3.17644
3.17645
3.17645
3.17645
3.17646
3.17649
3.17651
3.1765
3.17642
3.17622
3.17587
3.17534
3.17462
3.17369
3.17287
3.17176
3.17155
3.17082
3.17101
3.17141
3.17137
3.17159
3.17146
3.17127
3.17088
3.17033
3.16963
3.1688
3.16788
3.16687
3.16581
3.1647
3.16358
3.16245
3.16132
3.1602
3.15911
3.15804
3.15701
3.156
3.15504
3.15411
3.15321
3.15236
3.15155
3.15077
3.15003
3.14932
3.14865
3.14801
3.14741
3.14683
3.1447
3.14497
3.14526
3.14556
3.14587
3.14621
3.14656
3.14693
3.14733
3.14774
3.14818
3.14864
3.14912
3.14964
3.15018
3.15075
3.15136
3.152
3.15267
3.15339
3.15415
3.15494
3.15578
3.15667
3.1576
3.15858
3.1596
3.16068
3.1618
3.16297
3.16429
3.16571
3.16708
3.1684
3.16965
3.17084
3.17196
3.17301
3.17398
3.17488
3.17571
3.17647
3.17716
3.17777
3.1783
3.17876
3.17914
3.17944
3.17968
3.17986
3.18001
3.18015
3.18027
3.18037
3.18045
3.18048
3.18043
3.18027
3.17998
3.17952
3.17893
3.17817
3.17754
3.17667
3.1765
3.1759
3.17586
3.17583
3.17536
3.17501
3.17441
3.17383
3.17308
3.17222
3.17124
3.17016
3.169
3.16778
3.16651
3.16521
3.1639
3.1626
3.1613
3.16003
3.15879
3.15757
3.1564
3.15526
3.15417
3.15312
3.15211
3.15115
3.15023
3.14935
3.14851
3.14772
3.14696
3.14624
3.14556
3.1449
3.14275
3.14304
3.14335
3.14368
3.14402
3.14438
3.14477
3.14517
3.1456
3.14605
3.14652
3.14702
3.14755
3.14811
3.1487
3.14933
3.14999
3.15069
3.15143
3.15221
3.15304
3.15391
3.15483
3.1558
3.15683
3.1579
3.15903
3.16021
3.16145
3.16275
3.16422
3.1658
3.16735
3.16884
3.17028
3.17166
3.17297
3.1742
3.17536
3.17645
3.17747
3.17842
3.17929
3.1801
3.18082
3.18146
3.18203
3.18251
3.18293
3.18329
3.18359
3.18385
3.18408
3.18426
3.18441
3.18449
3.18448
3.18437
3.18413
3.18375
3.18327
3.18264
3.18212
3.18142
3.18122
3.18066
3.18042
3.18006
3.17924
3.17842
3.17741
3.17646
3.17539
3.17423
3.17298
3.17164
3.17025
3.16881
3.16733
3.16584
3.16435
3.16286
3.1614
3.15996
3.15856
3.15719
3.15587
3.1546
3.15337
3.15219
3.15106
3.14998
3.14895
3.14797
3.14703
3.14614
3.14529
3.14448
3.14371
3.14298
3.1408
3.14111
3.14144
3.1418
3.14217
3.14256
3.14297
3.14341
3.14387
3.14436
3.14487
3.14541
3.14598
3.14659
3.14723
3.14791
3.14863
3.14939
3.15019
3.15104
3.15194
3.15289
3.1539
3.15495
3.15607
3.15724
3.15847
3.15977
3.16113
3.16256
3.16418
3.16594
3.16766
3.16934
3.17096
3.17253
3.17402
3.17545
3.1768
3.17808
3.17929
3.18042
3.18148
3.18247
3.18338
3.18421
3.18495
3.18562
3.18622
3.18673
3.18718
3.18756
3.18789
3.18817
3.18838
3.18852
3.18857
3.18851
3.18833
3.18803
3.18762
3.18709
3.18665
3.18603
3.18577
3.1852
3.18479
3.18416
3.18305
3.18182
3.18044
3.17917
3.17779
3.17634
3.17482
3.17324
3.17162
3.16996
3.16827
3.16658
3.1649
3.16324
3.1616
3.15999
3.15843
3.15691
3.15543
3.15401
3.15265
3.15134
3.15008
3.14888
3.14773
3.14663
3.14559
3.14459
3.14364
3.14274
3.14188
3.14106
3.13884
3.13918
3.13954
3.13992
3.14032
3.14074
3.14118
3.14165
3.14215
3.14267
3.14322
3.1438
3.14442
3.14507
3.14577
3.1465
3.14727
3.14809
3.14896
3.14988
3.15086
3.15188
3.15297
3.15412
3.15533
3.1566
3.15794
3.15936
3.16085
3.16241
3.16419
3.16612
3.16803
3.16989
3.1717
3.17345
3.17513
3.17675
3.17829
3.17976
3.18115
3.18247
3.18372
3.18489
3.18598
3.18699
3.18791
3.18876
3.18952
3.1902
3.19079
3.19129
3.19173
3.19209
3.19238
3.19259
3.1927
3.1927
3.19258
3.19234
3.192
3.19154
3.19113
3.19056
3.19022
3.18961
3.18903
3.18817
3.18681
3.18522
3.18352
3.18193
3.18026
3.17854
3.17677
3.17495
3.17309
3.17121
3.16932
3.16744
3.16556
3.16371
3.1619
3.16012
3.15839
3.15671
3.15508
3.15351
3.152
3.15055
3.14915
3.14782
3.14655
3.14533
3.14418
3.14307
3.14201
3.14101
3.14005
3.13914
3.13689
3.13725
3.13763
3.13804
3.13846
3.13891
3.13939
3.13989
3.14042
3.14098
3.14157
3.1422
3.14286
3.14356
3.1443
3.14509
3.14593
3.14681
3.14774
3.14873
3.14978
3.15089
3.15206
3.1533
3.15461
3.15599
3.15744
3.15897
3.16059
3.1623
3.16423
3.16635
3.16843
3.17048
3.17248
3.17442
3.17629
3.17809
3.17982
3.18148
3.18305
3.18456
3.18599
3.18734
3.18861
3.1898
3.1909
3.19192
3.19285
3.19368
3.19441
3.19504
3.19558
3.19604
3.19642
3.1967
3.19688
3.19694
3.19688
3.1967
3.19642
3.19601
3.19561
3.19505
3.19462
3.19394
3.19321
3.19215
3.19055
3.18865
3.18664
3.18477
3.18282
3.18084
3.17881
3.17675
3.17466
3.17257
3.17047
3.16839
3.16632
3.16429
3.16229
3.16034
3.15844
3.15659
3.1548
3.15308
3.15142
3.14982
3.14829
3.14682
3.14542
3.14408
3.1428
3.14158
3.14041
3.1393
3.13824
3.13723
3.13494
3.13532
3.13573
3.13616
3.13661
3.13709
3.1376
3.13813
3.1387
3.1393
3.13993
3.1406
3.14131
3.14206
3.14285
3.14369
3.14459
3.14553
3.14653
3.1476
3.14872
3.14991
3.15117
3.1525
3.15391
3.15539
3.15696
3.15862
3.16037
3.16221
3.16431
3.16661
3.16888
3.17111
3.1733
3.17543
3.17749
3.17948
3.1814
3.18323
3.185
3.18668
3.18829
3.18982
3.19128
3.19264
3.19392
3.1951
3.19619
3.19718
3.19805
3.1988
3.19946
3.20002
3.20049
3.20085
3.20111
3.20124
3.20125
3.20112
3.20088
3.2005
3.2001
3.19953
3.199
3.19824
3.19737
3.19612
3.19431
3.19211
3.18982
3.18767
3.18546
3.18322
3.18094
3.17864
3.17633
3.17402
3.17172
3.16943
3.16717
3.16495
3.16277
3.16064
3.15857
3.15655
3.1546
3.15272
3.1509
3.14916
3.14748
3.14588
3.14434
3.14287
3.14146
3.14011
3.13883
3.1376
3.13643
3.13532
3.13298
3.13338
3.13382
3.13428
3.13476
3.13527
3.13581
3.13638
3.13698
3.13761
3.13829
3.139
3.13975
3.14055
3.1414
3.1423
3.14325
3.14426
3.14533
3.14647
3.14767
3.14894
3.15029
3.15172
3.15322
3.15482
3.15651
3.15829
3.16017
3.16216
3.16443
3.16691
3.16936
3.17178
3.17416
3.17647
3.17872
3.1809
3.183
3.18502
3.18697
3.18883
3.19062
3.19233
3.19396
3.1955
3.19695
3.1983
3.19955
3.20069
3.2017
3.20259
3.20336
3.20404
3.2046
3.20506
3.2054
3.2056
3.20567
3.2056
3.2054
3.20505
3.20463
3.20403
3.2034
3.20255
3.20153
3.20011
3.1981
3.19564
3.19307
3.19066
3.18819
3.18569
3.18317
3.18064
3.1781
3.17557
3.17305
3.17057
3.16811
3.1657
3.16333
3.16102
3.15877
3.15659
3.15447
3.15243
3.15045
3.14856
3.14673
3.14498
3.1433
3.14169
3.14015
3.13867
3.13726
3.13592
3.13463
3.13341
3.13103
3.13145
3.13191
3.1324
3.13291
3.13345
3.13402
3.13462
3.13526
3.13593
3.13665
3.1374
3.13821
3.13906
3.13996
3.14091
3.14193
3.143
3.14414
3.14535
3.14663
3.14799
3.14943
3.15095
3.15256
3.15427
3.15608
3.15799
3.16001
3.16214
3.16457
3.16724
3.16988
3.17249
3.17505
3.17755
3.17999
3.18235
3.18463
3.18683
3.18896
3.191
3.19297
3.19486
3.19666
3.19837
3.19999
3.20151
3.20292
3.20422
3.20538
3.2064
3.2073
3.20809
3.20877
3.20932
3.20975
3.21004
3.21018
3.21016
3.20999
3.20966
3.20922
3.20857
3.20785
3.20689
3.20575
3.20415
3.20195
3.19924
3.1964
3.19374
3.19102
3.18827
3.1855
3.18273
3.17996
3.17721
3.17448
3.17179
3.16913
3.16653
3.16397
3.16148
3.15905
3.15669
3.15441
3.1522
3.15006
3.14801
3.14603
3.14412
3.1423
3.14055
3.13887
3.13726
3.13572
3.13424
3.13284
3.1315
3.12907
3.12952
3.13001
3.13052
3.13106
3.13163
3.13223
3.13287
3.13354
3.13426
3.13501
3.13581
3.13666
3.13756
3.13852
3.13953
3.14061
3.14175
3.14296
3.14425
3.14561
3.14705
3.14858
3.1502
3.15192
3.15374
3.15567
3.15771
3.15987
3.16215
3.16474
3.1676
3.17042
3.17322
3.17597
3.17866
3.18128
3.18382
3.18628
3.18866
3.19096
3.19318
3.19533
3.19739
3.19937
3.20125
3.20304
3.20472
3.2063
3.20776
3.20907
3.21023
3.21127
3.21219
3.21299
3.21365
3.21418
3.21455
3.21476
3.2148
3.21467
3.21435
3.21388
3.21319
3.21237
3.21131
3.21004
3.20828
3.20589
3.20293
3.19984
3.19693
3.19396
3.19096
3.18795
3.18493
3.18193
3.17895
3.176
3.17309
3.17023
3.16743
3.16468
3.162
3.15939
3.15686
3.1544
3.15202
3.14972
3.1475
3.14537
3.14331
3.14133
3.13943
3.13761
3.13586
3.13419
3.13258
3.13105
3.1296
3.12712
3.12759
3.1281
3.12864
3.12921
3.12981
3.13045
3.13112
3.13183
3.13258
3.13338
3.13423
3.13512
3.13608
3.13709
3.13816
3.1393
3.14051
3.14179
3.14315
3.1446
3.14613
3.14775
3.14948
3.15131
3.15324
3.15529
3.15746
3.15976
3.16218
3.16494
3.16798
3.17099
3.17397
3.17691
3.17978
3.18258
3.1853
3.18794
3.1905
3.19298
3.19537
3.19769
3.19993
3.20208
3.20414
3.2061
3.20795
3.2097
3.21131
3.21278
3.2141
3.21529
3.21635
3.21727
3.21805
3.21868
3.21915
3.21944
3.21953
3.21944
3.21913
3.21864
3.2179
3.21699
3.21583
3.21441
3.2125
3.20993
3.20674
3.2034
3.20025
3.19702
3.19378
3.19051
3.18725
3.18401
3.1808
3.17762
3.17449
3.17142
3.16841
3.16546
3.16259
3.15979
3.15708
3.15444
3.15189
3.14942
3.14704
3.14474
3.14252
3.14039
3.13834
3.13637
3.13448
3.13267
3.13093
3.12927
3.12769
3.12516
3.12566
3.1262
3.12676
3.12736
3.12799
3.12866
3.12937
3.13012
3.13091
3.13175
3.13264
3.13359
3.1346
3.13566
3.1368
3.138
3.13927
3.14063
3.14207
3.1436
3.14522
3.14694
3.14877
3.15071
3.15276
3.15493
3.15724
3.15967
3.16224
3.16517
3.16838
3.17158
3.17474
3.17786
3.18091
3.18389
3.18679
3.18961
3.19234
3.19499
3.19756
3.20005
3.20247
3.20479
3.20703
3.20916
3.21119
3.2131
3.21489
3.21653
3.21801
3.21935
3.22056
3.22162
3.22253
3.22327
3.22384
3.22421
3.22437
3.22432
3.22402
3.22351
3.22272
3.22173
3.22046
3.21891
3.21685
3.21409
3.21067
3.20709
3.2037
3.20023
3.19673
3.19321
3.1897
3.18621
3.18275
3.17934
3.17598
3.17269
3.16946
3.16631
3.16324
3.16025
3.15734
3.15452
3.15179
3.14915
3.1466
3.14413
3.14175
3.13946
3.13726
3.13514
3.13311
3.13115
3.12928
3.12749
3.12579
3.1232
3.12373
3.12429
3.12489
3.12552
3.12618
3.12688
3.12762
3.12841
3.12925
3.13013
3.13107
3.13206
3.13312
3.13424
3.13544
3.1367
3.13805
3.13948
3.141
3.14261
3.14433
3.14615
3.14808
3.15013
3.1523
3.1546
3.15703
3.1596
3.16231
3.1654
3.1688
3.17218
3.17552
3.17881
3.18204
3.1852
3.18827
3.19126
3.19417
3.19699
3.19974
3.20241
3.205
3.20751
3.20992
3.21224
3.21444
3.21653
3.21849
3.2203
3.22196
3.22347
3.22483
3.22604
3.22709
3.22796
3.22863
3.22909
3.22931
3.22931
3.22903
3.2285
3.22767
3.22658
3.22522
3.22354
3.22132
3.21839
3.21475
3.21093
3.2073
3.20358
3.19982
3.19605
3.19228
3.18854
3.18483
3.18117
3.17757
3.17404
3.17059
3.16722
3.16394
3.16075
3.15765
3.15464
3.15172
3.1489
3.14617
3.14354
3.141
3.13855
3.13619
3.13392
3.13174
3.12964
3.12764
3.12571
3.12389
3.12124
3.12179
3.12239
3.12301
3.12367
3.12437
3.1251
3.12588
3.12671
3.12758
3.12851
3.12949
3.13054
3.13165
3.13283
3.13408
3.13542
3.13683
3.13834
3.13994
3.14164
3.14345
3.14537
3.1474
3.14957
3.15186
3.15428
3.15684
3.15955
3.1624
3.16565
3.16923
3.17278
3.1763
3.17977
3.18317
3.1865
3.18974
3.19291
3.19598
3.19898
3.2019
3.20475
3.20752
3.21021
3.21282
3.21532
3.21771
3.21998
3.22212
3.22412
3.22596
3.22764
3.22917
3.23054
3.23173
3.23273
3.23351
3.23407
3.23437
3.23441
3.23415
3.23361
3.23274
3.23157
3.23011
3.22831
3.22595
3.22284
3.21899
3.21493
3.21106
3.20709
3.20308
3.19904
3.19501
3.19101
3.18704
3.18312
3.17928
3.1755
3.17181
3.16821
3.16471
3.1613
3.158
3.15479
3.15168
3.14867
3.14576
3.14295
3.14024
3.13763
3.13511
3.13269
3.13036
3.12813
3.12599
3.12393
3.12199
3.11929
3.11986
3.12048
3.12114
3.12183
3.12256
3.12333
3.12414
3.12501
3.12592
3.1269
3.12793
3.12902
3.13019
3.13142
3.13274
3.13414
3.13563
3.13721
3.13889
3.14068
3.14258
3.1446
3.14675
3.14902
3.15143
3.15398
3.15667
3.15951
3.1625
3.16591
3.16966
3.17339
3.17708
3.18071
3.18429
3.18778
3.1912
3.19453
3.19778
3.20095
3.20405
3.20708
3.21004
3.21292
3.21572
3.21841
3.221
3.22346
3.22579
3.22798
3.23001
3.23188
3.23359
3.23512
3.23646
3.2376
3.2385
3.23916
3.23954
3.23963
3.2394
3.23885
3.23794
3.23671
3.23515
3.23323
3.23073
3.22745
3.22338
3.21909
3.21498
3.21077
3.2065
3.2022
3.1979
3.19363
3.18939
3.18521
3.1811
3.17707
3.17313
3.16929
3.16555
3.16191
3.15839
3.15497
3.15166
3.14845
3.14536
3.14237
3.13949
3.13671
3.13403
3.13146
3.12899
3.12661
3.12434
3.12216
3.12009
3.11733
3.11793
3.11858
3.11926
3.11999
3.12075
3.12155
3.12241
3.12331
3.12427
3.12529
3.12637
3.12751
3.12873
3.13003
3.1314
3.13287
3.13443
3.13609
3.13786
3.13974
3.14173
3.14385
3.1461
3.14849
3.15101
3.15368
3.1565
3.15947
3.1626
3.16617
3.17008
3.17398
3.17784
3.18164
3.18538
3.18904
3.19263
3.19613
3.19955
3.2029
3.20618
3.2094
3.21255
3.21563
3.21862
3.22152
3.22431
3.22698
3.2295
3.23189
3.23412
3.23618
3.23807
3.23978
3.24128
3.24256
3.24359
3.24435
3.24482
3.24498
3.24478
3.24423
3.24329
3.242
3.24035
3.23832
3.23568
3.23223
3.22796
3.22343
3.21909
3.21462
3.21009
3.20553
3.20096
3.19641
3.19189
3.18744
3.18305
3.17876
3.17455
3.17046
3.16647
3.16259
3.15883
3.15519
3.15166
3.14825
3.14496
3.14179
3.13873
3.13578
3.13294
3.13022
3.1276
3.12508
3.12268
3.12037
3.11818
3.11537
3.116
3.11668
3.11739
3.11815
3.11894
3.11978
3.12068
3.12162
3.12262
3.12368
3.12481
3.12601
3.12728
3.12863
3.13008
3.13161
3.13324
3.13498
3.13683
3.1388
3.1409
3.14312
3.14547
3.14797
3.15061
3.1534
3.15634
3.15944
3.1627
3.16642
3.1705
3.17455
3.17857
3.18254
3.18644
3.19027
3.19402
3.19769
3.20129
3.20483
3.2083
3.21171
3.21506
3.21834
3.22154
3.22465
3.22765
3.23053
3.23327
3.23586
3.2383
3.24056
3.24264
3.24452
3.24618
3.24761
3.24878
3.24966
3.25022
3.25044
3.25029
3.24975
3.24879
3.24744
3.24572
3.24357
3.2408
3.23719
3.23271
3.22796
3.22338
3.21866
3.21387
3.20903
3.20418
3.19935
3.19456
3.18982
3.18515
3.18057
3.1761
3.17173
3.16747
3.16334
3.15934
3.15546
3.1517
3.14808
3.14458
3.14121
3.13797
3.13484
3.13184
3.12896
3.1262
3.12355
3.12101
3.11858
3.11627
3.1134
3.11406
3.11477
3.11552
3.11631
3.11714
3.11802
3.11895
3.11993
3.12097
3.12208
3.12326
3.12451
3.12583
3.12725
3.12876
3.13036
3.13207
3.13389
3.13582
3.13788
3.14007
3.14239
3.14485
3.14746
3.15021
3.15312
3.15618
3.15941
3.1628
3.16665
3.17089
3.1751
3.17928
3.18341
3.18747
3.19146
3.19538
3.19923
3.20301
3.20673
3.21039
3.214
3.21756
3.22105
3.22447
3.2278
3.23103
3.23413
3.23709
3.2399
3.24254
3.24501
3.24728
3.24934
3.25118
3.25276
3.25407
3.25507
3.25573
3.25603
3.25593
3.25541
3.25444
3.25305
3.25125
3.24901
3.24612
3.24235
3.23766
3.23268
3.22786
3.22289
3.21783
3.21272
3.20759
3.20247
3.19738
3.19235
3.1874
3.18253
3.17777
3.17312
3.16859
3.16419
3.15992
3.15579
3.15179
3.14794
3.14423
3.14065
3.13722
3.13392
3.13075
3.12771
3.1248
3.12201
3.11935
3.1168
3.11437
3.11144
3.11213
3.11287
3.11365
3.11447
3.11534
3.11625
3.11722
3.11825
3.11933
3.12049
3.12171
3.12301
3.1244
3.12587
3.12744
3.12912
3.1309
3.1328
3.13482
3.13697
3.13925
3.14167
3.14424
3.14695
3.14982
3.15284
3.15602
3.15936
3.16287
3.16687
3.17125
3.17562
3.17995
3.18423
3.18846
3.19261
3.1967
3.20073
3.20469
3.2086
3.21247
3.21629
3.22006
3.22378
3.22742
3.23099
3.23444
3.23777
3.24096
3.24399
3.24686
3.24953
3.252
3.25425
3.25626
3.25801
3.25946
3.26059
3.26136
3.26175
3.26171
3.26122
3.26026
3.25883
3.25698
3.25464
3.25162
3.2477
3.24282
3.2376
3.23255
3.22732
3.22199
3.2166
3.21118
3.20577
3.20039
3.19506
3.1898
3.18464
3.17958
3.17463
3.16982
3.16513
3.16059
3.1562
3.15195
3.14786
3.14392
3.14013
3.13649
3.13301
3.12966
3.12646
3.1234
3.12047
3.11768
3.115
3.11247
3.10948
3.1102
3.11097
3.11178
3.11264
3.11354
3.11449
3.1155
3.11657
3.1177
3.1189
3.12017
3.12153
3.12297
3.1245
3.12614
3.12788
3.12974
3.13172
3.13382
3.13606
3.13844
3.14096
3.14363
3.14645
3.14942
3.15255
3.15584
3.1593
3.16293
3.16706
3.17159
3.1761
3.18058
3.18502
3.1894
3.19372
3.19798
3.20219
3.20634
3.21045
3.21453
3.21856
3.22256
3.22651
3.23039
3.2342
3.2379
3.24147
3.2449
3.24816
3.25124
3.25413
3.2568
3.25924
3.26143
3.26335
3.26496
3.26623
3.26713
3.26761
3.26765
3.2672
3.26625
3.26481
3.2629
3.26048
3.25735
3.25327
3.24819
3.24274
3.23745
3.23197
3.22636
3.22068
3.21497
3.20925
3.20356
3.19793
3.19237
3.1869
3.18154
3.17629
3.17118
3.1662
3.16138
3.15671
3.1522
3.14786
3.14368
3.13967
3.13582
3.13214
3.12861
3.12524
3.12202
3.11895
3.11602
3.11322
3.11056
3.10751
3.10826
3.10907
3.10991
3.1108
3.11174
3.11273
3.11378
3.11489
3.11606
3.11731
3.11864
3.12005
3.12155
3.12314
3.12485
3.12666
3.12859
3.13065
3.13284
3.13516
3.13763
3.14025
3.14301
3.14594
3.14901
3.15225
3.15565
3.15922
3.16296
3.16721
3.17188
3.17653
3.18116
3.18575
3.19029
3.19478
3.19922
3.20361
3.20796
3.21228
3.21657
3.22084
3.22507
3.22926
3.23339
3.23744
3.24139
3.24522
3.24889
3.25238
3.2557
3.2588
3.26168
3.26432
3.2667
3.2688
3.27058
3.272
3.27303
3.27364
3.27376
3.27338
3.27245
3.271
3.26905
3.26656
3.26331
3.25909
3.2538
3.24812
3.24258
3.23683
3.23094
3.22497
3.21895
3.21293
3.20693
3.20098
3.1951
3.18932
3.18365
3.1781
3.17268
3.16741
3.1623
3.15735
3.15257
3.14796
3.14354
3.13929
3.13523
3.13134
3.12762
3.12407
3.12068
3.11745
3.11438
3.11145
3.10866
3.10555
3.10633
3.10716
3.10804
3.10897
3.10994
3.11097
3.11206
3.11321
3.11444
3.11573
3.11711
3.11857
3.12013
3.12179
3.12356
3.12544
3.12745
3.12959
3.13186
3.13427
3.13683
3.13954
3.1424
3.14542
3.14859
3.15193
3.15543
3.1591
3.16295
3.16732
3.17212
3.17691
3.18169
3.18643
3.19113
3.19579
3.20041
3.205
3.20956
3.21409
3.2186
3.2231
3.22758
3.23202
3.2364
3.24071
3.24492
3.249
3.25293
3.25667
3.26022
3.26354
3.26664
3.2695
3.27208
3.27438
3.27634
3.27793
3.27911
3.27984
3.28008
3.27977
3.27888
3.27744
3.27546
3.27289
3.26954
3.26516
3.25968
3.25376
3.24797
3.24194
3.23576
3.22948
3.22314
3.2168
3.21048
3.20421
3.19802
3.19192
3.18593
3.18006
3.17434
3.16877
3.16336
3.15813
3.15307
3.14821
3.14353
3.13904
3.13474
3.13064
3.12671
3.12297
3.11941
3.11601
3.11277
3.10969
3.10677
3.10358
3.10439
3.10526
3.10617
3.10713
3.10815
3.10922
3.11035
3.11154
3.11281
3.11416
3.11559
3.11711
3.11872
3.12045
3.12228
3.12423
3.12631
3.12853
3.13088
3.13338
3.13602
3.13882
3.14177
3.14489
3.14816
3.15159
3.15518
3.15895
3.1629
3.16738
3.17231
3.17724
3.18216
3.18705
3.19192
3.19676
3.20157
3.20635
3.21112
3.21587
3.22062
3.22536
3.23009
3.23478
3.23943
3.24401
3.24849
3.25283
3.25702
3.26102
3.2648
3.26837
3.2717
3.27478
3.27759
3.28009
3.28226
3.28404
3.28539
3.28627
3.28662
3.2864
3.28557
3.28414
3.28214
3.27951
3.27605
3.27153
3.26584
3.25967
3.25363
3.24731
3.24083
3.23423
3.22757
3.2209
3.21424
3.20764
3.20112
3.19469
3.18838
3.1822
3.17616
3.17029
3.16459
3.15907
3.15374
3.14861
3.14367
3.13894
3.1344
3.13007
3.12593
3.12198
3.11821
3.11463
3.11122
3.10797
3.10489
3.10161
3.10246
3.10336
3.10431
3.1053
3.10635
3.10746
3.10864
3.10988
3.11119
3.11259
3.11407
3.11565
3.11732
3.11911
3.12101
3.12303
3.12518
3.12747
3.1299
3.13248
3.13521
3.13809
3.14114
3.14433
3.14769
3.15121
3.1549
3.15876
3.16279
3.16739
3.17245
3.17751
3.18257
3.18762
3.19266
3.19768
3.20268
3.20767
3.21265
3.21764
3.22263
3.22761
3.2326
3.23756
3.24248
3.24732
3.25207
3.2567
3.26116
3.26542
3.26946
3.27328
3.27686
3.28019
3.28324
3.28598
3.28836
3.29035
3.2919
3.29294
3.29343
3.29331
3.29255
3.29115
3.28913
3.28644
3.28288
3.27822
3.27232
3.2659
3.25959
3.25298
3.24618
3.23926
3.23226
3.22524
3.21824
3.21129
3.20442
3.19765
3.19101
3.18451
3.17817
3.17199
3.166
3.1602
3.15459
3.14919
3.14399
3.139
3.13422
3.12965
3.12528
3.12111
3.11713
3.11334
3.10973
3.10628
3.10302
3.09964
3.10052
3.10145
3.10244
3.10347
3.10456
3.10571
3.10693
3.10821
3.10958
3.11102
3.11256
3.11419
3.11592
3.11777
3.11974
3.12183
3.12405
3.12641
3.12892
3.13158
3.13439
3.13735
3.14048
3.14376
3.1472
3.1508
3.15457
3.15851
3.16264
3.16734
3.17252
3.17772
3.18293
3.18813
3.19334
3.19855
3.20375
3.20895
3.21416
3.21938
3.22461
3.22986
3.2351
3.24033
3.24553
3.25065
3.25568
3.26058
3.26532
3.26986
3.27418
3.27827
3.28213
3.28573
3.28905
3.29205
3.29468
3.2969
3.29866
3.29989
3.30053
3.30053
3.29985
3.29849
3.29646
3.29371
3.29006
3.28524
3.27915
3.27247
3.26589
3.25898
3.25186
3.24459
3.23723
3.22985
3.22249
3.21518
3.20795
3.20083
3.19385
3.18702
3.18036
3.17388
3.1676
3.16151
3.15563
3.14996
3.1445
3.13925
3.13422
3.1294
3.12478
3.12038
3.11616
3.11214
3.1083
3.10464
3.10116
3.09767
3.09858
3.09955
3.10057
3.10164
3.10277
3.10396
3.10522
3.10655
3.10796
3.10946
3.11105
3.11274
3.11453
3.11644
3.11847
3.12063
3.12292
3.12535
3.12794
3.13067
3.13355
3.1366
3.1398
3.14315
3.14667
3.15035
3.15419
3.15821
3.16242
3.16723
3.17254
3.17787
3.18322
3.18859
3.19397
3.19937
3.20477
3.21019
3.21563
3.22109
3.22658
3.23208
3.2376
3.2431
3.24857
3.25398
3.25929
3.26449
3.26952
3.27435
3.27897
3.28336
3.28752
3.29142
3.29504
3.29833
3.30124
3.30371
3.3057
3.30713
3.30795
3.30809
3.3075
3.30618
3.30415
3.30135
3.29761
3.29264
3.28634
3.27941
3.27255
3.26534
3.25788
3.25026
3.24254
3.23478
3.22704
3.21934
3.21174
3.20426
3.19693
3.18976
3.18277
3.17598
3.1694
3.16302
3.15686
3.15091
3.14518
3.13968
3.13438
3.1293
3.12444
3.11977
3.1153
3.11103
3.10694
3.10303
3.09931
3.09569
3.09664
3.09765
3.0987
3.09981
3.10098
3.10221
3.10352
3.1049
3.10636
3.1079
3.10955
3.11129
3.11314
3.11511
3.1172
3.11943
3.12179
3.12429
3.12694
3.12974
3.1327
3.13581
3.13908
3.14251
3.14609
3.14984
3.15375
3.15785
3.16215
3.16705
3.17248
3.17795
3.18346
3.18899
3.19455
3.20014
3.20576
3.2114
3.21707
3.22277
3.22851
3.23428
3.24007
3.24585
3.2516
3.2573
3.26291
3.2684
3.27374
3.27889
3.28383
3.28856
3.29305
3.29728
3.30122
3.30483
3.30804
3.3108
3.31304
3.3147
3.31571
3.31599
3.31551
3.31424
3.31222
3.30938
3.30554
3.30044
3.29393
3.28674
3.27961
3.27209
3.26429
3.2563
3.24821
3.24006
3.23192
3.22383
3.21584
3.20798
3.20028
3.19275
3.18543
3.17831
3.17141
3.16473
3.15828
3.15205
3.14604
3.14026
3.1347
3.12935
3.12421
3.11927
3.11453
3.10998
3.10562
3.10144
3.09747
3.09372
3.0947
3.09574
3.09683
3.09798
3.09919
3.10047
3.10182
3.10324
3.10475
3.10635
3.10804
3.10984
3.11175
3.11378
3.11593
3.11822
3.12064
3.12321
3.12593
3.1288
3.13182
3.135
3.13834