/*--------------------------------*- C++ -*----------------------------------*\
  =========                 |
  \\      /  F ield         | OpenFOAM: The Open Source CFD Toolbox
   \\    /   O peration     | Website:  https://openfoam.org
    \\  /    A nd           | Version:  9
     \\/     M anipulation  |
\*---------------------------------------------------------------------------*/
FoamFile
{
    format      ascii;
    class       volScalarField;
    location    "0.16";
    object      p_rgh;
}
// * * * * * * * * * * * * * * * * * * * * * * * * * * * * * * * * * * * * * //

dimensions      [1 -1 -2 0 0 0 0];

internalField   nonuniform List<scalar> 
20000
(
3.40763e-05
7.59157e-05
0.000109597
0.000143788
0.000179153
0.000214809
0.000249428
0.000281047
0.000307256
0.00032556
0.000333802
0.000330778
0.000316655
0.000293266
0.000264126
0.000234139
0.000209105
0.000195146
0.000197931
0.000222227
0.000271325
0.000346557
0.000446927
0.000569018
0.000707429
0.000855791
0.00100757
0.00115548
0.00128996
0.00139895
0.00147574
0.00148429
0.00139036
0.00114528
0.000691709
-2.6363e-05
-0.00103801
-0.00231878
-0.00377539
-0.00526371
-0.00664846
-0.00787475
-0.00899632
-0.0101426
-0.0114619
-0.0130839
-0.0151115
-0.0176221
-0.0206483
-0.0241151
-0.0277367
-0.0309604
-0.0330996
-0.033699
-0.0328373
-0.0310214
-0.0288001
-0.026494
-0.0242029
-0.0220224
-0.0204105
-0.0205642
-0.0255249
-0.04157
-0.0827001
-0.155502
-0.125734
-0.051737
-0.0216724
-0.0105777
-0.00606224
-0.00382089
-0.00241382
-0.00141987
-0.000677764
-0.000115209
0.000308135
0.000619676
0.00084048
0.00098774
0.00107582
0.00111679
0.00112082
0.0010964
0.00105068
0.000989582
0.000918033
0.000838773
0.000755932
0.000671632
0.000587519
0.000504909
0.000424806
0.000348006
0.000275213
0.000207148
0.000144636
8.87608e-05
4.10145e-05
5.17892e-06
5.78663e-05
0.000147685
0.00022963
0.000313851
0.000400785
0.00048994
0.000580603
0.000671371
0.000760266
0.000845013
0.00092339
0.000993642
0.00105488
0.00110742
0.00115287
0.00119415
0.00123514
0.00128033
0.00133435
0.00140154
0.00148571
0.00159007
0.00171739
0.00187019
0.00205064
0.00225921
0.00249189
0.00273685
0.00297338
0.00317573
0.00333365
0.00339427
0.00333194
0.00312289
0.00274224
0.00216999
0.0014064
0.00048284
-0.000538401
-0.00158204
-0.00259265
-0.00356499
-0.00454863
-0.00562627
-0.00688519
-0.00839946
-0.0102219
-0.0123748
-0.0148283
-0.0174615
-0.0200318
-0.0221837
-0.0235537
-0.0239456
-0.0234407
-0.0223336
-0.0209498
-0.019547
-0.0183498
-0.0177017
-0.018284
-0.0215233
-0.0298047
-0.045473
-0.0674099
-0.0982921
-0.0799652
-0.044028
-0.0256768
-0.0141333
-0.00770935
-0.00406358
-0.00172793
-0.000166871
0.000898996
0.00162987
0.00212362
0.00244356
0.0026331
0.00272346
0.00273798
0.00269465
0.00260755
0.00248791
0.00234438
0.00218403
0.00201331
0.00183428
0.001653
0.00147136
0.00129159
0.00111573
0.000945533
0.00078257
0.000628325
0.00048422
0.000351614
0.000231797
0.000125586
3.40616e-05
5.10908e-05
0.000148052
0.00024521
0.000346276
0.00045047
0.00055731
0.000666441
0.00077721
0.00088873
0.000999985
0.00110997
0.00121789
0.00132337
0.00142665
0.0015287
0.00163127
0.00173684
0.00184838
0.00196923
0.00210281
0.00225245
0.00242117
0.00261162
0.00282583
0.00306478
0.00332751
0.00360971
0.003902
0.0041892
0.00445142
0.00468691
0.00484991
0.00489716
0.00480954
0.0045696
0.00416569
0.00360092
0.00289967
0.0021063
0.00127259
0.000436009
-0.000400674
-0.00127351
-0.00224264
-0.00337203
-0.00471483
-0.00630433
-0.00814443
-0.0101947
-0.0123459
-0.0144055
-0.0161191
-0.0172375
-0.0176266
-0.0173457
-0.0166097
-0.0156782
-0.0147955
-0.014214
-0.0143044
-0.0156611
-0.0193281
-0.0266055
-0.038372
-0.0513462
-0.0724194
-0.060607
-0.036266
-0.0230467
-0.0129424
-0.00682687
-0.00312994
-0.000666586
0.000994886
0.00211447
0.00285878
0.00333607
0.0036188
0.00375738
0.00378812
0.00373803
0.00362774
0.00347325
0.00328666
0.00307747
0.00285276
0.00261896
0.00238503
0.00215039
0.00191783
0.00169023
0.00146959
0.0012574
0.00105484
0.000862769
0.000681747
0.000512053
0.000353695
0.000206037
6.5736e-05
5.30475e-05
0.000160183
0.00027089
0.000386594
0.000506798
0.000631066
0.000759088
0.000890461
0.00102474
0.00116147
0.00130029
0.00144099
0.00158367
0.0017288
0.00187731
0.00203062
0.00219065
0.00235969
0.00254036
0.00273546
0.00294777
0.00317991
0.00343396
0.00371118
0.00401139
0.00433249
0.00466986
0.00501589
0.00535978
0.00568755
0.00600907
0.00627712
0.00644149
0.0064853
0.00639272
0.00615361
0.00576942
0.0052582
0.0046536
0.00399594
0.0033158
0.00261774
0.00187563
0.00104327
7.06276e-05
-0.00108306
-0.00244072
-0.00399964
-0.00572181
-0.00751535
-0.00922328
-0.0106493
-0.0116045
-0.0119846
-0.0118366
-0.0113363
-0.0107062
-0.01017
-0.00995903
-0.0103816
-0.0119144
-0.0151334
-0.0207755
-0.0297472
-0.0387779
-0.0546234
-0.0464627
-0.0281932
-0.0178625
-0.00946875
-0.00437374
-0.00114914
0.00108052
0.00260973
0.00363783
0.00430453
0.00470694
0.0049138
0.00497495
0.00492752
0.00479948
0.00461259
0.00438305
0.00412382
0.00384517
0.00355522
0.0032596
0.00296311
0.00266939
0.00238204
0.00210306
0.00183381
0.00157532
0.00132829
0.00109308
0.00086977
0.000658189
0.000458027
0.000268831
8.77715e-05
5.82082e-05
0.000179844
0.000307564
0.000441499
0.0005816
0.000727775
0.000879974
0.0010381
0.00120204
0.00137168
0.00154697
0.00172798
0.00191495
0.00210834
0.00230893
0.00251784
0.00273655
0.00296688
0.00321092
0.00347094
0.00374927
0.00404805
0.00436899
0.00471302
0.00507986
0.00546764
0.00587261
0.00628886
0.00670812
0.00711937
0.00754289
0.00793066
0.00822408
0.00840843
0.00847152
0.00840489
0.00820981
0.00789996
0.00750004
0.00703918
0.00653939
0.00600419
0.0054151
0.00473874
0.0039387
0.00298593
0.00186644
0.000588268
-0.000812393
-0.00225709
-0.0036194
-0.00475434
-0.00553216
-0.00588393
-0.00584718
-0.00555758
-0.00519266
-0.00494499
-0.00501972
-0.0056618
-0.00723665
-0.0100804
-0.0145547
-0.0214726
-0.0271865
-0.0372917
-0.0320696
-0.0200163
-0.0124691
-0.00554575
-0.00130435
0.001466
0.00340074
0.00472309
0.00559492
0.00613211
0.00641865
0.00651687
0.00647383
0.00632573
0.00610055
0.00581934
0.00549864
0.00515168
0.00478878
0.00441818
0.00404558
0.00367497
0.00331077
0.00295611
0.00261264
0.00228153
0.00196356
0.00165916
0.00136848
0.00109144
0.000827794
0.00057719
0.000339236
0.000111597
6.55061e-05
0.000204645
0.000352552
0.000507946
0.000671108
0.00084227
0.00102164
0.00120939
0.0014057
0.00161075
0.00182475
0.00204797
0.00228077
0.00252363
0.00277722
0.00304245
0.0033205
0.00361282
0.00392111
0.00424724
0.00459317
0.00496072
0.00535141
0.00576617
0.006205
0.00666667
0.00714845
0.00764582
0.00815212
0.0086578
0.00919344
0.00971152
0.0101427
0.0104748
0.0106991
0.0108093
0.010807
0.0107026
0.0105133
0.0102584
0.00995166
0.00959463
0.00917432
0.00866793
0.00805087
0.00730438
0.00642204
0.00541603
0.00432065
0.00320225
0.00216057
0.00129763
0.000694078
0.000386991
0.00034751
0.000471646
0.000625149
0.000648867
0.000365037
-0.000416043
-0.00196691
-0.00449948
-0.00804444
-0.0132078
-0.0163282
-0.0220984
-0.0188689
-0.0116227
-0.00661289
-0.00119759
0.00223108
0.00455036
0.00616046
0.00723537
0.00790873
0.00827707
0.00841328
0.00837352
0.00820151
0.00793136
0.00758984
0.00719716
0.00676964
0.00632024
0.00585907
0.0053941
0.00493156
0.00447604
0.00403094
0.00359856
0.00318051
0.00277793
0.00239148
0.00202149
0.00166798
0.00133082
0.00100972
0.000704262
0.000413996
0.000136406
7.37389e-05
0.000231869
0.000401266
0.000579439
0.00076684
0.000963926
0.00117105
0.00138859
0.00161695
0.00185657
0.00210789
0.00237141
0.00264766
0.00293724
0.00324088
0.00355948
0.00389412
0.00424608
0.00461685
0.00500807
0.00542146
0.00585866
0.00632104
0.0068095
0.00732419
0.00786427
0.00842775
0.0090112
0.00960947
0.0102145
0.0108675
0.0115219
0.0120969
0.0125826
0.0129717
0.0132589
0.0134459
0.0135399
0.0135525
0.0134966
0.0133808
0.0132059
0.0129626
0.0126355
0.0122081
0.0116687
0.0110158
0.010263
0.00944072
0.00860326
0.0078283
0.00718845
0.00673313
0.00647845
0.00640659
0.00642775
0.00644374
0.00632489
0.0059261
0.00510076
0.0036752
0.00151978
-0.00116658
-0.00491504
-0.00657191
-0.00999313
-0.00793971
-0.00349316
-0.000266504
0.00369856
0.00625889
0.00805487
0.00928057
0.0100612
0.0104961
0.010661
0.0106175
0.010415
0.0100931
0.00968295
0.00920902
0.00869074
0.00814378
0.00758061
0.0070111
0.00644295
0.00588214
0.00533312
0.00479888
0.00428146
0.00378234
0.00330248
0.00284239
0.00240224
0.00198194
0.00158121
0.00119962
0.000836644
0.000491702
0.00016202
8.2602e-05
0.00026073
0.000452336
0.000654012
0.000866329
0.00108987
0.00132511
0.00157257
0.00183284
0.00210653
0.00239426
0.00269673
0.00301466
0.00334884
0.00370014
0.00406959
0.00445833
0.00486767
0.00529907
0.0057541
0.00623438
0.00674143
0.00727655
0.00784058
0.00843371
0.00905538
0.0097041
0.0103773
0.0110713
0.0117797
0.0125545
0.0133499
0.0140735
0.0147171
0.0152733
0.0157375
0.0161101
0.0163957
0.0166023
0.0167387
0.016811
0.0168195
0.0167581
0.0166157
0.0163811
0.0160469
0.0156139
0.0150949
0.0145155
0.0139189
0.0133658
0.01291
0.0125825
0.0123906
0.012312
0.0122858
0.0122277
0.0120359
0.0115987
0.0108111
0.00957683
0.0078199
0.00584642
0.00311521
0.00214923
-7.21385e-05
0.00127772
0.00414974
0.006211
0.00894321
0.0106713
0.0119118
0.0127132
0.0131636
0.0133282
0.0132624
0.0130162
0.0126311
0.012142
0.0115762
0.010956
0.0102998
0.00962222
0.00893527
0.00824834
0.00756867
0.0069017
0.00625143
0.00562069
0.00501143
0.00442495
0.00386199
0.0033229
0.00280764
0.00231597
0.00184742
0.00140138
0.000977177
0.000574092
0.000189085
9.19653e-05
0.000291024
0.000505485
0.00073131
0.000969157
0.00121973
0.00148362
0.00176153
0.00205416
0.00236226
0.00268661
0.00302806
0.00338752
0.00376597
0.00416447
0.0045842
0.00502646
0.00549267
0.00598435
0.00650313
0.00705061
0.00762828
0.0082374
0.00887881
0.00955278
0.010259
0.0109966
0.0117638
0.0125581
0.0133747
0.014277
0.0152189
0.0160963
0.0169019
0.0176282
0.0182706
0.0188282
0.0193035
0.0197017
0.0200287
0.0202891
0.0204833
0.0206069
0.0206522
0.0206113
0.0204793
0.0202582
0.0199588
0.0196021
0.0192216
0.0188651
0.0185726
0.018363
0.0182389
0.0181786
0.018137
0.0180462
0.0178279
0.0173989
0.0166892
0.0156526
0.0142381
0.0127875
0.0107757
0.0101912
0.00869769
0.00955675
0.0113612
0.0125647
0.0142966
0.0153056
0.0160225
0.0164016
0.0165102
0.016388
0.0160749
0.0156102
0.015027
0.0143566
0.0136219
0.0128432
0.0120376
0.0112189
0.0103982
0.00958448
0.00878425
0.00800249
0.00724285
0.00650791
0.00579943
0.00511851
0.00446574
0.00384125
0.00324486
0.00267611
0.00213435
0.00161879
0.00112855
0.000662752
0.000218177
0.0001016
0.000322331
0.00056024
0.000810792
0.00107473
0.00135293
0.00164611
0.00195504
0.00228056
0.00262355
0.00298496
0.00336581
0.00376721
0.0041903
0.00463636
0.00510674
0.00560292
0.00612646
0.00667903
0.00726231
0.00787797
0.00852753
0.00921226
0.00993306
0.0106904
0.0114843
0.0123144
0.01318
0.0140796
0.0150097
0.0160453
0.0171398
0.0181765
0.0191484
0.0200481
0.0208709
0.0216146
0.02228
0.0228699
0.0233882
0.0238382
0.0242201
0.0245309
0.0247654
0.0249177
0.0249849
0.0249689
0.0248788
0.0247312
0.0245514
0.0243761
0.0242347
0.0241391
0.0240879
0.0240622
0.0240274
0.0239315
0.0237156
0.0233192
0.0226967
0.0218339
0.020689
0.0196072
0.0181179
0.0177801
0.0167682
0.0172532
0.01825
0.0187601
0.0196675
0.0200654
0.0203087
0.0202889
0.0200615
0.0196493
0.0190812
0.0183881
0.0175975
0.0167343
0.0158195
0.0148719
0.0139068
0.0129373
0.0119736
0.0110238
0.010094
0.00918881
0.00831146
0.00746432
0.00664894
0.00586625
0.00511662
0.00440006
0.00371617
0.00306432
0.00244365
0.00185313
0.00129168
0.000758236
0.0002495
0.000111231
0.000354068
0.000615823
0.000891499
0.00118197
0.00148826
0.00181116
0.00215154
0.00251033
0.00288855
0.00328735
0.00370794
0.00415161
0.00461972
0.00511373
0.00563523
0.00618586
0.0067674
0.00738163
0.00803038
0.00871538
0.00943823
0.0102003
0.0110025
0.0118457
0.0127303
0.0136565
0.0146245
0.0156339
0.0166825
0.017857
0.0191099
0.0203109
0.0214535
0.0225302
0.0235355
0.0244665
0.0253222
0.0261038
0.0268135
0.0274535
0.0280241
0.0285233
0.0289473
0.0292917
0.0295546
0.0297377
0.029848
0.0298985
0.0299072
0.0299003
0.0299002
0.0299149
0.0299405
0.0299615
0.0299514
0.029871
0.0296769
0.0293262
0.0287893
0.0280741
0.0271434
0.0263251
0.0252096
0.0250027
0.0242736
0.0244657
0.0248663
0.0248246
0.0250454
0.0249125
0.0247244
0.0243307
0.0237792
0.0230805
0.0222561
0.0213299
0.0203246
0.0192611
0.0181586
0.0170339
0.0159013
0.0147728
0.0136578
0.0125637
0.0114962
0.0104595
0.00945661
0.00848967
0.00756006
0.00666852
0.00581528
0.00500014
0.00422254
0.0034816
0.00277625
0.00210523
0.0014672
0.000860925
0.000283177
0.00012065
0.000385807
0.000671722
0.000972881
0.00129028
0.00162501
0.00197792
0.00234997
0.00274227
0.00315601
0.00359249
0.00405312
0.00453937
0.00505284
0.00559522
0.00616828
0.00677393
0.00741411
0.0080908
0.00880592
0.00956134
0.0103588
0.0111997
0.0120853
0.0130166
0.0139946
0.0150203
0.0160944
0.0172178
0.0183893
0.0197078
0.0211244
0.0224946
0.0238119
0.0250685
0.0262584
0.0273774
0.0284233
0.0293959
0.0302962
0.0311258
0.031885
0.0325725
0.0331853
0.0337201
0.034175
0.0345514
0.0348543
0.0350931
0.0352797
0.0354306
0.0355636
0.0356847
0.0357901
0.0358676
0.035897
0.0358481
0.0356899
0.0353927
0.0349385
0.034349
0.033589
0.0329543
0.0320902
0.031916
0.0313201
0.031277
0.0312453
0.0307743
0.0304246
0.0298251
0.0292414
0.0284969
0.0276341
0.0266551
0.0255759
0.0244151
0.0231915
0.0219235
0.020628
0.0193206
0.0180144
0.0167204
0.0154472
0.0142018
0.0129893
0.0118139
0.0106782
0.00958446
0.00853374
0.00752666
0.0065633
0.00564325
0.00476574
0.00392968
0.00313373
0.00237639
0.00165608
0.000971383
0.000319373
0.000129722
0.000417283
0.000727676
0.00105465
0.00139927
0.00176269
0.00214584
0.00254984
0.00297595
0.00342553
0.00390005
0.00440111
0.00493039
0.0054897
0.00608097
0.00670622
0.00736756
0.00806713
0.00880707
0.00958948
0.0104164
0.0112896
0.0122108
0.0131816
0.0142034
0.0152775
0.0164056
0.0175896
0.018831
0.0201297
0.0215969
0.023182
0.0247257
0.0262213
0.0276604
0.0290363
0.0303439
0.0315798
0.0327426
0.0338326
0.0348509
0.035798
0.0366729
0.0374734
0.0381963
0.0388397
0.039404
0.0398925
0.0403117
0.0406679
0.0409689
0.0412289
0.0414538
0.0416419
0.0417843
0.0418644
0.0418593
0.0417473
0.0415086
0.041132
0.0406467
0.0400179
0.0395023
0.0387957
0.0385931
0.0380389
0.0377973
0.037437
0.036622
0.0357955
0.0347849
0.0338393
0.0327665
0.0316057
0.0303538
0.0290229
0.0276281
0.0261853
0.0247105
0.0232193
0.0217255
0.0202413
0.0187766
0.0173395
0.0159367
0.014573
0.0132523
0.0119774
0.0107503
0.00957197
0.00844294
0.00736308
0.0063318
0.00534811
0.00441068
0.00351792
0.00266808
0.00185938
0.00109023
0.000358262
0.000138474
0.000448581
0.000783751
0.00113678
0.00150875
0.001901
0.00231462
0.00275089
0.00321119
0.00369703
0.00421005
0.00475204
0.00532493
0.00593073
0.00657161
0.00724981
0.00796766
0.00872747
0.00953158
0.0103823
0.0112817
0.012232
0.0132351
0.0142929
0.0154073
0.0165802
0.0178141
0.0191114
0.0204747
0.0219046
0.0235249
0.0252829
0.0270038
0.0286807
0.0303044
0.0318677
0.0333643
0.0347899
0.0361423
0.0374212
0.0386273
0.0397612
0.0408225
0.0418089
0.0427174
0.0435458
0.0442936
0.0449619
0.0455551
0.0460748
0.0465208
0.0469039
0.0472322
0.0475069
0.0477209
0.0478608
0.047909
0.0478504
0.047672
0.047366
0.0469645
0.0464322
0.0459865
0.0453709
0.0451087
0.0445436
0.0441264
0.0434978
0.0423916
0.0411586
0.0397824
0.0385053
0.0371254
0.0356796
0.0341623
0.032584
0.0309571
0.0292955
0.0276135
0.0259251
0.0242426
0.0225771
0.0209377
0.0193323
0.0177668
0.0162464
0.0147749
0.0133549
0.0119883
0.0106763
0.00941917
0.00821658
0.00706778
0.00597155
0.00492633
0.0039303
0.00298148
0.00207791
0.00121792
0.000399978
0.000146999
0.000479863
0.000839918
0.00121906
0.00161852
0.00203982
0.00248422
0.00295309
0.00344795
0.00397048
0.00452251
0.00510603
0.00572319
0.00637624
0.00706756
0.0077996
0.00857487
0.00939587
0.0102651
0.0111851
0.0121583
0.013187
0.0142736
0.0154203
0.0166296
0.0179041
0.0192467
0.0206608
0.0221497
0.0237146
0.0254918
0.0274265
0.029328
0.0311887
0.0329987
0.0347502
0.036436
0.038051
0.0395922
0.0410589
0.0424517
0.0437713
0.0450174
0.0461879
0.0472796
0.0482898
0.0492169
0.0500605
0.0508227
0.0515014
0.0520892
0.0525941
0.0530274
0.0533931
0.0536851
0.0538923
0.0540017
0.0540019
0.0538842
0.0536418
0.0533069
0.0528439
0.0524337
0.0518626
0.0515231
0.0509136
0.0503355
0.0494765
0.0481137
0.0465255
0.0448186
0.0432351
0.0415656
0.039846
0.0380706
0.0362491
0.0343927
0.0325135
0.0306245
0.028738
0.0268652
0.025016
0.023199
0.0214214
0.0196893
0.0180077
0.0163803
0.01481
0.0132986
0.0118473
0.0104561
0.00912473
0.00785217
0.00663699
0.00547745
0.00437152
0.00331707
0.00231203
0.00135465
0.000444582
0.000155268
0.000511064
0.000895981
0.00130128
0.00172841
0.00217905
0.00265453
0.00315633
0.00368614
0.0042458
0.00483738
0.00546308
0.00612525
0.00682638
0.00756901
0.00835579
0.0091894
0.0100726
0.011008
0.0119983
0.0130464
0.014155
0.0153267
0.0165643
0.0178709
0.0192496
0.0207041
0.0222383
0.023856
0.0255591
0.0274967
0.0296114
0.031696
0.0337424
0.03574
0.0376801
0.0395548
0.0413585
0.0430875
0.0447407
0.0463188
0.0478225
0.0492516
0.0506041
0.0518766
0.0530657
0.0541687
0.0551838
0.0561113
0.056946
0.0576743
0.0583016
0.0588434
0.0593054
0.0596816
0.0599637
0.0601414
0.0602053
0.0601486
0.0599649
0.0596839
0.0592702
0.0588717
0.0583114
0.0578829
0.0572056
0.0564765
0.0554131
0.0538184
0.0519134
0.0499016
0.0480306
0.0460851
0.0441006
0.0420729
0.0400119
0.0379279
0.0358322
0.0337363
0.031651
0.0295864
0.0275515
0.0255543
0.0236018
0.0216998
0.0198532
0.018066
0.0163409
0.0146799
0.013084
0.0115533
0.0100873
0.00868476
0.00734426
0.00606386
0.00484142
0.0036747
0.00256158
0.00150034
0.000492059
0.000163152
0.000541994
0.000951856
0.00138351
0.00183856
0.00231877
0.00282556
0.00336059
0.00392571
0.004523
0.0051547
0.00582325
0.00653119
0.00728118
0.00807596
0.00891836
0.00981123
0.0107575
0.0117601
0.012822
0.0139463
0.0151362
0.0163948
0.0177254
0.0191317
0.0206174
0.0221866
0.0238438
0.0255933
0.0274374
0.029538
0.0318351
0.0341048
0.0363382
0.0385239
0.0406526
0.0427156
0.0447068
0.0466221
0.0484602
0.0502218
0.0519078
0.0535181
0.0550505
0.0565013
0.0578667
0.059143
0.0603269
0.0614171
0.0624059
0.0632752
0.0640278
0.064683
0.0652474
0.0657152
0.0660802
0.0663335
0.066466
0.0664718
0.0663436
0.0661075
0.0657285
0.0653253
0.0647516
0.064227
0.0634659
0.0625925
0.0613427
0.0595336
0.0573403
0.0550424
0.0528982
0.0506869
0.0484442
0.0461682
0.0438701
0.0415596
0.0392472
0.0369434
0.0346579
0.0323998
0.0301772
0.0279976
0.0258676
0.0237929
0.0217785
0.019828
0.0179444
0.0161295
0.0143842
0.0127087
0.0111024
0.00956397
0.00809194
0.00668431
0.00533892
0.00405352
0.00282599
0.00165466
0.000542322
0.000170632
0.000572756
0.00100778
0.00146605
0.00194921
0.00245915
0.00299747
0.00356603
0.00416691
0.00480234
0.00547479
0.00618685
0.00694126
0.00774085
0.00858855
0.00948738
0.0104404
0.0114507
0.0125216
0.0136562
0.0148582
0.016131
0.0174784
0.0189042
0.0204125
0.0220076
0.0236942
0.025477
0.0273608
0.0293479
0.0316135
0.0340947
0.0365506
0.0389716
0.0413456
0.0436622
0.0459125
0.0480897
0.0501895
0.0522107
0.0541538
0.0560201
0.0578096
0.0595199
0.0611471
0.0626867
0.0641343
0.0654854
0.0667371
0.0678797
0.0688923
0.069775
0.07055
0.071224
0.0717918
0.0722481
0.0725843
0.0727907
0.0728612
0.0727873
0.0725902
0.0722355
0.0718166
0.0712131
0.0705895
0.0697343
0.0687217
0.067297
0.0652858
0.0628248
0.0602547
0.0578479
0.0553782
0.0528817
0.0503599
0.0478252
0.0452874
0.0427567
0.0402426
0.0377542
0.0352998
0.0328869
0.0305224
0.0282126
0.0259628
0.0237778
0.0216611
0.0196155
0.0176427
0.0157437
0.0139186
0.0121666
0.0104867
0.00887725
0.00733643
0.0058621
0.00445204
0.00310421
0.00181705
0.000595214
0.00017777
0.00060359
0.00106401
0.00154904
0.00206043
0.00260031
0.00317048
0.003773
0.00441012
0.00508426
0.00579805
0.00655427
0.00735581
0.0082057
0.00910706
0.0100631
0.0110771
0.0121525
0.0132927
0.0145013
0.0157824
0.0171399
0.018578
0.0201012
0.0217139
0.0234208
0.0252271
0.0271376
0.0291575
0.0312891
0.0337209
0.0363869
0.0390293
0.0416378
0.0441993
0.0467029
0.049139
0.0515004
0.0537828
0.0559849
0.0581075
0.0601523
0.0621192
0.0640059
0.065808
0.0675205
0.0691384
0.0706561
0.0720693
0.0733669
0.0745267
0.0755463
0.0764488
0.0772409
0.0779178
0.0784742
0.0789008
0.0791868
0.0793252
0.0793058
0.0791444
0.0788074
0.0783665
0.0777229
0.0770007
0.0760448
0.0748974
0.0733049
0.0710998
0.0683865
0.0655537
0.0628925
0.060169
0.0574213
0.0546544
0.0518819
0.0491141
0.0463612
0.0436328
0.0409373
0.0382826
0.0356757
0.033123
0.0306304
0.0282028
0.0258444
0.0235585
0.0213477
0.0192135
0.0171566
0.0151772
0.0132748
0.0114482
0.00969614
0.00801678
0.00640815
0.00486813
0.00339478
0.00198669
0.000650493
0.000184466
0.000634347
0.00112035
0.0016323
0.0021722
0.00274239
0.00334485
0.00398181
0.00465569
0.00536908
0.00612478
0.00692574
0.00777505
0.00867591
0.00963166
0.0106457
0.0117216
0.012863
0.0140737
0.0153577
0.0167194
0.0181634
0.0196943
0.0213169
0.0230361
0.024857
0.0267848
0.0288247
0.0309818
0.0332588
0.0358571
0.0387079
0.0415366
0.0443316
0.0470794
0.0497683
0.0523882
0.0549318
0.0573946
0.0597754
0.0620756
0.064297
0.06644
0.0685021
0.0704785
0.0723638
0.0741521
0.075837
0.0774131
0.0788684
0.0801807
0.0813455
0.0823844
0.0833042
0.0840997
0.0847652
0.0852899
0.0856615
0.0858721
0.0859089
0.0857825
0.0854596
0.0849941
0.0843047
0.0834862
0.0824247
0.0811483
0.0793914
0.0769986
0.0740446
0.0709545
0.0680454
0.0650716
0.0620736
0.0590603
0.0560467
0.0530444
0.050064
0.0471153
0.0442068
0.0413462
0.0385403
0.0357949
0.0331154
0.0305063
0.027971
0.0255126
0.023133
0.0208336
0.018615
0.0164773
0.0144201
0.0124425
0.0105433
0.00872083
0.0069734
0.00529896
0.00369573
0.00216247
0.000707819
0.000190501
0.000664664
0.00117653
0.00171579
0.00228466
0.00288566
0.0035209
0.00419278
0.00490388
0.00565698
0.00645507
0.00730131
0.00819896
0.00915145
0.0101623
0.0112352
0.0123739
0.0135823
0.0148647
0.0162255
0.0176696
0.0192018
0.0208274
0.0225515
0.0243792
0.0263158
0.0283665
0.0305369
0.0328319
0.0352543
0.0380189
0.0410538
0.0440674
0.0470474
0.0499795
0.0528515
0.0556528
0.0583761
0.0610169
0.0635744
0.0660502
0.0684469
0.0707652
0.0730025
0.0751538
0.0772128
0.0791731
0.0810274
0.0827692
0.0843863
0.0858576
0.0871768
0.0883621
0.0894196
0.0903438
0.0911274
0.091758
0.0922221
0.0925097
0.0926059
0.0925157
0.0922062
0.0917162
0.0909787
0.0900681
0.0889069
0.0874875
0.0855775
0.0830019
0.0798181
0.0764705
0.073321
0.0700988
0.06685
0.0635875
0.0603284
0.0570854
0.0538706
0.0506942
0.0475652
0.0444914
0.0414796
0.0385352
0.0356632
0.0328673
0.0301505
0.0275151
0.0249626
0.0224941
0.0201099
0.0178101
0.0155944
0.013462
0.011412
0.00944295
0.00755322
0.00574094
0.00400454
0.00234297
0.000766737
0.000195812
0.000694588
0.00123279
0.00179992
0.00239831
0.0030306
0.00369908
0.00440629
0.005155
0.00594822
0.00678913
0.00768109
0.00862761
0.00963231
0.0106989
0.0118314
0.0130338
0.0143104
0.0156658
0.017105
0.018633
0.0202553
0.0219775
0.0238048
0.0257426
0.0277962
0.0299709
0.0322721
0.0347051
0.0372724
0.0402023
0.0434198
0.0466164
0.0497791
0.0528929
0.0559451
0.058925
0.0618251
0.0646415
0.0673736
0.0700237
0.0725949
0.0750885
0.0775019
0.0798298
0.0820652
0.0842006
0.0862281
0.08814
0.0899243
0.0915621
0.0930453
0.0943873
0.0955929
0.0966555
0.0975662
0.098311
0.0988746
0.0992451
0.0994048
0.0993537
0.0990587
0.0985463
0.0977611
0.0967617
0.0954982
0.0939454
0.091883
0.0891261
0.0857111
0.0821304
0.0787348
0.0752633
0.0717621
0.0682468
0.0647366
0.0612462
0.0577889
0.0543761
0.0510176
0.0477216
0.0444951
0.0413434
0.0382711
0.0352814
0.0323767
0.0295585
0.026828
0.0241856
0.0216317
0.0191662
0.0167887
0.0144986
0.012295
0.0101767
0.0081422
0.00618987
0.00431822
0.00252647
0.000826708
0.000200489
0.000724477
0.00128964
0.0018852
0.0025136
0.00317765
0.00387978
0.00462274
0.00540949
0.00624323
0.00712736
0.00806547
0.0090613
0.0101187
0.0112417
0.0124345
0.0137015
0.0150474
0.0164771
0.0179961
0.0196098
0.0213239
0.0231442
0.0250762
0.0271254
0.0292968
0.0315958
0.0340278
0.0365981
0.0393092
0.0424026
0.0458003
0.0491773
0.0525198
0.0558121
0.0590412
0.0621965
0.0652708
0.0682604
0.0711655
0.0739891
0.0767349
0.0794047
0.0819963
0.0845039
0.0869197
0.0892351
0.0914413
0.0935292
0.0954874
0.0972997
0.0989564
0.100465
0.101829
0.10304
0.104086
0.104953
0.105624
0.106083
0.106312
0.106303
0.106026
0.105495
0.104664
0.10358
0.102215
0.100535
0.0983229
0.0953881
0.0917505
0.087932
0.0842964
0.0805767
0.076821
0.0730489
0.0692818
0.0655367
0.0618283
0.0581696
0.0545713
0.0510427
0.0475909
0.0442217
0.0409392
0.0377464
0.0346452
0.0316368
0.0287217
0.0259
0.0231717
0.0205365
0.017994
0.0155436
0.0131843
0.0109151
0.00873457
0.00664119
0.00463359
0.00271119
0.000887175
0.000204541
0.000754431
0.00134715
0.00197166
0.00263056
0.00332686
0.00406316
0.00484238
0.00566765
0.00654237
0.00747017
0.00845484
0.00950039
0.0106109
0.0117909
0.0130447
0.0143772
0.0157935
0.0172989
0.0188991
0.0206
0.0224074
0.0243272
0.026365
0.0285262
0.0308157
0.0332389
0.035801
0.0385073
0.0413604
0.0446147
0.0481895
0.0517434
0.055262
0.0587291
0.0621317
0.0654592
0.0687049
0.071866
0.0749433
0.0779405
0.0808621
0.0837104
0.0864834
0.0891751
0.0917767
0.0942785
0.0966703
0.0989417
0.101082
0.103077
0.104916
0.106602
0.108133
0.1095
0.110691
0.111688
0.112473
0.113028
0.11333
0.11337
0.113114
0.112569
0.111696
0.110535
0.109072
0.107268
0.10491
0.101801
0.097946
0.0938903
0.0900171
0.0860492
0.0820371
0.0780042
0.0739746
0.0699674
0.0659992
0.0620846
0.0582358
0.0544628
0.0507738
0.0471748
0.0436703
0.0402632
0.0369552
0.0337471
0.0306392
0.0276312
0.0247228
0.0219134
0.0192025
0.0165891
0.0140725
0.0116514
0.00932457
0.00709025
0.00494719
0.00289493
0.00094729
0.000207856
0.000784257
0.00140508
0.00205909
0.00274906
0.0034782
0.00424926
0.00506529
0.00592962
0.00684582
0.00781772
0.0088494
0.00994511
0.0111093
0.0123468
0.0136624
0.0150613
0.0165491
0.0181314
0.0198142
0.0216035
0.0235053
0.0255256
0.0276699
0.0299433
0.0323507
0.0348973
0.0375881
0.0404285
0.0434209
0.0468328
0.0505807
0.0543074
0.0579979
0.0616359
0.0652082
0.0687049
0.07212
0.0754516
0.0787013
0.0818735
0.0849734
0.0880037
0.0909626
0.0938439
0.0966379
0.0993336
0.101919
0.104383
0.106713
0.1089
0.11093
0.112801
0.114508
0.11604
0.117383
0.118517
0.119423
0.120079
0.120461
0.120555
0.120326
0.119774
0.118865
0.117633
0.116077
0.114154
0.111654
0.108374
0.104307
0.100016
0.095907
0.0916902
0.0874195
0.0831222
0.0788248
0.0745484
0.0703121
0.0661318
0.0620212
0.0579918
0.0540527
0.0502107
0.0464708
0.0428364
0.0393092
0.0358902
0.0325795
0.0293767
0.0262811
0.0232919
0.0204084
0.0176295
0.0149542
0.012381
0.00990839
0.0075345
0.0052578
0.00307788
0.00100806
0.000210357
0.000813887
0.0014634
0.00214754
0.00286924
0.00363182
0.00443819
0.00529156
0.00619542
0.00715355
0.00817001
0.00924914
0.0103955
0.011614
0.0129096
0.0142878
0.0157541
0.0173144
0.0189747
0.0207411
0.0226199
0.024617
0.0267383
0.0289891
0.0313744
0.0338989
0.0365675
0.0393852
0.042357
0.0454856
0.049051
0.0529672
0.0568619
0.0607197
0.0645243
0.0682629
0.0719263
0.0755094
0.0790113
0.0824347
0.0857848
0.0890669
0.0922841
0.0954349
0.0985125
0.101507
0.104405
0.107194
0.109859
0.112389
0.114775
0.117005
0.119068
0.120958
0.122661
0.124162
0.125441
0.126474
0.127238
0.127706
0.12786
0.127665
0.127114
0.126176
0.124881
0.123238
0.121202
0.118564
0.115117
0.110842
0.106318
0.101974
0.0975078
0.0929765
0.0884112
0.0838409
0.0792891
0.0747766
0.0703212
0.0659382
0.0616404
0.0574382
0.0533394
0.0493501
0.0454742
0.0417143
0.0380716
0.0345464
0.0311384
0.0278469
0.0246712
0.02161
0.0186621
0.0158259
0.0130996
0.0104812
0.00796841
0.00555947
0.00325409
0.00106571
0.00021204
0.000843455
0.00152235
0.00223729
0.00299132
0.00378792
0.00463011
0.00552127
0.00646508
0.00746556
0.00852702
0.00965411
0.0108517
0.0121251
0.0134797
0.0149213
0.0164559
0.0180896
0.0198287
0.0216796
0.0236484
0.0257411
0.0279634
0.0303204
0.0328168
0.035457
0.0382457
0.0411877
0.0442878
0.0475486
0.0512626
0.0553417
0.0593991
0.0634194
0.0673865
0.0712884
0.0751166
0.0788673
0.0825407
0.0861404
0.0896722
0.0931418
0.0965522
0.0999019
0.103184
0.106386
0.109496
0.112498
0.115375
0.118115
0.120709
0.123144
0.125406
0.127484
0.129364
0.13103
0.132458
0.133625
0.134504
0.135065
0.135287
0.135133
0.134592
0.133635
0.132286
0.130563
0.128421
0.125651
0.122041
0.117559
0.112805
0.108226
0.103509
0.0987151
0.0938783
0.0890304
0.0841971
0.0794012
0.0746621
0.0699967
0.0654193
0.0609416
0.0565728
0.05232
0.0481885
0.0441815
0.0403012
0.0365486
0.0329239
0.0294268
0.0260564
0.0228113
0.01969
0.0166901
0.0138095
0.0110454
0.00839505
0.00585613
0.0034271
0.00111991
0.000212861
0.000872976
0.00158196
0.00232836
0.00311532
0.00394646
0.00482496
0.00575438
0.00673862
0.00778193
0.00888892
0.0100646
0.0113141
0.0126431
0.0140574
0.0155632
0.0171668
0.0188747
0.0206933
0.022629
0.024688
0.0268762
0.0291989
0.0316611
0.0342672
0.0370212
0.0399276
0.0429906
0.0462151
0.0496035
0.0534606
0.0576967
0.0619113
0.0660893
0.0702153
0.0742781
0.0782703
0.0821893
0.0860364
0.0898161
0.0935348
0.0971982
0.100809
0.104366
0.107861
0.111281
0.114612
0.117836
0.120936
0.123895
0.126704
0.129351
0.131817
0.134088
0.13615
0.137985
0.139569
0.140876
0.141876
0.142539
0.142838
0.142736
0.142215
0.141248
0.139856
0.138062
0.13582
0.132923
0.129154
0.12447
0.119486
0.114671
0.109702
0.104642
0.0995299
0.0943994
0.0892788
0.0841925
0.0791619
0.0742053
0.0693384
0.0645742
0.0599233
0.0553942
0.0509933
0.0467253
0.0425937
0.0386006
0.0347472
0.0310337
0.0274596
0.0240235
0.0207232
0.017556
0.0145189
0.0116084
0.00882111
0.00615393
0.00360385
0.00117783
0.000212661
0.000902178
0.00164191
0.00242037
0.00324083
0.00410708
0.00502247
0.00599073
0.007016
0.00810276
0.00925592
0.0104808
0.0117829
0.0131682
0.014643
0.0162137
0.017887
0.0196695
0.0215678
0.0235884
0.0257374
0.0280203
0.0304425
0.0330084