/*--------------------------------*- C++ -*----------------------------------*\
  =========                 |
  \\      /  F ield         | OpenFOAM: The Open Source CFD Toolbox
   \\    /   O peration     | Website:  https://openfoam.org
    \\  /    A nd           | Version:  9
     \\/     M anipulation  |
\*---------------------------------------------------------------------------*/
FoamFile
{
    format      ascii;
    class       surfaceScalarField;
    location    "0.16";
    object      phi;
}
// * * * * * * * * * * * * * * * * * * * * * * * * * * * * * * * * * * * * * //

dimensions      [0 3 -1 0 0 0 0];

internalField   nonuniform List<scalar> 
39700
(
7.01355e-07
3.1774e-06
7.01361e-07
3.33429e-06
7.0136e-07
3.49882e-06
7.01359e-07
3.6717e-06
7.0136e-07
3.8535e-06
7.01363e-07
4.04478e-06
7.01368e-07
4.24611e-06
7.01376e-07
4.45807e-06
7.01385e-07
4.68123e-06
7.01396e-07
4.91613e-06
7.01407e-07
5.16325e-06
7.01416e-07
5.42303e-06
7.01422e-07
5.69587e-06
7.01422e-07
5.9821e-06
7.01416e-07
6.28205e-06
7.01405e-07
6.59603e-06
7.01388e-07
6.92433e-06
7.01366e-07
7.26726e-06
7.01343e-07
7.62512e-06
7.01319e-07
7.99818e-06
7.01297e-07
8.3867e-06
7.01281e-07
8.79094e-06
7.01272e-07
9.21128e-06
7.01271e-07
9.64841e-06
7.01277e-07
1.01036e-05
7.01288e-07
1.05791e-05
7.013e-07
1.10778e-05
7.01311e-07
1.16026e-05
7.01323e-07
1.21551e-05
7.0134e-07
1.27348e-05
7.0137e-07
1.55593e-05
7.01419e-07
1.55207e-05
7.01497e-07
1.5467e-05
7.01613e-07
1.5397e-05
7.01764e-07
1.53111e-05
7.01937e-07
1.52115e-05
7.02102e-07
1.51022e-05
7.02216e-07
1.49895e-05
7.02247e-07
1.48815e-05
7.02196e-07
1.47862e-05
7.02104e-07
1.47089e-05
7.02035e-07
1.46494e-05
7.02036e-07
1.46023e-05
7.02124e-07
1.45593e-05
7.02292e-07
1.45126e-05
7.02528e-07
1.44567e-05
7.02817e-07
1.43885e-05
7.03134e-07
1.43062e-05
7.03417e-07
1.42097e-05
7.03539e-07
1.4102e-05
7.03337e-07
1.39922e-05
7.02722e-07
1.38967e-05
7.01819e-07
1.38345e-05
7.00941e-07
1.38176e-05
7.00342e-07
1.38431e-05
7.00069e-07
1.38964e-05
6.99998e-07
1.39621e-05
6.99991e-07
1.40325e-05
7.00033e-07
1.41094e-05
7.0031e-07
1.41991e-05
7.01357e-07
1.43016e-05
7.04028e-07
1.43949e-05
7.11137e-07
1.43974e-05
7.27363e-07
1.40849e-05
7.39729e-07
1.30552e-05
6.88e-07
1.16217e-05
6.60238e-07
1.20452e-05
6.81088e-07
1.36698e-05
6.93944e-07
1.45994e-05
6.98532e-07
1.49315e-05
6.99933e-07
1.22845e-05
7.00483e-07
1.17423e-05
7.00729e-07
1.1219e-05
7.00867e-07
1.07214e-05
7.00966e-07
1.02481e-05
7.01047e-07
9.79661e-06
7.01118e-07
9.36474e-06
7.0118e-07
8.95096e-06
7.01235e-07
8.55418e-06
7.01283e-07
8.17357e-06
7.01325e-07
7.80844e-06
7.0136e-07
7.4582e-06
7.01389e-07
7.12231e-06
7.01413e-07
6.80025e-06
7.01432e-07
6.49155e-06
7.01447e-07
6.19573e-06
7.01459e-07
5.91233e-06
7.01467e-07
5.64092e-06
7.01473e-07
5.38107e-06
7.01477e-07
5.13235e-06
7.0148e-07
4.89437e-06
7.01483e-07
4.66675e-06
7.01485e-07
4.44913e-06
7.01486e-07
4.24114e-06
7.01488e-07
4.04245e-06
7.0149e-07
3.85274e-06
7.01491e-07
3.67167e-06
7.01492e-07
3.49895e-06
7.01485e-07
3.33426e-06
3.17733e-06
7.01166e-07
3.17737e-06
7.01173e-07
3.33428e-06
7.01169e-07
3.49882e-06
7.01164e-07
3.6717e-06
7.01161e-07
3.8535e-06
7.01161e-07
4.04478e-06
7.01166e-07
4.2461e-06
7.01176e-07
4.45806e-06
7.01191e-07
4.68121e-06
7.01211e-07
4.91611e-06
7.01232e-07
5.16323e-06
7.01251e-07
5.42301e-06
7.01264e-07
5.69586e-06
7.01267e-07
5.9821e-06
7.01258e-07
6.28206e-06
7.01236e-07
6.59605e-06
7.01202e-07
6.92436e-06
7.01157e-07
7.2673e-06
7.01107e-07
7.62517e-06
7.01055e-07
7.99823e-06
7.01008e-07
8.38674e-06
7.00973e-07
8.79098e-06
7.00952e-07
9.2113e-06
7.00948e-07
9.64841e-06
7.00959e-07
1.01036e-05
7.00977e-07
1.05791e-05
7.01e-07
1.10777e-05
7.01029e-07
1.16025e-05
7.01071e-07
1.21551e-05
7.01133e-07
1.27347e-05
7.01243e-07
1.55592e-05
7.01405e-07
1.55205e-05
7.01636e-07
1.54668e-05
7.01954e-07
1.53967e-05
7.02352e-07
1.53107e-05
7.02789e-07
1.5211e-05
7.03194e-07
1.51018e-05
7.03479e-07
1.49892e-05
7.03578e-07
1.48814e-05
7.035e-07
1.47863e-05
7.03339e-07
1.47091e-05
7.03231e-07
1.46496e-05
7.03282e-07
1.46023e-05
7.03536e-07
1.4559e-05
7.03982e-07
1.45122e-05
7.04586e-07
1.44561e-05
7.05299e-07
1.43878e-05
7.06036e-07
1.43054e-05
7.06625e-07
1.42091e-05
7.06781e-07
1.41019e-05
7.0618e-07
1.39928e-05
7.04691e-07
1.38982e-05
7.02606e-07
1.38366e-05
7.00561e-07
1.38197e-05
6.99093e-07
1.38446e-05
6.98353e-07
1.38971e-05
6.98159e-07
1.39623e-05
6.98303e-07
1.40324e-05
6.98853e-07
1.41089e-05
7.00352e-07
1.41976e-05
7.03987e-07
1.4298e-05
7.12199e-07
1.43867e-05
7.29551e-07
1.43801e-05
7.58006e-07
1.40565e-05
7.66363e-07
1.30468e-05
6.78743e-07
1.17093e-05
6.24931e-07
1.2099e-05
6.51475e-07
1.36433e-05
6.77451e-07
1.45734e-05
6.90184e-07
1.49188e-05
6.95036e-07
1.22797e-05
6.97381e-07
1.174e-05
6.98619e-07
1.12177e-05
6.9936e-07
1.07206e-05
6.99862e-07
1.02476e-05
7.00238e-07
9.79623e-06
7.00537e-07
9.36444e-06
7.00783e-07
8.95071e-06
7.00989e-07
8.55398e-06
7.01163e-07
8.1734e-06
7.01309e-07
7.80829e-06
7.01432e-07
7.45808e-06
7.01534e-07
7.12221e-06
7.01619e-07
6.80017e-06
7.01687e-07
6.49148e-06
7.01741e-07
6.19568e-06
7.01793e-07
5.91228e-06
7.01826e-07
5.64089e-06
7.01853e-07
5.38104e-06
7.01875e-07
5.13232e-06
7.01893e-07
4.89435e-06
7.01908e-07
4.66674e-06
7.01921e-07
4.44911e-06
7.01932e-07
4.24113e-06
7.01942e-07
4.04244e-06
7.01949e-07
3.85273e-06
7.01954e-07
3.67167e-06
7.01955e-07
3.49895e-06
7.01943e-07
3.33427e-06
3.17737e-06
7.00857e-07
3.17737e-06
7.00857e-07
3.33429e-06
7.0085e-07
3.49883e-06
7.00842e-07
3.67171e-06
7.00837e-07
3.85351e-06
7.00835e-07
4.04478e-06
7.00838e-07
4.2461e-06
7.00847e-07
4.45805e-06
7.00863e-07
4.6812e-06
7.00883e-07
4.91609e-06
7.00905e-07
5.1632e-06
7.00926e-07
5.42299e-06
7.00939e-07
5.69584e-06
7.00941e-07
5.9821e-06
7.00928e-07
6.28207e-06
7.00898e-07
6.59608e-06
7.00852e-07
6.92441e-06
7.00793e-07
7.26736e-06
7.00726e-07
7.62524e-06
7.00657e-07
7.9983e-06
7.00595e-07
8.38681e-06
7.00547e-07
8.79102e-06
7.00521e-07
9.21133e-06
7.00517e-07
9.64841e-06
7.00533e-07
1.01036e-05
7.00562e-07
1.0579e-05
7.006e-07
1.10777e-05
7.0065e-07
1.16025e-05
7.00723e-07
1.2155e-05
7.00832e-07
1.27346e-05
7.01018e-07
1.5559e-05
7.01284e-07
1.55202e-05
7.0166e-07
1.54664e-05
7.02154e-07
1.53962e-05
7.02754e-07
1.53101e-05
7.03402e-07
1.52104e-05
7.03998e-07
1.51012e-05
7.04426e-07
1.49888e-05
7.04605e-07
1.48812e-05
7.0455e-07
1.47864e-05
7.04387e-07
1.47092e-05
7.04296e-07
1.46496e-05
7.04421e-07
1.46021e-05
7.04824e-07
1.45586e-05
7.05493e-07
1.45115e-05
7.06374e-07
1.44553e-05
7.07385e-07
1.43868e-05
7.08387e-07
1.43044e-05
7.09131e-07
1.42084e-05
7.09235e-07
1.41017e-05
7.08304e-07
1.39938e-05
7.06205e-07
1.39003e-05
7.03335e-07
1.38394e-05
7.00508e-07
1.38225e-05
6.98436e-07
1.38466e-05
6.97363e-07
1.38982e-05
6.97132e-07
1.39625e-05
6.97556e-07
1.40319e-05
6.98807e-07
1.41076e-05
7.017e-07
1.41947e-05
7.07746e-07
1.42919e-05
7.19834e-07
1.43746e-05
7.42234e-07
1.43577e-05
7.7424e-07
1.40245e-05
7.76762e-07
1.30443e-05
6.7534e-07
1.18108e-05
6.0852e-07
1.21658e-05
6.3309e-07
1.36187e-05
6.64169e-07
1.45423e-05
6.81829e-07
1.49011e-05
6.89521e-07
1.2272e-05
6.93693e-07
1.17358e-05
6.96097e-07
1.12153e-05
6.97601e-07
1.07191e-05
6.98629e-07
1.02466e-05
6.99385e-07
9.79548e-06
6.99972e-07
9.36385e-06
7.00444e-07
8.95024e-06
7.00831e-07
8.55359e-06
7.01153e-07
8.17307e-06
7.01421e-07
7.80803e-06
7.01646e-07
7.45785e-06
7.01833e-07
7.12202e-06
7.01988e-07
6.80001e-06
7.02116e-07
6.49135e-06
7.02222e-07
6.19557e-06
7.023e-07
5.9122e-06
7.0237e-07
5.64082e-06
7.02427e-07
5.38098e-06
7.02472e-07
5.13228e-06
7.02509e-07
4.89431e-06
7.0254e-07
4.66671e-06
7.02565e-07
4.44909e-06
7.02587e-07
4.2411e-06
7.02605e-07
4.04242e-06
7.0262e-07
3.85271e-06
7.02631e-07
3.67166e-06
7.02636e-07
3.49894e-06
7.0263e-07
3.33428e-06
3.17739e-06
7.00413e-07
3.17737e-06
7.00404e-07
3.33429e-06
7.00394e-07
3.49884e-06
7.00386e-07
3.67172e-06
7.0038e-07
3.85352e-06
7.00379e-07
4.04478e-06
7.00383e-07
4.2461e-06
7.00393e-07
4.45804e-06
7.00409e-07
4.68118e-06
7.0043e-07
4.91606e-06
7.00452e-07
5.16318e-06
7.00472e-07
5.42297e-06
7.00484e-07
5.69583e-06
7.00482e-07
5.9821e-06
7.00463e-07
6.28209e-06
7.00426e-07
6.59611e-06
7.0037e-07
6.92446e-06
7.00299e-07
7.26743e-06
7.00218e-07
7.62532e-06
7.00136e-07
7.99838e-06
7.00062e-07
8.38688e-06
7.00006e-07
8.79108e-06
6.99974e-07
9.21136e-06
6.99972e-07
9.64841e-06
6.99995e-07
1.01036e-05
7.00037e-07
1.0579e-05
7.00094e-07
1.10776e-05
7.0017e-07
1.16024e-05
7.00276e-07
1.21549e-05
7.00429e-07
1.27344e-05
7.00688e-07
1.55588e-05
7.01051e-07
1.55199e-05
7.01553e-07
1.54659e-05
7.02201e-07
1.53955e-05
7.02974e-07
1.53093e-05
7.038e-07
1.52096e-05
7.04561e-07
1.51004e-05
7.05119e-07
1.49882e-05
7.05382e-07
1.4881e-05
7.05372e-07
1.47864e-05
7.05237e-07
1.47094e-05
7.05189e-07
1.46497e-05
7.05396e-07
1.46019e-05
7.05934e-07
1.45581e-05
7.06787e-07
1.45106e-05
7.07886e-07
1.44542e-05
7.09118e-07
1.43855e-05
7.10304e-07
1.43033e-05
7.11136e-07
1.42075e-05
7.11172e-07
1.41017e-05
7.09976e-07
1.3995e-05
7.07425e-07
1.39028e-05
7.0399e-07
1.38429e-05
7.0061e-07
1.38259e-05
6.98114e-07
1.38491e-05
6.96826e-07
1.38995e-05
6.96628e-07
1.39627e-05
6.97369e-07
1.40312e-05
6.99282e-07
1.41057e-05
7.03295e-07
1.41907e-05
7.11162e-07
1.42841e-05
7.25667e-07
1.43601e-05
7.50741e-07
1.43326e-05
7.83724e-07
1.39915e-05
7.80878e-07
1.30471e-05
6.73777e-07
1.19179e-05
5.99755e-07
1.22398e-05
6.21142e-07
1.35973e-05
6.54546e-07
1.45089e-05
6.75069e-07
1.48806e-05
6.84674e-07
1.22624e-05
6.90257e-07
1.17302e-05
6.93671e-07
1.12119e-05
6.95902e-07
1.07169e-05
6.97462e-07
1.0245e-05
6.98619e-07
9.79432e-06
6.99515e-07
9.36296e-06
7.00231e-07
8.94953e-06
7.00815e-07
8.553e-06
7.01298e-07
8.17259e-06
7.01699e-07
7.80762e-06
7.02035e-07
7.45752e-06
7.02314e-07
7.12174e-06
7.02546e-07
6.79978e-06
7.02738e-07
6.49116e-06
7.02895e-07
6.19541e-06
7.0302e-07
5.91208e-06
7.03126e-07
5.64071e-06
7.03212e-07
5.38089e-06
7.03282e-07
5.13221e-06
7.0334e-07
4.89426e-06
7.03387e-07
4.66666e-06
7.03427e-07
4.44905e-06
7.0346e-07
4.24107e-06
7.03487e-07
4.0424e-06
7.03508e-07
3.85269e-06
7.03525e-07
3.67164e-06
7.03535e-07
3.49893e-06
7.03535e-07
3.33428e-06
3.17739e-06
6.99821e-07
3.17738e-06
6.99807e-07
3.33431e-06
6.99795e-07
3.49885e-06
6.99786e-07
3.67173e-06
6.99781e-07
3.85352e-06
6.9978e-07
4.04478e-06
6.99784e-07
4.24609e-06
6.99794e-07
4.45803e-06
6.99811e-07
4.68117e-06
6.99832e-07
4.91604e-06
6.99854e-07
5.16316e-06
6.99873e-07
5.42295e-06
6.99883e-07
5.69582e-06
6.99878e-07
5.9821e-06
6.99855e-07
6.28212e-06
6.99812e-07
6.59616e-06
6.99748e-07
6.92453e-06
6.99667e-07
7.26751e-06
6.99577e-07
7.62541e-06
6.99485e-07
7.99847e-06
6.99402e-07
8.38696e-06
6.99339e-07
8.79114e-06
6.99306e-07
9.21139e-06
6.99305e-07
9.64841e-06
6.99336e-07
1.01035e-05
6.99392e-07
1.05789e-05
6.99468e-07
1.10776e-05
6.9957e-07
1.16023e-05
6.99711e-07
1.21548e-05
6.99908e-07
1.27342e-05
7.00238e-07
1.55585e-05
7.0069e-07
1.55194e-05
7.01304e-07
1.54653e-05
7.02085e-07
1.53948e-05
7.03007e-07
1.53084e-05
7.03985e-07
1.52086e-05
7.04886e-07
1.50995e-05
7.0556e-07
1.49876e-05
7.05909e-07
1.48806e-05
7.0596e-07
1.47863e-05
7.05877e-07
1.47095e-05
7.0589e-07
1.46497e-05
7.06184e-07
1.46016e-05
7.06844e-07
1.45574e-05
7.07849e-07
1.45096e-05
7.09118e-07
1.44529e-05
7.10514e-07
1.43841e-05
7.11821e-07
1.43019e-05
7.12694e-07
1.42067e-05
7.12652e-07
1.41018e-05
7.11247e-07
1.39964e-05
7.08376e-07
1.39057e-05
7.04566e-07
1.38467e-05
7.00822e-07
1.38296e-05
6.98052e-07
1.38519e-05
6.96639e-07
1.39009e-05
6.96513e-07
1.39628e-05
6.9756e-07
1.40301e-05
7.00058e-07
1.41032e-05
7.04986e-07
1.41858e-05
7.14117e-07
1.42749e-05
7.30181e-07
1.43441e-05
7.56462e-07
1.43063e-05
7.88066e-07
1.39599e-05
7.79753e-07
1.30555e-05
6.73735e-07
1.20239e-05
5.97446e-07
1.23161e-05
6.13966e-07
1.35808e-05
6.47534e-07
1.44753e-05
6.69755e-07
1.48584e-05
6.80692e-07
1.22514e-05
6.87336e-07
1.17236e-05
6.91572e-07
1.12077e-05
6.94437e-07
1.0714e-05
6.96491e-07
1.0243e-05
6.98035e-07
9.79278e-06
6.9924e-07
9.36175e-06
7.00205e-07
8.94856e-06
7.00993e-07
8.55222e-06
7.01644e-07
8.17194e-06
7.02185e-07
7.80708e-06
7.02637e-07
7.45707e-06
7.03013e-07
7.12136e-06
7.03327e-07
6.79947e-06
7.03587e-07
6.4909e-06
7.03801e-07
6.1952e-06
7.03979e-07
5.9119e-06
7.04124e-07
5.64057e-06
7.04243e-07
5.38078e-06
7.04341e-07
5.13211e-06
7.04422e-07
4.89418e-06
7.04488e-07
4.66659e-06
7.04543e-07
4.44899e-06
7.04588e-07
4.24103e-06
7.04625e-07
4.04236e-06
7.04654e-07
3.85266e-06
7.04675e-07
3.67162e-06
7.0469e-07
3.49892e-06
7.04696e-07
3.33427e-06
3.17739e-06
6.99073e-07
3.17739e-06
6.99058e-07
3.33432e-06
6.99045e-07
3.49886e-06
6.99035e-07
3.67174e-06
6.9903e-07
3.85353e-06
6.99028e-07
4.04478e-06
6.99032e-07
4.24609e-06
6.99042e-07
4.45802e-06
6.99058e-07
4.68115e-06
6.99079e-07
4.91602e-06
6.99101e-07
5.16314e-06
6.99119e-07
5.42294e-06
6.99127e-07
5.69581e-06
6.9912e-07
5.98211e-06
6.99094e-07
6.28214e-06
6.99046e-07
6.59621e-06
6.98977e-07
6.9246e-06
6.9889e-07
7.2676e-06
6.98793e-07
7.6255e-06
6.98695e-07
7.99857e-06
6.98606e-07
8.38705e-06
6.9854e-07
8.79121e-06
6.98505e-07
9.21143e-06
6.98508e-07
9.64841e-06
6.98546e-07
1.01035e-05
6.98615e-07
1.05789e-05
6.9871e-07
1.10775e-05
6.98838e-07
1.16022e-05
6.99013e-07
1.21546e-05
6.99254e-07
1.2734e-05
6.9965e-07
1.55581e-05
7.00186e-07
1.55189e-05
7.009e-07
1.54646e-05
7.01798e-07
1.53939e-05
7.02846e-07
1.53074e-05
7.03952e-07
1.52075e-05
7.04972e-07
1.50985e-05
7.05749e-07
1.49868e-05
7.06184e-07
1.48802e-05
7.06308e-07
1.47862e-05
7.06295e-07
1.47095e-05
7.06383e-07
1.46496e-05
7.06769e-07
1.46013e-05
7.07538e-07
1.45567e-05
7.0867e-07
1.45085e-05
7.10069e-07
1.44515e-05
7.11581e-07
1.43826e-05
7.12962e-07
1.43006e-05
7.13841e-07
1.42058e-05
7.13721e-07
1.41019e-05
7.1216e-07
1.39979e-05
7.09083e-07
1.39088e-05
7.05052e-07
1.38507e-05
7.01102e-07
1.38336e-05
6.9818e-07
1.38548e-05
6.96716e-07
1.39024e-05
6.96687e-07
1.39629e-05
6.98018e-07
1.40288e-05
7.01019e-07
1.41002e-05
7.06646e-07
1.41801e-05
7.16657e-07
1.42649e-05
7.3356e-07
1.43272e-05
7.5976e-07
1.42801e-05
7.88512e-07
1.39311e-05
7.758e-07
1.30682e-05
6.74486e-07
1.21252e-05
5.99218e-07
1.23914e-05
6.10792e-07
1.35692e-05
6.42895e-07
1.44432e-05
6.65765e-07
1.48355e-05
6.77568e-07
1.22396e-05
6.85004e-07
1.17162e-05
6.89904e-07
1.12028e-05
6.93314e-07
1.07106e-05
6.9581e-07
1.02405e-05
6.97715e-07
9.79087e-06
6.99216e-07
9.36025e-06
7.00426e-07
8.94735e-06
7.01417e-07
8.55123e-06
7.02237e-07
8.17112e-06
7.0292e-07
7.8064e-06
7.03491e-07
7.4565e-06
7.03969e-07
7.12088e-06
7.04368e-07
6.79907e-06
7.047e-07
6.49057e-06
7.04976e-07
6.19492e-06
7.05205e-07
5.91167e-06
7.05394e-07
5.64038e-06
7.0555e-07
5.38062e-06
7.05678e-07
5.13198e-06
7.05783e-07
4.89407e-06
7.0587e-07
4.6665e-06
7.05942e-07
4.44892e-06
7.06001e-07
4.24097e-06
7.06047e-07
4.04231e-06
7.06084e-07
3.85263e-06
7.0611e-07
3.67159e-06
7.06128e-07
3.4989e-06
7.06136e-07
3.33427e-06
3.17739e-06
6.98169e-07
3.1774e-06
6.98155e-07
3.33434e-06
6.98143e-07
3.49887e-06
6.98133e-07
3.67175e-06
6.98127e-07
3.85353e-06
6.98126e-07
4.04479e-06
6.98129e-07
4.24608e-06
6.98138e-07
4.45801e-06
6.98154e-07
4.68113e-06
6.98174e-07
4.916e-06
6.98194e-07
5.16312e-06
6.98211e-07
5.42292e-06
6.98218e-07
5.69581e-06
6.98209e-07
5.98212e-06
6.9818e-07
6.28217e-06
6.98129e-07
6.59626e-06
6.98056e-07
6.92467e-06
6.97966e-07
7.26769e-06
6.97864e-07
7.62561e-06
6.97761e-07
7.99867e-06
6.9767e-07
8.38714e-06
6.97601e-07
8.79128e-06
6.97568e-07
9.21146e-06
6.97574e-07
9.6484e-06
6.9762e-07
1.01034e-05
6.97701e-07
1.05788e-05
6.97815e-07
1.10773e-05
6.97968e-07
1.1602e-05
6.98175e-07
1.21544e-05
6.98459e-07
1.27337e-05
6.98918e-07
1.55576e-05
6.99531e-07
1.55183e-05
7.00334e-07
1.54638e-05
7.01334e-07
1.53929e-05
7.0249e-07
1.53062e-05
7.03705e-07
1.52063e-05
7.04827e-07
1.50974e-05
7.05697e-07
1.49859e-05
7.06217e-07
1.48796e-05
7.06421e-07
1.4786e-05
7.06487e-07
1.47094e-05
7.06659e-07
1.46494e-05
7.07137e-07
1.46008e-05
7.08006e-07
1.45558e-05
7.09243e-07
1.45073e-05
7.10743e-07
1.445e-05
7.12335e-07
1.4381e-05
7.13758e-07
1.42991e-05
7.14625e-07
1.42049e-05
7.14439e-07
1.41021e-05
7.12771e-07
1.39996e-05
7.09577e-07
1.3912e-05
7.05441e-07
1.38548e-05
7.01409e-07
1.38376e-05
6.98424e-07
1.38578e-05
6.96967e-07
1.39038e-05
6.9705e-07
1.39628e-05
6.98633e-07
1.40272e-05
7.02029e-07
1.40968e-05
7.08176e-07
1.4174e-05
7.18713e-07
1.42544e-05
7.35856e-07
1.431e-05
7.61168e-07
1.42548e-05
7.86694e-07
1.39056e-05
7.7094e-07
1.30839e-05
6.75561e-07
1.22206e-05
6.02956e-07
1.2464e-05
6.10387e-07
1.35618e-05
6.40329e-07
1.44133e-05
6.63098e-07
1.48128e-05
6.75355e-07
1.22274e-05
6.83334e-07
1.17082e-05
6.88748e-07
1.11974e-05
6.9261e-07
1.07067e-05
6.95493e-07
1.02376e-05
6.97725e-07
9.78864e-06
6.995e-07
9.35847e-06
7.00942e-07
8.94591e-06
7.02129e-07
8.55004e-06
7.03115e-07
8.17014e-06
7.0394e-07
7.80558e-06
7.04631e-07
7.45581e-06
7.05211e-07
7.12031e-06
7.05697e-07
6.79858e-06
7.06103e-07
6.49016e-06
7.06442e-07
6.19458e-06
7.06724e-07
5.91139e-06
7.06958e-07
5.64015e-06
7.07151e-07
5.38043e-06
7.07311e-07
5.13182e-06
7.07443e-07
4.89394e-06
7.07552e-07
4.6664e-06
7.07641e-07
4.44883e-06
7.07712e-07
4.2409e-06
7.07769e-07
4.04226e-06
7.07812e-07
3.85258e-06
7.07843e-07
3.67156e-06
7.07862e-07
3.49888e-06
7.07872e-07
3.33426e-06
3.17739e-06
6.97112e-07
3.17741e-06
6.97101e-07
3.33435e-06
6.9709e-07
3.49888e-06
6.97081e-07
3.67176e-06
6.97075e-07
3.85354e-06
6.97073e-07
4.04479e-06
6.97077e-07
4.24608e-06
6.97086e-07
4.458e-06
6.971e-07
4.68112e-06
6.9712e-07
4.91598e-06
6.97139e-07
5.1631e-06
6.97155e-07
5.4229e-06
6.97161e-07
5.6958e-06
6.97151e-07
5.98213e-06
6.9712e-07
6.2822e-06
6.97066e-07
6.59631e-06
6.9699e-07
6.92474e-06
6.96896e-07
7.26779e-06
6.96791e-07
7.62571e-06
6.96686e-07
7.99878e-06
6.96592e-07
8.38724e-06
6.96523e-07
8.79134e-06
6.9649e-07
9.21149e-06
6.96501e-07
9.64839e-06
6.96554e-07
1.01034e-05
6.96648e-07
1.05787e-05
6.9678e-07
1.10772e-05
6.96957e-07
1.16018e-05
6.97196e-07
1.21541e-05
6.97519e-07
1.27334e-05
6.98036e-07
1.55571e-05
6.98718e-07
1.55176e-05
6.99601e-07
1.54629e-05
7.0069e-07
1.53918e-05
7.01939e-07
1.5305e-05
7.03248e-07
1.5205e-05
7.04461e-07
1.50962e-05
7.05416e-07
1.4985e-05
7.06018e-07
1.4879e-05
7.06304e-07
1.47857e-05
7.06455e-07
1.47093e-05
7.06714e-07
1.46492e-05
7.07281e-07
1.46002e-05
7.08241e-07
1.45548e-05
7.09567e-07
1.45059e-05
7.11146e-07
1.44484e-05
7.12796e-07
1.43794e-05
7.14245e-07
1.42977e-05
7.15096e-07
1.42041e-05
7.14859e-07
1.41023e-05
7.13129e-07
1.40013e-05
7.09886e-07
1.39152e-05
7.05725e-07
1.3859e-05
7.01681e-07
1.38417e-05
6.98714e-07
1.38608e-05
6.97306e-07
1.39052e-05
6.9751e-07
1.39626e-05
6.99307e-07
1.40254e-05
7.03008e-07
1.40931e-05
7.09493e-07
1.41675e-05
7.20263e-07
1.42436e-05
7.37255e-07
1.4293e-05
7.61343e-07
1.42307e-05
7.83797e-07
1.38832e-05
7.66018e-07
1.31017e-05
6.76804e-07
1.23098e-05
6.07577e-07
1.25332e-05
6.11701e-07
1.35577e-05
6.39376e-07
1.43856e-05
6.61659e-07
1.47905e-05
6.74076e-07
1.2215e-05
6.82382e-07
1.16999e-05
6.88167e-07
1.11916e-05
6.92388e-07
1.07025e-05
6.95595e-07
1.02344e-05
6.98113e-07
9.78612e-06
7.00138e-07
9.35645e-06
7.01794e-07
8.94425e-06
7.03166e-07
8.54867e-06
7.04311e-07
8.16899e-06
7.05273e-07
7.80462e-06
7.06081e-07
7.455e-06
7.06762e-07
7.11963e-06
7.07335e-07
6.79801e-06
7.07815e-07
6.48968e-06
7.08217e-07
6.19418e-06
7.08553e-07
5.91105e-06
7.08832e-07
5.63987e-06
7.09065e-07
5.38019e-06
7.09257e-07
5.13163e-06
7.09415e-07
4.89378e-06
7.09545e-07
4.66627e-06
7.09651e-07
4.44873e-06
7.09737e-07
4.24081e-06
7.09803e-07
4.04219e-06
7.09852e-07
3.85253e-06
7.09886e-07
3.67153e-06
7.09906e-07
3.49886e-06
7.09916e-07
3.33425e-06
3.17739e-06
6.95908e-07
3.17741e-06
6.959e-07
3.33436e-06
6.9589e-07
3.49889e-06
6.95882e-07
3.67176e-06
6.95877e-07
3.85354e-06
6.95874e-07
4.04479e-06
6.95877e-07
4.24608e-06
6.95886e-07
4.45799e-06
6.959e-07
4.6811e-06
6.95919e-07
4.91596e-06
6.95938e-07
5.16308e-06
6.95953e-07
5.42289e-06
6.95958e-07
5.69579e-06
6.95946e-07
5.98214e-06
6.95914e-07
6.28223e-06
6.95858e-07
6.59637e-06
6.9578e-07
6.92482e-06
6.95683e-07
7.26788e-06
6.95575e-07
7.62582e-06
6.95467e-07
7.99889e-06
6.95371e-07
8.38733e-06
6.95302e-07
8.79141e-06
6.95271e-07
9.21152e-06
6.95286e-07
9.64838e-06
6.95347e-07
1.01033e-05
6.95453e-07
1.05786e-05
6.95602e-07
1.10771e-05
6.95802e-07
1.16016e-05
6.9607e-07
1.21539e-05
6.9643e-07
1.2733e-05
6.96999e-07
1.55565e-05
6.97744e-07
1.55168e-05
6.98698e-07
1.5462e-05
6.99863e-07
1.53906e-05
7.01195e-07
1.53036e-05
7.02586e-07
1.52036e-05
7.03879e-07
1.50949e-05
7.04914e-07
1.49839e-05
7.05595e-07
1.48784e-05
7.05963e-07
1.47853e-05
7.06199e-07
1.4709e-05
7.06545e-07
1.46488e-05
7.07197e-07
1.45996e-05
7.0824e-07
1.45538e-05
7.09642e-07
1.45045e-05
7.11286e-07
1.44468e-05
7.12981e-07
1.43777e-05
7.14445e-07
1.42962e-05
7.15284e-07
1.42032e-05
7.15017e-07
1.41026e-05
7.13262e-07
1.40031e-05
7.10024e-07
1.39184e-05
7.059e-07
1.38631e-05
7.01913e-07
1.38456e-05
6.99006e-07
1.38637e-05
6.97677e-07
1.39066e-05
6.98001e-07
1.39622e-05
6.99975e-07
1.40235e-05
7.03894e-07
1.40892e-05
7.10572e-07
1.41608e-05
7.21371e-07
1.42328e-05
7.37987e-07
1.42764e-05
7.60735e-07
1.4208e-05
7.80396e-07
1.38635e-05
7.61319e-07
1.31208e-05
6.78219e-07
1.23929e-05
6.12677e-07
1.25987e-05
6.14143e-07
1.35562e-05
6.39633e-07
1.43601e-05
6.61262e-07
1.47688e-05
6.73662e-07
1.22026e-05
6.82145e-07
1.16914e-05
6.88185e-07
1.11855e-05
6.92681e-07
1.0698e-05
6.96154e-07
1.02309e-05
6.98917e-07
9.78336e-06
7.01162e-07
9.3542e-06
7.03013e-07
8.9424e-06
7.04557e-07
8.54713e-06
7.05852e-07
8.1677e-06
7.06944e-07
7.80353e-06
7.07866e-07
7.45408e-06
7.08644e-07
7.11885e-06
7.09302e-07
6.79736e-06
7.09855e-07
6.48913e-06
7.1032e-07
6.19372e-06
7.10709e-07
5.91067e-06
7.11035e-07
5.63954e-06
7.11305e-07
5.37992e-06
7.11529e-07
5.13141e-06
7.11715e-07
4.8936e-06
7.11866e-07
4.66612e-06
7.11989e-07
4.4486e-06
7.12088e-07
4.24071e-06
7.12163e-07
4.04211e-06
7.12219e-07
3.85248e-06
7.12256e-07
3.67149e-06
7.12278e-07
3.49884e-06
7.12287e-07
3.33424e-06
3.17738e-06
6.94565e-07
3.17742e-06
6.94557e-07
3.33436e-06
6.94548e-07
3.4989e-06
6.9454e-07
3.67177e-06
6.94533e-07
3.85355e-06
6.94531e-07
4.04479e-06
6.94533e-07
4.24608e-06
6.94541e-07
4.45798e-06
6.94554e-07
4.68109e-06
6.94572e-07
4.91595e-06
6.9459e-07
5.16306e-06
6.94604e-07
5.42287e-06
6.94607e-07
5.69579e-06
6.94594e-07
5.98215e-06
6.94559e-07
6.28227e-06
6.94502e-07
6.59642e-06
6.94421e-07
6.9249e-06
6.94322e-07
7.26798e-06
6.94212e-07
7.62593e-06
6.94102e-07
7.999e-06
6.94005e-07
8.38743e-06
6.93936e-07
8.79148e-06
6.93908e-07
9.21155e-06
6.93927e-07
9.64836e-06
6.93996e-07
1.01033e-05
6.94114e-07
1.05785e-05
6.94279e-07
1.10769e-05
6.94499e-07
1.16014e-05
6.94794e-07
1.21536e-05
6.95186e-07
1.27326e-05
6.95802e-07
1.55559e-05
6.96602e-07
1.5516e-05
6.97618e-07
1.5461e-05
6.98852e-07
1.53894e-05
7.00255e-07
1.53022e-05
7.01718e-07
1.52021e-05
7.03085e-07
1.50935e-05
7.04192e-07
1.49828e-05
7.04949e-07
1.48776e-05
7.05398e-07
1.47849e-05
7.05718e-07
1.47087e-05
7.06149e-07
1.46484e-05
7.06883e-07
1.45988e-05
7.08002e-07
1.45527e-05
7.09471e-07
1.45031e-05
7.11168e-07
1.44451e-05
7.12898e-07
1.43759e-05
7.14376e-07
1.42948e-05
7.15209e-07
1.42024e-05
7.14931e-07
1.41028e-05
7.13186e-07
1.40048e-05
7.09998e-07
1.39216e-05
7.05961e-07
1.38672e-05
7.02076e-07
1.38495e-05
6.99268e-07
1.38665e-05
6.98038e-07
1.39078e-05
6.9848e-07
1.39618e-05
7.00599e-07
1.40213e-05
7.04668e-07
1.40851e-05
7.11436e-07
1.41541e-05
7.22133e-07
1.42221e-05
7.38235e-07
1.42603e-05
7.59612e-07
1.41866e-05
7.76765e-07
1.38463e-05
7.56947e-07
1.31406e-05
6.79793e-07
1.247e-05
6.18068e-07
1.26605e-05
6.17404e-07
1.35569e-05
6.40837e-07
1.43367e-05
6.61733e-07
1.47479e-05
6.74015e-07
1.21903e-05
6.82579e-07
1.16828e-05
6.88792e-07
1.11793e-05
6.93497e-07
1.06933e-05
6.97187e-07
1.02272e-05
7.00159e-07
9.78039e-06
7.02597e-07
9.35177e-06
7.04625e-07
8.94037e-06
7.06325e-07
8.54543e-06
7.0776e-07
8.16626e-06
7.08975e-07
7.80231e-06
7.10005e-07
7.45305e-06
7.10879e-07
7.11798e-06
7.11618e-07
6.79662e-06
7.12242e-07
6.48851e-06
7.12769e-07
6.19319e-06
7.13211e-07
5.91022e-06
7.13581e-07
5.63917e-06
7.1389e-07
5.37962e-06
7.14146e-07
5.13115e-06
7.14358e-07
4.89338e-06
7.14531e-07
4.66594e-06
7.14671e-07
4.44846e-06
7.14782e-07
4.2406e-06
7.14868e-07
4.04203e-06
7.1493e-07
3.85242e-06
7.14972e-07
3.67145e-06
7.14995e-07
3.49882e-06
7.15006e-07
3.33423e-06
3.17738e-06
6.93081e-07
3.17742e-06
6.93073e-07
3.33437e-06
6.93063e-07
3.49891e-06
6.93053e-07
3.67178e-06
6.93046e-07
3.85356e-06
6.93042e-07
4.0448e-06
6.93043e-07
4.24607e-06
6.93049e-07
4.45798e-06
6.93061e-07
4.68108e-06
6.93077e-07
4.91593e-06
6.93093e-07
5.16304e-06
6.93105e-07
5.42286e-06
6.93106e-07
5.69579e-06
6.93091e-07
5.98217e-06
6.93054e-07
6.2823e-06
6.92994e-07
6.59648e-06
6.92911e-07
6.92499e-06
6.9281e-07
7.26808e-06
6.92698e-07
7.62604e-06
6.92587e-07
7.99911e-06
6.9249e-07
8.38752e-06
6.92422e-07
8.79155e-06
6.92396e-07
9.21158e-06
6.9242e-07
9.64834e-06
6.92497e-07
1.01032e-05
6.92626e-07
1.05783e-05
6.92805e-07
1.10767e-05
6.93045e-07
1.16012e-05
6.93362e-07
1.21533e-05
6.93782e-07
1.27322e-05
6.9444e-07
1.55552e-05
6.95288e-07
1.55152e-05
6.96358e-07
1.54599e-05
6.97651e-07
1.53881e-05
6.99117e-07
1.53008e-05
7.00645e-07
1.52006e-05
7.02076e-07
1.50921e-05
7.03252e-07
1.49816e-05
7.04082e-07
1.48768e-05
7.04609e-07
1.47844e-05
7.05011e-07
1.47083e-05
7.05524e-07
1.46479e-05
7.06335e-07
1.4598e-05
7.07523e-07
1.45515e-05
7.09052e-07
1.45015e-05
7.10796e-07
1.44433e-05
7.12556e-07
1.43742e-05
7.14048e-07
1.42933e-05
7.14883e-07
1.42016e-05
7.14615e-07
1.41031e-05
7.12908e-07
1.40065e-05
7.09807e-07
1.39247e-05
7.05899e-07
1.38711e-05
7.02154e-07
1.38533e-05
6.99476e-07
1.38692e-05
6.98362e-07
1.39089e-05
6.98919e-07
1.39612e-05
7.01159e-07
1.40191e-05
7.05332e-07
1.4081e-05
7.12119e-07
1.41473e-05
7.22631e-07
1.42116e-05
7.38147e-07
1.42448e-05
7.58175e-07
1.41666e-05
7.731e-07
1.38314e-05
7.52961e-07
1.31607e-05
6.81485e-07
1.25415e-05
6.23598e-07
1.27184e-05
6.21271e-07
1.35592e-05
6.42811e-07
1.43152e-05
6.62947e-07
1.47278e-05
6.75051e-07
1.21782e-05
6.83634e-07
1.16742e-05
6.89965e-07
1.1173e-05
6.94832e-07
1.06884e-05
6.98701e-07
1.02233e-05
7.01851e-07
9.77724e-06
7.04461e-07
9.34916e-06
7.06647e-07
8.93819e-06
7.08492e-07
8.54358e-06
7.10057e-07
8.1647e-06
7.11388e-07
7.80098e-06
7.12521e-07
7.45192e-06
7.13485e-07
7.11701e-06
7.14303e-07
6.7958e-06
7.14997e-07
6.48781e-06
7.15583e-07
6.19261e-06
7.16077e-07
5.90973e-06
7.16491e-07
5.63876e-06
7.16838e-07
5.37927e-06
7.17125e-07
5.13086e-06
7.17363e-07
4.89315e-06
7.17557e-07
4.66575e-06
7.17714e-07
4.44831e-06
7.17838e-07
4.24048e-06
7.17934e-07
4.04193e-06
7.18003e-07
3.85235e-06
7.1805e-07
3.6714e-06
7.18077e-07
3.49879e-06
7.18089e-07
3.33421e-06
3.17738e-06
6.91452e-07
3.17743e-06
6.91442e-07
3.33438e-06
6.91431e-07
3.49892e-06
6.9142e-07
3.67179e-06
6.91411e-07
3.85357e-06
6.91406e-07
4.0448e-06
6.91405e-07
4.24608e-06
6.9141e-07
4.45797e-06
6.9142e-07
4.68107e-06
6.91433e-07
4.91592e-06
6.91447e-07
5.16303e-06
6.91456e-07
5.42285e-06
6.91454e-07
5.69579e-06
6.91437e-07
5.98218e-06
6.91398e-07
6.28234e-06
6.91335e-07
6.59654e-06
6.9125e-07
6.92507e-06
6.91146e-07
7.26818e-06
6.91033e-07
7.62615e-06
6.9092e-07
7.99922e-06
6.90823e-07
8.38762e-06
6.90756e-07
8.79162e-06
6.90733e-07
9.2116e-06
6.90762e-07
9.64831e-06
6.90847e-07
1.01031e-05
6.90985e-07
1.05782e-05
6.91178e-07
1.10765e-05
6.91434e-07
1.16009e-05
6.91771e-07
1.21529e-05
6.92215e-07
1.27318e-05
6.92908e-07
1.55545e-05
6.93798e-07
1.55143e-05
6.94914e-07
1.54588e-05
6.96259e-07
1.53867e-05
6.97779e-07
1.52992e-05
6.99364e-07
1.5199e-05
7.00854e-07
1.50906e-05
7.02092e-07
1.49804e-05
7.02991e-07
1.48759e-05
7.03594e-07
1.47838e-05
7.04076e-07
1.47078e-05
7.04667e-07
1.46473e-05
7.05552e-07
1.45971e-05
7.06805e-07
1.45502e-05
7.08388e-07
1.45e-05
7.10174e-07
1.44415e-05
7.11963e-07
1.43724e-05
7.13471e-07
1.42918e-05
7.14319e-07
1.42007e-05
7.14077e-07
1.41034e-05
7.12435e-07
1.40082e-05
7.09452e-07
1.39277e-05
7.05704e-07
1.38748e-05
7.02131e-07
1.38568e-05
6.99607e-07
1.38717e-05
6.98625e-07
1.39099e-05
6.99299e-07
1.39606e-05
7.01644e-07
1.40168e-05
7.05888e-07
1.40767e-05
7.12652e-07
1.41405e-05
7.22939e-07
1.42013e-05
7.37849e-07
1.42299e-05
7.56598e-07
1.41478e-05
7.69562e-07
1.38185e-05
7.49398e-07
1.31809e-05
6.83254e-07
1.26077e-05
6.29143e-07
1.27725e-05
6.25577e-07
1.35628e-05
6.45414e-07
1.42953e-05
6.64804e-07
1.47084e-05
6.76704e-07
1.21663e-05
6.8527e-07
1.16657e-05
6.9168e-07
1.11666e-05
6.96676e-07
1.06835e-05
7.00695e-07
1.02193e-05
7.04002e-07
9.77393e-06
7.06764e-07
9.3464e-06
7.09094e-07
8.93586e-06
7.11073e-07
8.5416e-06
7.1276e-07
8.16301e-06
7.14201e-07
7.79954e-06
7.15431e-07
7.45068e-06
7.16482e-07
7.11596e-06
7.17377e-07
6.7949e-06
7.18138e-07
6.48705e-06
7.18782e-07
6.19196e-06
7.19327e-07
5.90919e-06
7.19785e-07
5.6383e-06
7.20167e-07
5.37889e-06
7.20486e-07
5.13055e-06
7.20749e-07
4.89289e-06
7.20964e-07
4.66553e-06
7.21137e-07
4.44813e-06
7.21275e-07
4.24034e-06
7.2138e-07
4.04183e-06
7.21457e-07
3.85227e-06
7.21508e-07
3.67135e-06
7.21539e-07
3.49876e-06
7.21554e-07
3.3342e-06
3.17737e-06
6.89672e-07
3.17743e-06
6.89661e-07
3.33439e-06
6.89648e-07
3.49894e-06
6.89636e-07
3.67181e-06
6.89625e-07
3.85358e-06
6.89619e-07
4.04481e-06
6.89617e-07
4.24608e-06
6.8962e-07
4.45797e-06
6.89628e-07
4.68106e-06
6.89639e-07
4.91591e-06
6.8965e-07
5.16302e-06
6.89656e-07
5.42285e-06
6.89652e-07
5.69579e-06
6.89631e-07
5.9822e-06
6.8959e-07
6.28238e-06
6.89525e-07
6.59661e-06
6.89437e-07
6.92516e-06
6.89331e-07
7.26829e-06
6.89215e-07
7.62627e-06
6.89102e-07
7.99933e-06
6.89004e-07
8.38772e-06
6.88938e-07
8.79168e-06
6.88917e-07
9.21162e-06
6.88951e-07
9.64827e-06
6.89042e-07
1.0103e-05
6.89189e-07
1.05781e-05
6.89393e-07
1.10763e-05
6.89662e-07
1.16007e-05
6.90016e-07
1.21526e-05
6.90481e-07
1.27313e-05
6.91204e-07
1.55538e-05
6.92129e-07
1.55134e-05
6.93286e-07
1.54576e-05
6.94674e-07
1.53854e-05
6.96241e-07
1.52977e-05
6.97875e-07
1.51974e-05
6.99417e-07
1.5089e-05
7.00712e-07
1.49791e-05
7.01675e-07
1.48749e-05