/*--------------------------------*- C++ -*----------------------------------*\
  =========                 |
  \\      /  F ield         | OpenFOAM: The Open Source CFD Toolbox
   \\    /   O peration     | Website:  https://openfoam.org
    \\  /    A nd           | Version:  9
     \\/     M anipulation  |
\*---------------------------------------------------------------------------*/
FoamFile
{
    format      ascii;
    class       volScalarField;
    location    "0.16";
    object      rAU;
}
// * * * * * * * * * * * * * * * * * * * * * * * * * * * * * * * * * * * * * //

dimensions      [-1 3 1 0 0 0 0];

internalField   nonuniform List<scalar> 
20000
(
1.10086e-05
1.26597e-05
1.2784e-05
1.28994e-05
1.30063e-05
1.31048e-05
1.31953e-05
1.32783e-05
1.3354e-05
1.3423e-05
1.34859e-05
1.35433e-05
1.35958e-05
1.36441e-05
1.3689e-05
1.37309e-05
1.37705e-05
1.38084e-05
1.38451e-05
1.38809e-05
1.39165e-05
1.39521e-05
1.3988e-05
1.40242e-05
1.40605e-05
1.40958e-05
1.4129e-05
1.41591e-05
1.41863e-05
1.42156e-05
1.42796e-05
1.43006e-05
1.43251e-05
1.43572e-05
1.43967e-05
1.44427e-05
1.44935e-05
1.45462e-05
1.4597e-05
1.4642e-05
1.46787e-05
1.47071e-05
1.47297e-05
1.47504e-05
1.4773e-05
1.48001e-05
1.48334e-05
1.48736e-05
1.49211e-05
1.49743e-05
1.5029e-05
1.50768e-05
1.51079e-05
1.51162e-05
1.51033e-05
1.50764e-05
1.50435e-05
1.50084e-05
1.49703e-05
1.49261e-05
1.48759e-05
1.48306e-05
1.48296e-05
1.49826e-05
1.55119e-05
1.63225e-05
1.60643e-05
1.51821e-05
1.47293e-05
1.45704e-05
1.44682e-05
1.44276e-05
1.4393e-05
1.43555e-05
1.43151e-05
1.42726e-05
1.42286e-05
1.41836e-05
1.41376e-05
1.40907e-05
1.40427e-05
1.39934e-05
1.39428e-05
1.38904e-05
1.38361e-05
1.37796e-05
1.37204e-05
1.36584e-05
1.3593e-05
1.3524e-05
1.34509e-05
1.33733e-05
1.32907e-05
1.32025e-05
1.31083e-05
1.30075e-05
1.28996e-05
1.27839e-05
1.26599e-05
1.3194e-05
1.44697e-05
1.74657e-05
1.77056e-05
1.79308e-05
1.81416e-05
1.83386e-05
1.85222e-05
1.8693e-05
1.88515e-05
1.89985e-05
1.91346e-05
1.92607e-05
1.93776e-05
1.94861e-05
1.9587e-05
1.96811e-05
1.97692e-05
1.9852e-05
1.99301e-05
2.00041e-05
2.00747e-05
2.01423e-05
2.02074e-05
2.02702e-05
2.03305e-05
2.0388e-05
2.04417e-05
2.04911e-05
2.05363e-05
2.05867e-05
2.07061e-05
2.07271e-05
2.07463e-05
2.07714e-05
2.08023e-05
2.08382e-05
2.08776e-05
2.09184e-05
2.09576e-05
2.09923e-05
2.10206e-05
2.10424e-05
2.10598e-05
2.10757e-05
2.10929e-05
2.11135e-05
2.11387e-05
2.11691e-05
2.12049e-05
2.12449e-05
2.12859e-05
2.13218e-05
2.13456e-05
2.13524e-05
2.13435e-05
2.13239e-05
2.12995e-05
2.12732e-05
2.12445e-05
2.12109e-05
2.11726e-05
2.11376e-05
2.11358e-05
2.12496e-05
2.16321e-05
2.21834e-05
2.20381e-05
2.14317e-05
2.108e-05
2.09426e-05
2.07888e-05
2.07274e-05
2.06751e-05
2.06194e-05
2.05596e-05
2.04963e-05
2.04296e-05
2.03597e-05
2.02865e-05
2.02098e-05
2.01293e-05
2.00447e-05
1.99555e-05
1.98613e-05
1.97616e-05
1.9656e-05
1.95439e-05
1.94247e-05
1.92979e-05
1.91628e-05
1.90188e-05
1.88653e-05
1.87015e-05
1.85268e-05
1.83405e-05
1.81418e-05
1.79301e-05
1.77047e-05
1.7465e-05
1.84948e-05
1.44702e-05
1.74661e-05
1.7706e-05
1.79311e-05
1.8142e-05
1.8339e-05
1.85226e-05
1.86933e-05
1.88519e-05
1.89988e-05
1.91349e-05
1.9261e-05
1.93779e-05
1.94863e-05
1.95872e-05
1.96814e-05
1.97695e-05
1.98522e-05
1.99303e-05
2.00043e-05
2.00749e-05
2.01425e-05
2.02076e-05
2.02704e-05
2.03308e-05
2.03882e-05
2.04419e-05
2.04913e-05
2.05365e-05
2.05869e-05
2.07062e-05
2.07272e-05
2.07464e-05
2.07715e-05
2.08024e-05
2.08382e-05
2.08776e-05
2.09182e-05
2.09573e-05
2.09919e-05
2.10201e-05
2.1042e-05
2.10594e-05
2.10754e-05
2.10926e-05
2.11132e-05
2.11383e-05
2.11686e-05
2.12042e-05
2.1244e-05
2.12848e-05
2.13205e-05
2.13442e-05
2.13514e-05
2.13429e-05
2.13239e-05
2.12998e-05
2.12737e-05
2.12449e-05
2.12115e-05
2.11734e-05
2.11392e-05
2.11392e-05
2.12551e-05
2.16288e-05
2.21452e-05
2.20188e-05
2.14474e-05
2.10957e-05
2.09518e-05
2.07945e-05
2.0731e-05
2.06775e-05
2.0621e-05
2.05608e-05
2.04971e-05
2.04302e-05
2.03602e-05
2.02869e-05
2.021e-05
2.01294e-05
2.00447e-05
1.99554e-05
1.98611e-05
1.97614e-05
1.96557e-05
1.95435e-05
1.94243e-05
1.92974e-05
1.91623e-05
1.90183e-05
1.88647e-05
1.87009e-05
1.85262e-05
1.83398e-05
1.81411e-05
1.79293e-05
1.77039e-05
1.74642e-05
1.84938e-05
1.44708e-05
1.74666e-05
1.77065e-05
1.79317e-05
1.81425e-05
1.83395e-05
1.85231e-05
1.86938e-05
1.88523e-05
1.89993e-05
1.91354e-05
1.92614e-05
1.93783e-05
1.94867e-05
1.95876e-05
1.96817e-05
1.97698e-05
1.98525e-05
1.99306e-05
2.00046e-05
2.00752e-05
2.01428e-05
2.02079e-05
2.02707e-05
2.03311e-05
2.03885e-05
2.04422e-05
2.04915e-05
2.05368e-05
2.05871e-05
2.07065e-05
2.07274e-05
2.07466e-05
2.07718e-05
2.08026e-05
2.08384e-05
2.08776e-05
2.09182e-05
2.09571e-05
2.09916e-05
2.10198e-05
2.10417e-05
2.10591e-05
2.10751e-05
2.10924e-05
2.1113e-05
2.11381e-05
2.11684e-05
2.12038e-05
2.12433e-05
2.12837e-05
2.13191e-05
2.13427e-05
2.13501e-05
2.13421e-05
2.13236e-05
2.12999e-05
2.1274e-05
2.12455e-05
2.12124e-05
2.11751e-05
2.11423e-05
2.11452e-05
2.12636e-05
2.16256e-05
2.21035e-05
2.19939e-05
2.14599e-05
2.1111e-05
2.09615e-05
2.08007e-05
2.07351e-05
2.06802e-05
2.06229e-05
2.05622e-05
2.04982e-05
2.0431e-05
2.03607e-05
2.02872e-05
2.02102e-05
2.01295e-05
2.00446e-05
1.99552e-05
1.98609e-05
1.9761e-05
1.96553e-05
1.9543e-05
1.94237e-05
1.92967e-05
1.91616e-05
1.90175e-05
1.88639e-05
1.87e-05
1.85253e-05
1.83388e-05
1.81401e-05
1.79283e-05
1.77029e-05
1.74631e-05
1.84925e-05
1.44717e-05
1.74674e-05
1.77072e-05
1.79324e-05
1.81432e-05
1.83402e-05
1.85237e-05
1.86945e-05
1.8853e-05
1.89999e-05
1.9136e-05
1.9262e-05
1.93788e-05
1.94872e-05
1.95881e-05
1.96821e-05
1.97702e-05
1.98529e-05
1.9931e-05
2.0005e-05
2.00756e-05
2.01432e-05
2.02083e-05
2.02711e-05
2.03315e-05
2.03889e-05
2.04425e-05
2.04919e-05
2.05371e-05
2.05874e-05
2.07067e-05
2.07277e-05
2.07469e-05
2.07721e-05
2.08029e-05
2.08387e-05
2.08779e-05
2.09183e-05
2.09571e-05
2.09914e-05
2.10195e-05
2.10414e-05
2.1059e-05
2.10751e-05
2.10924e-05
2.11131e-05
2.11381e-05
2.11683e-05
2.12035e-05
2.12428e-05
2.12827e-05
2.13177e-05
2.13411e-05
2.13486e-05
2.13411e-05
2.13231e-05
2.12999e-05
2.12743e-05
2.12461e-05
2.12136e-05
2.11773e-05
2.11465e-05
2.11527e-05
2.12735e-05
2.16223e-05
2.20615e-05
2.19654e-05
2.14689e-05
2.11256e-05
2.09713e-05
2.08072e-05
2.07394e-05
2.06832e-05
2.06251e-05
2.05638e-05
2.04993e-05
2.04318e-05
2.03613e-05
2.02876e-05
2.02104e-05
2.01295e-05
2.00445e-05
1.9955e-05
1.98605e-05
1.97606e-05
1.96547e-05
1.95423e-05
1.94229e-05
1.92959e-05
1.91607e-05
1.90165e-05
1.88628e-05
1.86989e-05
1.85241e-05
1.83376e-05
1.81388e-05
1.7927e-05
1.77016e-05
1.74617e-05
1.84909e-05
1.44728e-05
1.74682e-05
1.77081e-05
1.79332e-05
1.8144e-05
1.8341e-05
1.85245e-05
1.86952e-05
1.88537e-05
1.90006e-05
1.91367e-05
1.92627e-05
1.93795e-05
1.94878e-05
1.95886e-05
1.96827e-05
1.97707e-05
1.98534e-05
1.99314e-05
2.00054e-05
2.0076e-05
2.01436e-05
2.02088e-05
2.02716e-05
2.03319e-05
2.03893e-05
2.0443e-05
2.04923e-05
2.05375e-05
2.05878e-05
2.07071e-05
2.07281e-05
2.07473e-05
2.07725e-05
2.08033e-05
2.08391e-05
2.08782e-05
2.09185e-05
2.09571e-05
2.09914e-05
2.10194e-05
2.10413e-05
2.10589e-05
2.10751e-05
2.10925e-05
2.11132e-05
2.11383e-05
2.11684e-05
2.12034e-05
2.12423e-05
2.12818e-05
2.13163e-05
2.13394e-05
2.13471e-05
2.134e-05
2.13226e-05
2.12999e-05
2.12747e-05
2.12469e-05
2.12151e-05
2.11801e-05
2.11515e-05
2.11611e-05
2.12838e-05
2.16183e-05
2.2021e-05
2.19358e-05
2.14747e-05
2.11389e-05
2.09808e-05
2.08136e-05
2.07437e-05
2.06863e-05
2.06273e-05
2.05654e-05
2.05005e-05
2.04327e-05
2.03618e-05
2.02879e-05
2.02105e-05
2.01295e-05
2.00443e-05
1.99546e-05
1.986e-05
1.97599e-05
1.96539e-05
1.95415e-05
1.9422e-05
1.92949e-05
1.91595e-05
1.90153e-05
1.88615e-05
1.86976e-05
1.85227e-05
1.83361e-05
1.81373e-05
1.79254e-05
1.76999e-05
1.746e-05
1.84889e-05
1.44741e-05
1.74693e-05
1.77091e-05
1.79342e-05
1.8145e-05
1.8342e-05
1.85255e-05
1.86962e-05
1.88546e-05
1.90015e-05
1.91375e-05
1.92635e-05
1.93803e-05
1.94886e-05
1.95894e-05
1.96833e-05
1.97713e-05
1.9854e-05
1.9932e-05
2.0006e-05
2.00765e-05
2.01442e-05
2.02093e-05
2.02721e-05
2.03325e-05
2.03898e-05
2.04435e-05
2.04928e-05
2.0538e-05
2.05883e-05
2.07075e-05
2.07285e-05
2.07478e-05
2.0773e-05
2.08039e-05
2.08396e-05
2.08787e-05
2.09188e-05
2.09573e-05
2.09914e-05
2.10193e-05
2.10412e-05
2.10589e-05
2.10752e-05
2.10928e-05
2.11135e-05
2.11386e-05
2.11686e-05
2.12035e-05
2.1242e-05
2.12809e-05
2.13149e-05
2.13377e-05
2.13455e-05
2.13388e-05
2.1322e-05
2.12998e-05
2.1275e-05
2.12478e-05
2.12168e-05
2.11832e-05
2.1157e-05
2.11699e-05
2.12937e-05
2.16136e-05
2.19827e-05
2.19064e-05
2.1478e-05
2.11508e-05
2.09899e-05
2.08198e-05
2.07481e-05
2.06894e-05
2.06295e-05
2.0567e-05
2.05017e-05
2.04335e-05
2.03624e-05
2.02882e-05
2.02106e-05
2.01293e-05
2.0044e-05
1.99541e-05
1.98593e-05
1.97591e-05
1.9653e-05
1.95404e-05
1.94208e-05
1.92936e-05
1.91581e-05
1.90138e-05
1.886e-05
1.86959e-05
1.85209e-05
1.83343e-05
1.81354e-05
1.79235e-05
1.76979e-05
1.7458e-05
1.84864e-05
1.44756e-05
1.74706e-05
1.77103e-05
1.79354e-05
1.81462e-05
1.83431e-05
1.85266e-05
1.86973e-05
1.88557e-05
1.90025e-05
1.91385e-05
1.92645e-05
1.93812e-05
1.94895e-05
1.95902e-05
1.96841e-05
1.97721e-05
1.98547e-05
1.99327e-05
2.00066e-05
2.00772e-05
2.01448e-05
2.02099e-05
2.02727e-05
2.03331e-05
2.03904e-05
2.0444e-05
2.04933e-05
2.05385e-05
2.05888e-05
2.0708e-05
2.07291e-05
2.07484e-05
2.07737e-05
2.08045e-05
2.08402e-05
2.08792e-05
2.09193e-05
2.09576e-05
2.09915e-05
2.10194e-05
2.10413e-05
2.10591e-05
2.10755e-05
2.10932e-05
2.1114e-05
2.11391e-05
2.1169e-05
2.12036e-05
2.12417e-05
2.12801e-05
2.13135e-05
2.1336e-05
2.13438e-05
2.13376e-05
2.13213e-05
2.12997e-05
2.12755e-05
2.12488e-05
2.12187e-05
2.11867e-05
2.11628e-05
2.11787e-05
2.1303e-05
2.16081e-05
2.19468e-05
2.1878e-05
2.14793e-05
2.11612e-05
2.09984e-05
2.08257e-05
2.07522e-05
2.06924e-05
2.06317e-05
2.05686e-05
2.05028e-05
2.04342e-05
2.03628e-05
2.02883e-05
2.02105e-05
2.0129e-05
2.00435e-05
1.99535e-05
1.98585e-05
1.97582e-05
1.96519e-05
1.95391e-05
1.94194e-05
1.9292e-05
1.91565e-05
1.9012e-05
1.88581e-05
1.86939e-05
1.85189e-05
1.83322e-05
1.81332e-05
1.79212e-05
1.76955e-05
1.74555e-05
1.84836e-05
1.44773e-05
1.7472e-05
1.77117e-05
1.79368e-05
1.81475e-05
1.83444e-05
1.85279e-05
1.86985e-05
1.88569e-05
1.90037e-05
1.91397e-05
1.92656e-05
1.93822e-05
1.94905e-05
1.95911e-05
1.9685e-05
1.97729e-05
1.98555e-05
1.99334e-05
2.00074e-05
2.00779e-05
2.01455e-05
2.02106e-05
2.02734e-05
2.03337e-05
2.03911e-05
2.04447e-05
2.0494e-05
2.05392e-05
2.05894e-05
2.07086e-05
2.07297e-05
2.07491e-05
2.07744e-05
2.08053e-05
2.0841e-05
2.08799e-05
2.09198e-05
2.0958e-05
2.09918e-05
2.10196e-05
2.10415e-05
2.10594e-05
2.10759e-05
2.10937e-05
2.11145e-05
2.11396e-05
2.11694e-05
2.12038e-05
2.12416e-05
2.12794e-05
2.13123e-05
2.13344e-05
2.13423e-05
2.13364e-05
2.13207e-05
2.12996e-05
2.1276e-05
2.12499e-05
2.12208e-05
2.11903e-05
2.11687e-05
2.11873e-05
2.13114e-05
2.16021e-05
2.19134e-05
2.18508e-05
2.14792e-05
2.11705e-05
2.10063e-05
2.08313e-05
2.07562e-05
2.06952e-05
2.06337e-05
2.05701e-05
2.05038e-05
2.04349e-05
2.03632e-05
2.02884e-05
2.02104e-05
2.01286e-05
2.00429e-05
1.99527e-05
1.98575e-05
1.9757e-05
1.96505e-05
1.95376e-05
1.94177e-05
1.92903e-05
1.91546e-05
1.901e-05
1.88559e-05
1.86917e-05
1.85165e-05
1.83297e-05
1.81306e-05
1.79185e-05
1.76928e-05
1.74527e-05
1.84803e-05
1.44792e-05
1.74736e-05
1.77133e-05
1.79383e-05
1.8149e-05
1.83459e-05
1.85293e-05
1.86999e-05
1.88583e-05
1.9005e-05
1.9141e-05
1.92668e-05
1.93834e-05
1.94916e-05
1.95922e-05
1.9686e-05
1.97739e-05
1.98564e-05
1.99343e-05
2.00082e-05
2.00787e-05
2.01463e-05
2.02114e-05
2.02742e-05
2.03345e-05
2.03918e-05
2.04454e-05
2.04947e-05
2.05399e-05
2.05902e-05
2.07092e-05
2.07304e-05
2.07498e-05
2.07752e-05
2.08061e-05
2.08418e-05
2.08807e-05
2.09205e-05
2.09585e-05
2.09922e-05
2.10199e-05
2.10418e-05
2.10598e-05
2.10764e-05
2.10943e-05
2.11152e-05
2.11403e-05
2.117e-05
2.12042e-05
2.12415e-05
2.12788e-05
2.13111e-05
2.13329e-05
2.13408e-05
2.13353e-05
2.13201e-05
2.12996e-05
2.12765e-05
2.12512e-05
2.1223e-05
2.1194e-05
2.11745e-05
2.11956e-05
2.13189e-05
2.15958e-05
2.18823e-05
2.1825e-05
2.1478e-05
2.11786e-05
2.10136e-05
2.08364e-05
2.07598e-05
2.06978e-05
2.06356e-05
2.05714e-05
2.05047e-05
2.04354e-05
2.03634e-05
2.02883e-05
2.021e-05
2.01281e-05
2.00421e-05
1.99517e-05
1.98563e-05
1.97556e-05
1.9649e-05
1.95359e-05
1.94158e-05
1.92882e-05
1.91523e-05
1.90076e-05
1.88534e-05
1.8689e-05
1.85137e-05
1.83268e-05
1.81276e-05
1.79154e-05
1.76896e-05
1.74495e-05
1.84764e-05
1.44813e-05
1.74753e-05
1.7715e-05
1.794e-05
1.81507e-05
1.83475e-05
1.85309e-05
1.87014e-05
1.88598e-05
1.90065e-05
1.91424e-05
1.92682e-05
1.93847e-05
1.94928e-05
1.95934e-05
1.96871e-05
1.97749e-05
1.98574e-05
1.99353e-05
2.00091e-05
2.00796e-05
2.01472e-05
2.02122e-05
2.0275e-05
2.03353e-05
2.03927e-05
2.04462e-05
2.04955e-05
2.05407e-05
2.05909e-05
2.071e-05
2.07312e-05
2.07507e-05
2.07761e-05
2.08071e-05
2.08428e-05
2.08816e-05
2.09213e-05
2.09592e-05
2.09927e-05
2.10203e-05
2.10423e-05
2.10603e-05
2.1077e-05
2.1095e-05
2.1116e-05
2.11411e-05
2.11707e-05
2.12046e-05
2.12415e-05
2.12783e-05
2.131e-05
2.13314e-05
2.13393e-05
2.13342e-05
2.13196e-05
2.12997e-05
2.12772e-05
2.12525e-05
2.12253e-05
2.11977e-05
2.11803e-05
2.12036e-05
2.13257e-05
2.15892e-05
2.18535e-05
2.18006e-05
2.14759e-05
2.11858e-05
2.10205e-05
2.08412e-05
2.07632e-05
2.07002e-05
2.06374e-05
2.05726e-05
2.05055e-05
2.04358e-05
2.03634e-05
2.02881e-05
2.02095e-05
2.01273e-05
2.00411e-05
1.99504e-05
1.98549e-05
1.9754e-05
1.96471e-05
1.95339e-05
1.94136e-05
1.92858e-05
1.91498e-05
1.9005e-05
1.88506e-05
1.86861e-05
1.85106e-05
1.83236e-05
1.81243e-05
1.7912e-05
1.7686e-05
1.74458e-05
1.84721e-05
1.44837e-05
1.74773e-05
1.77169e-05
1.79419e-05
1.81525e-05
1.83492e-05
1.85326e-05
1.87031e-05
1.88614e-05
1.90081e-05
1.91439e-05
1.92696e-05
1.93861e-05
1.94942e-05
1.95947e-05
1.96884e-05
1.97761e-05
1.98585e-05
1.99363e-05
2.00101e-05
2.00806e-05
2.01481e-05
2.02132e-05
2.0276e-05
2.03363e-05
2.03936e-05
2.04471e-05
2.04964e-05
2.05415e-05
2.05918e-05
2.07108e-05
2.0732e-05
2.07516e-05
2.07771e-05
2.08081e-05
2.08438e-05
2.08826e-05
2.09222e-05
2.09599e-05
2.09933e-05
2.10208e-05
2.10428e-05
2.10609e-05
2.10778e-05
2.10958e-05
2.11169e-05
2.1142e-05
2.11715e-05
2.12051e-05
2.12416e-05
2.12778e-05
2.1309e-05
2.13301e-05
2.1338e-05
2.13332e-05
2.13191e-05
2.12998e-05
2.12779e-05
2.12539e-05
2.12276e-05
2.12014e-05
2.1186e-05
2.1211e-05
2.13317e-05
2.15825e-05
2.18268e-05
2.17777e-05
2.14731e-05
2.11922e-05
2.10268e-05
2.08456e-05
2.07664e-05
2.07025e-05
2.06389e-05
2.05736e-05
2.05061e-05
2.0436e-05
2.03633e-05
2.02877e-05
2.02089e-05
2.01264e-05
2.00399e-05
1.9949e-05
1.98532e-05
1.97521e-05
1.96451e-05
1.95316e-05
1.94112e-05
1.92832e-05
1.9147e-05
1.9002e-05
1.88474e-05
1.86827e-05
1.85072e-05
1.832e-05
1.81205e-05
1.79081e-05
1.7682e-05
1.74417e-05
1.84673e-05
1.44862e-05
1.74794e-05
1.7719e-05
1.79439e-05
1.81545e-05
1.83512e-05
1.85345e-05
1.8705e-05
1.88632e-05
1.90098e-05
1.91456e-05
1.92713e-05
1.93877e-05
1.94957e-05
1.95961e-05
1.96897e-05
1.97774e-05
1.98597e-05
1.99375e-05
2.00113e-05
2.00817e-05
2.01492e-05
2.02143e-05
2.0277e-05
2.03373e-05
2.03946e-05
2.04481e-05
2.04974e-05
2.05425e-05
2.05928e-05
2.07116e-05
2.07329e-05
2.07526e-05
2.07781e-05
2.08092e-05
2.08449e-05
2.08837e-05
2.09231e-05
2.09607e-05
2.0994e-05
2.10215e-05
2.10435e-05
2.10617e-05
2.10786e-05
2.10968e-05
2.11179e-05
2.11429e-05
2.11723e-05
2.12058e-05
2.12418e-05
2.12775e-05
2.13081e-05
2.13289e-05
2.13368e-05
2.13323e-05
2.13188e-05
2.13e-05
2.12787e-05
2.12553e-05
2.123e-05
2.12051e-05
2.11914e-05
2.12181e-05
2.13369e-05
2.15757e-05
2.18021e-05
2.17562e-05
2.14699e-05
2.11978e-05
2.10326e-05
2.08498e-05
2.07692e-05
2.07044e-05
2.06402e-05
2.05745e-05
2.05065e-05
2.04361e-05
2.03631e-05
2.02871e-05
2.0208e-05
2.01252e-05
2.00385e-05
1.99474e-05
1.98513e-05
1.97499e-05
1.96427e-05
1.9529e-05
1.94084e-05
1.92802e-05
1.91438e-05
1.89986e-05
1.88439e-05
1.8679e-05
1.85033e-05
1.83159e-05
1.81163e-05
1.79038e-05
1.76776e-05
1.74371e-05
1.84619e-05
1.4489e-05
1.74817e-05
1.77212e-05
1.79461e-05
1.81566e-05
1.83533e-05
1.85365e-05
1.8707e-05
1.88651e-05
1.90117e-05
1.91474e-05
1.9273e-05
1.93894e-05
1.94973e-05
1.95976e-05
1.96912e-05
1.97788e-05
1.98611e-05
1.99388e-05
2.00125e-05
2.00829e-05
2.01504e-05
2.02154e-05
2.02781e-05
2.03384e-05
2.03957e-05
2.04492e-05
2.04984e-05
2.05435e-05
2.05938e-05
2.07126e-05
2.07339e-05
2.07537e-05
2.07793e-05
2.08105e-05
2.08462e-05
2.08848e-05
2.09242e-05
2.09617e-05
2.09948e-05
2.10222e-05
2.10442e-05
2.10625e-05
2.10796e-05
2.10978e-05
2.1119e-05
2.1144e-05
2.11733e-05
2.12065e-05
2.12421e-05
2.12773e-05
2.13074e-05
2.13278e-05
2.13357e-05
2.13316e-05
2.13185e-05
2.13003e-05
2.12795e-05
2.12568e-05
2.12324e-05
2.12087e-05
2.11967e-05
2.12247e-05
2.13415e-05
2.15689e-05
2.17792e-05
2.17362e-05
2.14664e-05
2.12029e-05
2.10381e-05
2.08536e-05
2.07718e-05
2.07062e-05
2.06414e-05
2.05751e-05
2.05067e-05
2.0436e-05
2.03626e-05
2.02864e-05
2.02069e-05
2.01239e-05
2.00369e-05
1.99455e-05
1.98492e-05
1.97475e-05
1.964e-05
1.95261e-05
1.94053e-05
1.92768e-05
1.91402e-05
1.89948e-05
1.88399e-05
1.86749e-05
1.8499e-05
1.83115e-05
1.81117e-05
1.7899e-05
1.76726e-05
1.74321e-05
1.84559e-05
1.4492e-05
1.74842e-05
1.77237e-05
1.79485e-05
1.8159e-05
1.83555e-05
1.85388e-05
1.87091e-05
1.88672e-05
1.90137e-05
1.91494e-05
1.92749e-05
1.93912e-05
1.9499e-05
1.95993e-05
1.96928e-05
1.97803e-05
1.98625e-05
1.99401e-05
2.00138e-05
2.00841e-05
2.01516e-05
2.02166e-05
2.02793e-05
2.03396e-05
2.03968e-05
2.04503e-05
2.04995e-05
2.05446e-05
2.05949e-05
2.07136e-05
2.0735e-05
2.07548e-05
2.07805e-05
2.08117e-05
2.08475e-05
2.08861e-05
2.09254e-05
2.09627e-05
2.09957e-05
2.10231e-05
2.10451e-05
2.10635e-05
2.10806e-05
2.1099e-05
2.11202e-05
2.11452e-05
2.11744e-05
2.12073e-05
2.12425e-05
2.12771e-05
2.13068e-05
2.13269e-05
2.13348e-05
2.13309e-05
2.13183e-05
2.13007e-05
2.12804e-05
2.12584e-05
2.12348e-05
2.12123e-05
2.12018e-05
2.1231e-05
2.13455e-05
2.1562e-05
2.17579e-05
2.17174e-05
2.14628e-05
2.12074e-05
2.10432e-05
2.08571e-05
2.07742e-05
2.07078e-05
2.06423e-05
2.05756e-05
2.05068e-05
2.04357e-05
2.0362e-05
2.02854e-05
2.02056e-05
2.01223e-05
2.0035e-05
1.99433e-05
1.98467e-05
1.97448e-05
1.96371e-05
1.95229e-05
1.94018e-05
1.92731e-05
1.91363e-05
1.89907e-05
1.88356e-05
1.86703e-05
1.84942e-05
1.83065e-05
1.81066e-05
1.78937e-05
1.76672e-05
1.74265e-05
1.84494e-05
1.44952e-05
1.74868e-05
1.77263e-05
1.7951e-05
1.81614e-05
1.8358e-05
1.85411e-05
1.87114e-05
1.88695e-05
1.90159e-05
1.91515e-05
1.92769e-05
1.93931e-05
1.95009e-05
1.96011e-05
1.96945e-05
1.97819e-05
1.9864e-05
1.99416e-05
2.00152e-05
2.00855e-05
2.01529e-05
2.02179e-05
2.02806e-05
2.03409e-05
2.03981e-05
2.04516e-05
2.05007e-05
2.05458e-05
2.05961e-05
2.07147e-05
2.07362e-05
2.07561e-05
2.07818e-05
2.08131e-05
2.08489e-05
2.08875e-05
2.09266e-05
2.09638e-05
2.09967e-05
2.10241e-05
2.10461e-05
2.10645e-05
2.10818e-05
2.11003e-05
2.11215e-05
2.11465e-05
2.11755e-05
2.12082e-05
2.1243e-05
2.12772e-05
2.13063e-05
2.13261e-05
2.1334e-05
2.13304e-05
2.13183e-05
2.13011e-05
2.12814e-05
2.126e-05
2.12372e-05
2.12158e-05
2.12067e-05
2.12369e-05
2.1349e-05
2.15553e-05
2.1738e-05
2.16999e-05
2.1459e-05
2.12114e-05
2.10481e-05
2.08604e-05
2.07764e-05
2.07092e-05
2.06431e-05
2.05759e-05
2.05067e-05
2.04352e-05
2.03611e-05
2.02842e-05
2.02041e-05
2.01205e-05
2.00329e-05
1.99409e-05
1.9844e-05
1.97418e-05
1.96338e-05
1.95194e-05
1.9398e-05
1.92691e-05
1.9132e-05
1.89861e-05
1.88308e-05
1.86653e-05
1.8489e-05
1.83011e-05
1.8101e-05
1.78879e-05
1.76613e-05
1.74204e-05
1.84422e-05
1.44986e-05
1.74897e-05
1.77291e-05
1.79537e-05
1.81641e-05
1.83606e-05
1.85436e-05
1.87139e-05
1.88718e-05
1.90182e-05
1.91537e-05
1.92791e-05
1.93952e-05
1.95029e-05
1.9603e-05
1.96963e-05
1.97836e-05
1.98657e-05
1.99432e-05
2.00168e-05
2.0087e-05
2.01544e-05
2.02193e-05
2.0282e-05
2.03422e-05
2.03994e-05
2.04529e-05
2.0502e-05
2.05471e-05
2.05974e-05
2.07158e-05
2.07374e-05
2.07574e-05
2.07832e-05
2.08146e-05
2.08503e-05
2.08889e-05
2.0928e-05
2.09651e-05
2.09979e-05
2.10251e-05
2.10472e-05
2.10657e-05
2.10831e-05
2.11016e-05
2.11229e-05
2.11479e-05
2.11768e-05
2.12092e-05
2.12436e-05
2.12773e-05
2.1306e-05
2.13255e-05
2.13334e-05
2.13301e-05
2.13183e-05
2.13017e-05
2.12825e-05
2.12617e-05
2.12396e-05
2.12193e-05
2.12115e-05
2.12424e-05
2.1352e-05
2.15486e-05
2.17195e-05
2.16835e-05
2.14552e-05
2.12151e-05
2.10526e-05
2.08635e-05
2.07784e-05
2.07104e-05
2.06438e-05
2.0576e-05
2.05064e-05
2.04345e-05
2.03601e-05
2.02828e-05
2.02024e-05
2.01184e-05
2.00305e-05
1.99382e-05
1.9841e-05
1.97385e-05
1.96302e-05
1.95155e-05
1.93938e-05
1.92646e-05
1.91273e-05
1.89811e-05
1.88256e-05
1.86598e-05
1.84833e-05
1.82952e-05
1.80948e-05
1.78816e-05
1.76548e-05
1.74138e-05
1.84344e-05
1.45022e-05
1.74927e-05
1.7732e-05
1.79566e-05
1.81669e-05
1.83633e-05
1.85463e-05
1.87165e-05
1.88744e-05
1.90207e-05
1.91561e-05
1.92814e-05
1.93974e-05
1.9505e-05
1.9605e-05
1.96982e-05
1.97854e-05
1.98674e-05
1.99449e-05
2.00184e-05
2.00885e-05
2.01559e-05
2.02208e-05
2.02835e-05
2.03437e-05
2.04009e-05
2.04543e-05
2.05034e-05
2.05485e-05
2.05987e-05
2.0717e-05
2.07387e-05
2.07588e-05
2.07847e-05
2.08161e-05
2.08519e-05
2.08904e-05
2.09295e-05
2.09664e-05
2.09991e-05
2.10263e-05
2.10484e-05
2.1067e-05
2.10845e-05
2.11031e-05
2.11244e-05
2.11494e-05
2.11782e-05
2.12103e-05
2.12444e-05
2.12775e-05
2.13058e-05
2.1325e-05
2.13329e-05
2.13298e-05
2.13185e-05
2.13024e-05
2.12837e-05
2.12634e-05
2.12421e-05
2.12228e-05
2.12162e-05
2.12477e-05
2.13547e-05
2.15422e-05
2.17022e-05
2.16681e-05
2.14514e-05
2.12185e-05
2.1057e-05
2.08664e-05
2.07803e-05
2.07114e-05
2.06442e-05
2.0576e-05
2.05059e-05
2.04336e-05
2.03588e-05
2.02812e-05
2.02004e-05
2.01161e-05
2.00278e-05
1.99352e-05
1.98377e-05
1.97349e-05
1.96262e-05
1.95112e-05
1.93893e-05
1.92598e-05
1.91221e-05
1.89757e-05
1.88199e-05
1.86539e-05
1.84771e-05
1.82888e-05
1.80882e-05
1.78747e-05
1.76478e-05
1.74066e-05
1.84259e-05
1.45061e-05
1.74959e-05
1.77351e-05
1.79597e-05
1.81699e-05
1.83662e-05
1.85491e-05
1.87192e-05
1.8877e-05
1.90232e-05
1.91586e-05
1.92838e-05
1.93997e-05
1.95072e-05
1.96071e-05
1.97002e-05
1.97874e-05
1.98693e-05
1.99466e-05
2.00201e-05
2.00902e-05
2.01575e-05
2.02224e-05
2.0285e-05
2.03452e-05
2.04024e-05
2.04557e-05
2.05049e-05
2.05499e-05
2.06002e-05
2.07183e-05
2.074e-05
2.07602e-05
2.07862e-05
2.08177e-05
2.08535e-05
2.08921e-05
2.0931e-05
2.09678e-05
2.10004e-05
2.10276e-05
2.10497e-05
2.10684e-05
2.1086e-05
2.11047e-05
2.11261e-05
2.1151e-05
2.11796e-05
2.12115e-05
2.12452e-05
2.12779e-05
2.13057e-05
2.13247e-05
2.13326e-05
2.13297e-05
2.13189e-05
2.13031e-05
2.12849e-05
2.12652e-05
2.12446e-05
2.12262e-05
2.12207e-05
2.12527e-05
2.13571e-05
2.15359e-05
2.16861e-05
2.16537e-05
2.14476e-05
2.12216e-05
2.10612e-05
2.08692e-05
2.0782e-05
2.07124e-05
2.06445e-05
2.05758e-05
2.05053e-05
2.04326e-05
2.03574e-05
2.02794e-05
2.01983e-05
2.01136e-05
2.00249e-05
1.99319e-05
1.98341e-05
1.9731e-05
1.9622e-05
1.95066e-05
1.93843e-05
1.92545e-05
1.91166e-05
1.89699e-05
1.88138e-05
1.86475e-05
1.84704e-05
1.82818e-05
1.8081e-05
1.78674e-05
1.76402e-05
1.73988e-05
1.84167e-05
1.45101e-05
1.74992e-05
1.77384e-05
1.79629e-05
1.8173e-05
1.83693e-05
1.85521e-05
1.87221e-05
1.88798e-05
1.9026e-05
1.91612e-05
1.92863e-05
1.94022e-05
1.95095e-05
1.96093e-05
1.97024e-05
1.97894e-05
1.98712e-05
1.99485e-05
2.00219e-05
2.0092e-05
2.01592e-05
2.02241e-05
2.02867e-05
2.03468e-05
2.04039e-05
2.04573e-05
2.05064e-05
2.05514e-05
2.06017e-05
2.07196e-05
2.07415e-05
2.07617e-05
2.07879e-05
2.08194e-05
2.08553e-05
2.08937e-05
2.09326e-05
2.09694e-05
2.10019e-05
2.1029e-05
2.10511e-05
2.10699e-05
2.10876e-05
2.11064e-05
2.11278e-05
2.11527e-05
2.11812e-05
2.12129e-05
2.12462e-05
2.12785e-05
2.13058e-05
2.13245e-05
2.13324e-05
2.13298e-05
2.13193e-05
2.13041e-05
2.12863e-05
2.12671e-05
2.12471e-05
2.12296e-05
2.12252e-05
2.12575e-05
2.13592e-05
2.15299e-05
2.1671e-05
2.16401e-05
2.14439e-05
2.12245e-05
2.10652e-05
2.08719e-05
2.07836e-05
2.07132e-05
2.06447e-05
2.05755e-05
2.05046e-05
2.04314e-05
2.03558e-05
2.02774e-05
2.01959e-05
2.01108e-05
2.00218e-05
1.99284e-05
1.98302e-05
1.97267e-05
1.96174e-05
1.95016e-05
1.9379e-05
1.92489e-05
1.91106e-05
1.89636e-05
1.88072e-05
1.86406e-05
1.84632e-05
1.82744e-05
1.80733e-05
1.78594e-05
1.7632e-05
1.73904e-05
1.84069e-05
1.45143e-05
1.75027e-05
1.77418e-05
1.79662e-05
1.81763e-05
1.83725e-05
1.85552e-05
1.87251e-05
1.88828e-05
1.90288e-05
1.9164e-05
1.9289e-05
1.94047e-05
1.9512e-05
1.96117e-05
1.97046e-05
1.97916e-05
1.98733e-05
1.99505e-05
2.00238e-05
2.00938e-05
2.0161e-05
2.02258e-05
2.02884e-05
2.03485e-05
2.04056e-05
2.04589e-05
2.0508e-05
2.0553e-05
2.06032e-05
2.0721e-05
2.0743e-05
2.07633e-05
2.07895e-05
2.08212e-05
2.08571e-05
2.08955e-05
2.09343e-05
2.0971e-05
2.10034e-05
2.10305e-05
2.10526e-05
2.10715e-05
2.10893e-05
2.11081e-05
2.11296e-05
2.11545e-05
2.11829e-05
2.12143e-05
2.12473e-05
2.12791e-05
2.13061e-05
2.13246e-05
2.13324e-05
2.13301e-05
2.13199e-05
2.13051e-05
2.12878e-05
2.12691e-05
2.12497e-05
2.12331e-05
2.12296e-05
2.12622e-05
2.13612e-05
2.15241e-05
2.16569e-05
2.16274e-05
2.14404e-05
2.12273e-05
2.10691e-05
2.08744e-05
2.07852e-05
2.07139e-05
2.06448e-05
2.05751e-05
2.05036e-05
2.04301e-05
2.0354e-05
2.02752e-05
2.01932e-05
2.01078e-05
2.00184e-05
1.99246e-05
1.9826e-05
1.97221e-05
1.96124e-05
1.94963e-05
1.93733e-05
1.92428e-05
1.91042e-05
1.89568e-05
1.88001e-05
1.86332e-05
1.84555e-05
1.82664e-05
1.8065e-05
1.78508e-05
1.76232e-05
1.73815e-05
1.83963e-05
1.45188e-05
1.75064e-05
1.77454e-05
1.79698e-05
1.81797e-05
1.83758e-05
1.85585e-05
1.87283e-05
1.88859e-05
1.90318e-05
1.91669e-05
1.92918e-05
1.94074e-05
1.95146e-05
1.96142e-05
1.9707e-05
1.97938e-05
1.98755e-05
1.99526e-05
2.00258e-05
2.00957e-05
2.01629e-05
2.02277e-05
2.02902e-05
2.03503e-05
2.04073e-05
2.04606e-05
2.05097e-05
2.05547e-05
2.06049e-05
2.07225e-05
2.07445e-05
2.0765e-05
2.07913e-05
2.0823e-05
2.08589e-05
2.08974e-05
2.09361e-05
2.09727e-05
2.1005e-05
2.10321e-05
2.10543e-05
2.10732e-05
2.10911e-05
2.111e-05
2.11316e-05
2.11564e-05
2.11847e-05
2.12159e-05
2.12486e-05
2.128e-05
2.13065e-05
2.13248e-05
2.13326e-05
2.13305e-05
2.13207e-05
2.13063e-05
2.12894e-05
2.12711e-05
2.12524e-05
2.12366e-05
2.12339e-05
2.12667e-05
2.1363e-05
2.15186e-05
2.16438e-05
2.16156e-05
2.1437e-05
2.12299e-05
2.10729e-05
2.08769e-05
2.07866e-05
2.07145e-05
2.06448e-05
2.05745e-05
2.05026e-05
2.04285e-05
2.03521e-05
2.02728e-05
2.01904e-05
2.01045e-05
2.00147e-05
1.99205e-05
1.98215e-05
1.97172e-05
1.9607e-05
1.94906e-05
1.93672e-05
1.92363e-05
1.90973e-05
1.89496e-05
1.87925e-05
1.86252e-05
1.84473e-05
1.82578e-05
1.80562e-05
1.78417e-05
1.76138e-05
1.73718e-05
1.8385e-05
1.45234e-05
1.75102e-05
1.77492e-05
1.79734e-05
1.81833e-05
1.83793e-05
1.85619e-05
1.87316e-05
1.88891e-05
1.90349e-05
1.91699e-05
1.92947e-05
1.94102e-05
1.95173e-05
1.96167e-05
1.97095e-05
1.97962e-05
1.98777e-05
1.99547e-05
2.00279e-05
2.00978e-05
2.01649e-05
2.02296e-05
2.02921e-05
2.03521e-05
2.04092e-05
2.04624e-05
2.05114e-05
2.05564e-05
2.06066e-05
2.0724e-05
2.07461e-05
2.07667e-05
2.07931e-05
2.08249e-05
2.08609e-05
2.08993e-05
2.0938e-05
2.09745e-05
2.10067e-05
2.10338e-05
2.1056e-05
2.1075e-05
2.1093e-05
2.1112e-05
2.11336e-05
2.11584e-05
2.11866e-05
2.12176e-05
2.12499e-05
2.1281e-05
2.13072e-05
2.13251e-05
2.1333e-05
2.13311e-05
2.13216e-05
2.13076e-05
2.12911e-05
2.12733e-05
2.12552e-05
2.12401e-05
2.12382e-05
2.1271e-05
2.13648e-05
2.15134e-05
2.16315e-05
2.16044e-05
2.14337e-05
2.12324e-05
2.10766e-05
2.08793e-05
2.0788e-05
2.07151e-05
2.06447e-05
2.05739e-05
2.05014e-05
2.04269e-05
2.03499e-05
2.02702e-05
2.01873e-05
2.0101e-05
2.00107e-05
1.99161e-05
1.98166e-05
1.97119e-05
1.96013e-05
1.94844e-05
1.93606e-05
1.92294e-05
1.909e-05
1.89419e-05
1.87844e-05
1.86168e-05
1.84384e-05
1.82486e-05
1.80467e-05
1.78319e-05
1.76038e-05
1.73616e-05
1.83729e-05
1.45282e-05
1.75142e-05
1.77531e-05
1.79773e-05
1.81871e-05
1.83829e-05
1.85654e-05
1.87351e-05
1.88924e-05
1.90382e-05
1.9173e-05
1.92977e-05
1.94131e-05
1.95201e-05
1.96194e-05
1.9712e-05
1.97987e-05
1.98801e-05
1.9957e-05
2.00301e-05
2.00999e-05
2.0167e-05
2.02316e-05
2.02941e-05
2.03541e-05
2.04111e-05
2.04643e-05
2.05132e-05
2.05582e-05
2.06084e-05
2.07256e-05
2.07478e-05
2.07685e-05
2.0795e-05
2.08269e-05
2.08629e-05
2.09013e-05
2.094e-05
2.09763e-05
2.10085e-05
2.10356e-05
2.10578e-05
2.10769e-05
2.1095e-05
2.11142e-05
2.11358e-05
2.11606e-05
2.11887e-05
2.12195e-05
2.12515e-05
2.12821e-05
2.13079e-05
2.13257e-05
2.13336e-05
2.13318e-05
2.13227e-05
2.13091e-05
2.1293e-05
2.12757e-05
2.12581e-05
2.12437e-05
2.12425e-05
2.12753e-05
2.13665e-05
2.15085e-05
2.162e-05
2.1594e-05
2.14306e-05
2.12349e-05
2.10803e-05
2.08817e-05
2.07893e-05
2.07156e-05
2.06445e-05
2.05731e-05
2.05001e-05
2.04251e-05
2.03476e-05
2.02674e-05
2.01841e-05
2.00972e-05
2.00065e-05
1.99114e-05
1.98115e-05
1.97063e-05
1.95952e-05
1.94779e-05
1.93537e-05
1.92219e-05
1.90821e-05
1.89336e-05
1.87757e-05
1.86077e-05
1.8429e-05
1.82389e-05
1.80366e-05
1.78215e-05
1.75931e-05
1.73506e-05
1.836e-05
1.45332e-05
1.75184e-05
1.77572e-05
1.79812e-05
1.81909e-05
1.83867e-05
1.85691e-05
1.87387e-05
1.88959e-05
1.90415e-05
1.91763e-05
1.93009e-05
1.94162e-05
1.9523e-05
1.96222e-05
1.97147e-05
1.98012e-05
1.98825e-05
1.99594e-05
2.00324e-05
2.01021e-05
2.01691e-05
2.02337e-05
2.02961e-05
2.03561e-05
2.0413e-05
2.04662e-05
2.05151e-05
2.056e-05
2.06102e-05
2.07272e-05
2.07495e-05
2.07703e-05
2.07969e-05
2.08289e-05
2.0865e-05
2.09034e-05
2.0942e-05
2.09783e-05
2.10105e-05
2.10375e-05
2.10598e-05
2.10789e-05
2.10972e-05
2.11164e-05
2.11381e-05
2.11629e-05
2.11909e-05
2.12215e-05
2.12532e-05
2.12834e-05
2.13089e-05
2.13265e-05
2.13343e-05
2.13328e-05
2.1324e-05
2.13108e-05
2.12951e-05
2.12781e-05
2.1261e-05
2.12473e-05
2.12468e-05
2.12796e-05
2.13681e-05
2.15039e-05
2.16093e-05
2.15843e-05