/*--------------------------------*- C++ -*----------------------------------*\
  =========                 |
  \\      /  F ield         | OpenFOAM: The Open Source CFD Toolbox
   \\    /   O peration     | Website:  https://openfoam.org
    \\  /    A nd           | Version:  9
     \\/     M anipulation  |
\*---------------------------------------------------------------------------*/
FoamFile
{
    format      ascii;
    class       volVectorField;
    location    "0.16";
    object      U;
}
// * * * * * * * * * * * * * * * * * * * * * * * * * * * * * * * * * * * * * //

dimensions      [0 1 -1 0 0 0 0];

internalField   nonuniform List<vector> 
20000
(
(-1.05226e-05 0 0.000937252)
(-8.09258e-06 0 0.00195113)
(-7.1452e-06 0 0.00288318)
(-7.36135e-06 0 0.00399154)
(-7.40352e-06 0 0.00535513)
(-6.96198e-06 0 0.00702431)
(-5.97439e-06 0 0.00903558)
(-4.3784e-06 0 0.011405)
(-2.19811e-06 0 0.0141208)
(4.21637e-07 0 0.0171388)
(3.19521e-06 0 0.020382)
(5.72236e-06 0 0.023745)
(7.55816e-06 0 0.0271022)
(8.2909e-06 0 0.0303186)
(7.62696e-06 0 0.0332594)
(5.44463e-06 0 0.0357987)
(1.80843e-06 0 0.0378226)
(-3.03898e-06 0 0.0392295)
(-8.70978e-06 0 0.0399272)
(-1.47068e-05 0 0.0398296)
(-2.04391e-05 0 0.0388563)
(-2.52489e-05 0 0.0369424)
(-2.84927e-05 0 0.0340647)
(-2.97206e-05 0 0.0302895)
(-2.89252e-05 0 0.0258311)
(-2.66655e-05 0 0.0210798)
(-2.3808e-05 0 0.0165319)
(-2.09494e-05 0 0.0125825)
(-1.80409e-05 0 0.00926124)
(-1.45416e-05 0 0.00609477)
(-8.9718e-06 0 0.00186081)
(5.55828e-07 0 -0.00458318)
(1.63044e-05 0 -0.0135168)
(4.05557e-05 0 -0.0251848)
(7.4066e-05 0 -0.0394983)
(0.000115099 0 -0.0560983)
(0.000158078 0 -0.074311)
(0.000193828 0 -0.0930916)
(0.000212564 0 -0.111095)
(0.000209691 0 -0.126973)
(0.000190596 0 -0.139854)
(0.000169105 0 -0.149757)
(0.00015975 0 -0.157598)
(0.000170749 0 -0.164755)
(0.000203039 0 -0.172526)
(0.000253792 0 -0.181829)
(0.0003196 0 -0.193197)
(0.000396105 0 -0.206905)
(0.000473117 0 -0.222981)
(0.000527279 0 -0.240934)
(0.000520839 0 -0.25925)
(0.000418866 0 -0.275208)
(0.00022397 0 -0.285593)
(-6.26159e-06 0 -0.288389)
(-0.000194856 0 -0.284114)
(-0.000302156 0 -0.275198)
(-0.000341375 0 -0.264243)
(-0.000348756 0 -0.252516)
(-0.000345747 0 -0.23971)
(-0.000311914 0 -0.224766)
(-0.000177603 0 -0.207624)
(0.00023658 0 -0.191928)
(0.00133559 0 -0.191031)
(0.00418699 0 -0.241986)
(0.00921961 0 -0.413846)
(0.00421905 0 -0.660322)
(-0.0085365 0 -0.586638)
(-0.00810037 0 -0.310197)
(-0.0031239 0 -0.156582)
(-0.00113196 0 -0.102313)
(-0.000502847 0 -0.0856061)
(-0.000284724 0 -0.0790187)
(-0.000192608 0 -0.0734888)
(-0.000147018 0 -0.0673552)
(-0.000118098 0 -0.0606338)
(-9.57517e-05 0 -0.0536697)
(-7.67311e-05 0 -0.0467613)
(-6.00249e-05 0 -0.0401044)
(-4.53019e-05 0 -0.0338146)
(-3.24138e-05 0 -0.0279561)
(-2.12537e-05 0 -0.0225623)
(-1.17099e-05 0 -0.0176482)
(-3.65413e-06 0 -0.0132183)
(3.00903e-06 0 -0.00927048)
(8.40036e-06 0 -0.00579888)
(1.26701e-05 0 -0.00279547)
(1.60213e-05 0 -0.000250751)
(1.85462e-05 0 0.00184656)
(2.0323e-05 0 0.00350829)
(2.15712e-05 0 0.00475079)
(2.24451e-05 0 0.00559387)
(2.30751e-05 0 0.00606142)
(2.35747e-05 0 0.00618223)
(2.40246e-05 0 0.00599086)
(2.44636e-05 0 0.00552794)
(2.48987e-05 0 0.00483947)
(2.53036e-05 0 0.0039744)
(2.56366e-05 0 0.00298157)
(2.51743e-05 0 0.00191611)
(2.07184e-05 0 0.00084496)
(-5.83473e-05 0 0.000905135)
(-5.57031e-05 0 0.00193781)
(-5.42882e-05 0 0.00287815)
(-5.56656e-05 0 0.0039858)
(-5.6906e-05 0 0.00534547)
(-5.7313e-05 0 0.00700967)
(-5.66895e-05 0 0.00901508)
(-5.47915e-05 0 0.0113781)
(-5.15263e-05 0 0.0140873)
(-4.70608e-05 0 0.0170991)
(-4.18762e-05 0 0.0203371)
(-3.67449e-05 0 0.0236962)
(-3.26215e-05 0 0.027051)
(-3.04779e-05 0 0.0302661)
(-3.11108e-05 0 0.0332067)
(-3.49838e-05 0 0.035746)
(-4.21365e-05 0 0.0377699)
(-5.21641e-05 0 0.0391765)
(-6.42561e-05 0 0.0398733)
(-7.72678e-05 0 0.0397741)
(-8.98051e-05 0 0.0387985)
(-0.000100354 0 0.0368818)
(-0.00010753 0 0.034001)
(-0.000110494 0 0.0302227)
(-0.000109393 0 0.0257614)
(-0.000105407 0 0.0210068)
(-9.99616e-05 0 0.0164542)
(-9.34578e-05 0 0.0124978)
(-8.47928e-05 0 0.0091675)
(-7.22843e-05 0 0.00599211)
(-5.15814e-05 0 0.00174995)
(-1.89141e-05 0 -0.00470169)
(2.93373e-05 0 -0.0136429)
(9.80629e-05 0 -0.0253195)
(0.000188101 0 -0.0396425)
(0.000294326 0 -0.0562516)
(0.00040289 0 -0.0744711)
(0.000492645 0 -0.0932548)
(0.000542353 0 -0.111259)
(0.000543228 0 -0.127141)
(0.00050858 0 -0.140033)
(0.000469826 0 -0.149957)
(0.00045978 0 -0.157825)
(0.000497556 0 -0.165007)
(0.000585972 0 -0.1728)
(0.000718269 0 -0.182123)
(0.000884182 0 -0.193511)
(0.00106879 0 -0.207238)
(0.00124274 0 -0.223327)
(0.00134925 0 -0.241275)
(0.00130613 0 -0.25956)
(0.00104433 0 -0.275472)
(0.000577742 0 -0.285832)
(3.38419e-05 0 -0.288649)
(-0.000419762 0 -0.284426)
(-0.000690584 0 -0.275558)
(-0.000794177 0 -0.264615)
(-0.000792457 0 -0.25287)
(-0.000713282 0 -0.240038)
(-0.000491029 0 -0.225101)
(7.55224e-05 0 -0.208062)
(0.0014112 0 -0.192658)
(0.00422079 0 -0.192612)
(0.00994775 0 -0.245245)
(0.018896 0 -0.416299)
(0.00813598 0 -0.65134)
(-0.0170865 0 -0.582381)
(-0.0175169 0 -0.314735)
(-0.00825658 0 -0.159395)
(-0.00388971 0 -0.10335)
(-0.00206123 0 -0.0860224)
(-0.00124912 0 -0.0792357)
(-0.000830669 0 -0.0736417)
(-0.000594501 0 -0.0674913)
(-0.000442836 0 -0.060767)
(-0.000334138 0 -0.0538024)
(-0.000250053 0 -0.0468925)
(-0.000181943 0 -0.0402325)
(-0.000125396 0 -0.0339382)
(-7.79085e-05 0 -0.0280743)
(-3.78921e-05 0 -0.0226744)
(-4.24415e-06 0 -0.0177537)
(2.38914e-05 0 -0.013317)
(4.71946e-05 0 -0.00936209)
(6.61989e-05 0 -0.00588325)
(8.1362e-05 0 -0.00287238)
(9.46205e-05 0 -0.000320126)
(0.000105323 0 0.00178348)
(0.000112804 0 0.00345155)
(0.000118847 0 0.00470034)
(0.000123779 0 0.00554952)
(0.000127849 0 0.00602292)
(0.000131303 0 0.00614937)
(0.000134294 0 0.00596351)
(0.000136869 0 0.00550605)
(0.000139004 0 0.00482299)
(0.000140676 0 0.00396333)
(0.000141857 0 0.00297695)
(0.000141286 0 0.00192527)
(0.000132038 0 0.000885426)
(-0.000133241 0 0.000897334)
(-0.000133495 0 0.00193676)
(-0.000133795 0 0.00288457)
(-0.000135924 0 0.00399319)
(-0.000137699 0 0.00535184)
(-0.000138654 0 0.00701434)
(-0.000138517 0 0.00901764)
(-0.000136954 0 0.0113784)
(-0.000133801 0 0.0140859)
(-0.000129199 0 0.017097)
(-0.000123668 0 0.0203358)
(-0.000118102 0 0.0236977)
(-0.000113659 0 0.027057)
(-0.000111563 0 0.0302779)
(-0.000112872 0 0.0332249)
(-0.000118259 0 0.0357705)
(-0.00012787 0 0.0377995)
(-0.00014126 0 0.0392095)
(-0.000157416 0 0.0399077)
(-0.000174827 0 0.0398074)
(-0.000191601 0 0.0388284)
(-0.000205664 0 0.0369061)
(-0.000215116 0 0.0340186)
(-0.000218797 0 0.0302337)
(-0.000216855 0 0.0257674)
(-0.000210767 0 0.0210106)
(-0.000202235 0 0.0164578)
(-0.000191467 0 0.0125014)
(-0.000176487 0 0.00916957)
(-0.000154475 0 0.0059907)
(-0.000118945 0 0.00174191)
(-6.41073e-05 0 -0.00472116)
(1.47768e-05 0 -0.0136786)
(0.000123376 0 -0.0253739)
(0.000261625 0 -0.0397134)
(0.000421355 0 -0.0563302)
(0.000582711 0 -0.0745413)
(0.000716623 0 -0.0932973)
(0.000794927 0 -0.11126)
(0.000806843 0 -0.1271)
(0.000771121 0 -0.139971)
(0.000730442 0 -0.149902)
(0.00072941 0 -0.1578)
(0.000794554 0 -0.165023)
(0.000930295 0 -0.172855)
(0.00112685 0 -0.18221)
(0.00136751 0 -0.193618)
(0.00162726 0 -0.207346)
(0.00186082 0 -0.223399)
(0.00198887 0 -0.241248)
(0.00190396 0 -0.259367)
(0.00152142 0 -0.275087)
(0.000866441 0 -0.285316)
(0.000109286 0 -0.288135)
(-0.000528425 0 -0.284031)
(-0.000917872 0 -0.275319)
(-0.00106485 0 -0.264501)
(-0.00103361 0 -0.252842)
(-0.000842701 0 -0.240116)
(-0.000391676 0 -0.225402)
(0.000609861 0 -0.20883)
(0.00269894 0 -0.194369)
(0.00662845 0 -0.196131)
(0.0135823 0 -0.250897)
(0.0236397 0 -0.417706)
(0.00983726 0 -0.633456)
(-0.0210445 0 -0.570984)
(-0.022812 0 -0.319595)
(-0.0120586 0 -0.164535)
(-0.00644306 0 -0.105981)
(-0.00370019 0 -0.0873084)
(-0.00234069 0 -0.079911)
(-0.00157479 0 -0.0740209)
(-0.00111281 0 -0.0677252)
(-0.000807715 0 -0.0609266)
(-0.000589715 0 -0.0539209)
(-0.000424122 0 -0.046986)
(-0.000292911 0 -0.0403091)
(-0.000186119 0 -0.0340025)
(-9.7821e-05 0 -0.0281287)
(-2.42119e-05 0 -0.0227205)
(3.72498e-05 0 -0.0177926)
(8.85239e-05 0 -0.0133494)
(0.000131196 0 -0.00938865)
(0.000166526 0 -0.00590446)
(0.000195441 0 -0.00288873)
(0.000218537 0 -0.000332062)
(0.000237167 0 0.00177447)
(0.000252626 0 0.00344501)
(0.000265228 0 0.00469563)
(0.000275437 0 0.00554591)
(0.000283837 0 0.00601976)
(0.000290874 0 0.00614618)
(0.00029683 0 0.00596001)
(0.000301845 0 0.00550222)
(0.000305952 0 0.00481897)
(0.000309205 0 0.00395953)
(0.000311614 0 0.00297537)
(0.000312575 0 0.00193245)
(0.000306214 0 0.000906611)
(-0.000242788 0 0.000897728)
(-0.000245456 0 0.00194147)
(-0.000247624 0 0.00289129)
(-0.000249996 0 0.00399953)
(-0.000251758 0 0.00535667)
(-0.000252657 0 0.00701714)
(-0.000252425 0 0.00901801)
(-0.00025073 0 0.0113763)
(-0.000247419 0 0.014082)
(-0.000242654 0 0.0170926)
(-0.000237003 0 0.0203331)
(-0.000231439 0 0.0236989)
(-0.000227228 0 0.0270647)
(-0.000225722 0 0.030294)
(-0.000228101 0 0.0332505)
(-0.000235132 0 0.0358055)
(-0.000246994 0 0.0378429)
(-0.0002632 0 0.0392594)
(-0.000282595 0 0.0399615)
(-0.000303429 0 0.039862)
(-0.000323472 0 0.0388808)
(-0.000340247 0 0.0369536)
(-0.00035144 0 0.0340592)
(-0.00035554 0 0.0302673)
(-0.000352507 0 0.0257954)
(-0.000343834 0 0.0210357)
(-0.000331348 0 0.016482)
(-0.000315248 0 0.012525)
(-0.000293188 0 0.00919107)
(-0.000261589 0 0.00600784)
(-0.000211737 0 0.00175091)
(-0.000136243 0 -0.0047251)
(-2.98169e-05 0 -0.0137018)
(0.000113964 0 -0.0254188)
(0.000293867 0 -0.0397766)
(0.000499012 0 -0.0563996)
(0.000704986 0 -0.0745959)
(0.000877034 0 -0.0933129)
(0.000982382 0 -0.11122)
(0.00100921 0 -0.127007)
(0.000980226 0 -0.13985)
(0.000945854 0 -0.14979)
(0.000958772 0 -0.157727)
(0.00105066 0 -0.165001)
(0.00122699 0 -0.172883)
(0.00147537 0 -0.182276)
(0.00177348 0 -0.193703)
(0.00208766 0 -0.20742)
(0.00236008 0 -0.223409)
(0.00249575 0 -0.241117)
(0.00237191 0 -0.259018)
(0.00189659 0 -0.274497)
(0.00110553 0 -0.284566)
(0.000197834 0 -0.287392)
(-0.000569772 0 -0.28344)
(-0.00104206 0 -0.274935)
(-0.00121252 0 -0.264301)
(-0.00114085 0 -0.252795)
(-0.000835827 0 -0.24026)
(-0.000170987 0 -0.225898)
(0.00117969 0 -0.20998)
(0.0037936 0 -0.196713)
(0.0084563 0 -0.200432)
(0.0159511 0 -0.256781)
(0.0259504 0 -0.417437)
(0.010469 0 -0.613983)
(-0.0228779 0 -0.55775)
(-0.025926 0 -0.323665)
(-0.0147921 0 -0.170421)
(-0.00848046 0 -0.109454)
(-0.0051042 0 -0.0891947)
(-0.00333818 0 -0.080994)
(-0.00228305 0 -0.0746733)
(-0.00161312 0 -0.0681458)
(-0.00115641 0 -0.0612184)
(-0.000825349 0 -0.0541372)
(-0.000573158 0 -0.0471547)
(-0.000373997 0 -0.0404457)
(-0.000212803 0 -0.0341157)
(-8.01435e-05 0 -0.0282239)
(2.98822e-05 0 -0.022801)
(0.000121457 0 -0.0178609)
(0.000197927 0 -0.013407)
(0.000261599 0 -0.00943687)
(0.000314415 0 -0.00594447)
(0.000358047 0 -0.00292177)
(0.000393013 0 -0.000359361)
(0.000421495 0 0.00175302)
(0.00044545 0 0.00342827)
(0.000464931 0 0.00468241)
(0.000480807 0 0.00553519)
(0.000493874 0 0.00601071)
(0.000504719 0 0.00613816)
(0.000513753 0 0.00595269)
(0.000521235 0 0.00549552)
(0.000527301 0 0.00481299)
(0.000532045 0 0.00395462)
(0.000535486 0 0.00297315)
(0.000537532 0 0.00193662)
(0.000534943 0 0.000917115)
(-0.000390102 0 0.0009042)
(-0.000393823 0 0.0019511)
(-0.000397371 0 0.00289999)
(-0.000399993 0 0.00400597)
(-0.000401752 0 0.00536073)
(-0.000402587 0 0.00701857)
(-0.000402256 0 0.0090163)
(-0.000400452 0 0.0113712)
(-0.000397033 0 0.0140738)
(-0.000392184 0 0.0170826)
(-0.000386511 0 0.0203231)
(-0.000381041 0 0.0236913)
(-0.000377114 0 0.0270617)
(-0.000376166 0 0.0302978)
(-0.000379458 0 0.0332622)
(-0.000387817 0 0.0358253)
(-0.000401444 0 0.0378699)
(-0.000419812 0 0.0392917)
(-0.000441658 0 0.0399963)
(-0.000465048 0 0.0398964)
(-0.000487501 0 0.0389114)
(-0.000506234 0 0.0369776)
(-0.000518604 0 0.0340748)
(-0.000522796 0 0.0302742)
(-0.000518538 0 0.0257952)
(-0.000507201 0 0.0210307)
(-0.000490577 0 0.0164739)
(-0.000468813 0 0.0125133)
(-0.000439354 0 0.00917353)
(-0.000398115 0 0.00598161)
(-0.000334247 0 0.00171163)
(-0.000239268 0 -0.00478273)
(-0.000107862 0 -0.0137841)
(6.69645e-05 0 -0.0255274)
(0.000282776 0 -0.0399071)
(0.000526494 0 -0.0565387)
(0.000770224 0 -0.0747217)
(0.000975252 0 -0.0934005)
(0.00110596 0 -0.111253)
(0.00115024 0 -0.12699)
(0.00113365 0 -0.139809)
(0.00111166 0 -0.149763)
(0.00114208 0 -0.157745)
(0.00125988 0 -0.165078)
(0.00147113 0 -0.173016)
(0.00176121 0 -0.182451)
(0.00210305 0 -0.1939)
(0.00245581 0 -0.207604)
(0.00275206 0 -0.223523)
(0.00288621 0 -0.241082)
(0.0027276 0 -0.258758)
(0.00218347 0 -0.273993)
(0.00129916 0 -0.283904)
(0.000291666 0 -0.286739)
(-0.000561456 0 -0.282945)
(-0.00108682 0 -0.274661)
(-0.00126545 0 -0.264232)
(-0.00114892 0 -0.252909)
(-0.000738426 0 -0.240603)
(0.000109317 0 -0.226637)
(0.00172606 0 -0.211419)
(0.00468865 0 -0.199335)
(0.00980284 0 -0.204836)
(0.0173823 0 -0.262248)
(0.0265654 0 -0.416326)
(0.0103648 0 -0.595851)
(-0.0232493 0 -0.544873)
(-0.0274336 0 -0.326751)
(-0.0166745 0 -0.176127)
(-0.0100385 0 -0.113134)
(-0.00623739 0 -0.091358)
(-0.00418073 0 -0.0823362)
(-0.0028962 0 -0.0755452)
(-0.00204801 0 -0.0687477)
(-0.00145337 0 -0.0616609)
(-0.00101446 0 -0.0544806)
(-0.000676774 0 -0.0474328)
(-0.000408896 0 -0.0406778)
(-0.000191778 0 -0.0343135)
(-1.31493e-05 0 -0.0283946)
(0.000134961 0 -0.0229496)
(0.000258332 0 -0.0179906)
(0.000361416 0 -0.0135203)
(0.000447338 0 -0.00953559)
(0.000518709 0 -0.0060302)
(0.000577873 0 -0.00299594)
(0.000626523 0 -0.000423521)
(0.000666545 0 0.00169795)
(0.000699522 0 0.00338097)
(0.000726464 0 0.00464169)
(0.000748588 0 0.00549998)
(0.000766833 0 0.00598005)
(0.000781926 0 0.00611135)
(0.000794403 0 0.00592929)
(0.000804626 0 0.00547538)
(0.000812825 0 0.00479612)
(0.000819164 0 0.00394121)
(0.00082366 0 0.00296405)
(0.000826692 0 0.00193357)
(0.00082648 0 0.000918658)
(-0.000577102 0 0.000912283)
(-0.000580526 0 0.00196283)
(-0.000584799 0 0.00290955)
(-0.0005876 0 0.00401216)
(-0.000589436 0 0.00536393)
(-0.000590337 0 0.00701873)
(-0.000590073 0 0.009013)
(-0.000588347 0 0.0113642)
(-0.000585017 0 0.0140634)
(-0.000580275 0 0.0170698)
(-0.00057474 0 0.0203098)
(-0.000569466 0 0.0236798)
(-0.000565835 0 0.0270545)
(-0.000565338 0 0.0302968)
(-0.000569295 0 0.0332686)
(-0.000578582 0 0.0358393)
(-0.000593422 0 0.0378906)
(-0.000613266 0 0.039317)
(-0.000636777 0 0.0400236)
(-0.000661882 0 0.0399224)
(-0.000685913 0 0.0389327)
(-0.000705861 0 0.0369913)
(-0.000718841 0 0.0340788)
(-0.000722803 0 0.0302681)
(-0.000717256 0 0.0257804)
(-0.000703377 0 0.0210094)
(-0.000682784 0 0.0164475)
(-0.000655441 0 0.012481)
(-0.000618564 0 0.00913272)
(-0.000567762 0 0.00592919)
(-0.000490348 0 0.00164292)
(-0.000376919 0 -0.00487376)
(-0.000222603 0 -0.0139036)
(-2.03824e-05 0 -0.0256765)
(0.000226254 0 -0.0400807)
(0.00050256 0 -0.0567223)
(0.000778017 0 -0.0748924)
(0.00101142 0 -0.093533)
(0.00116574 0 -0.111331)
(0.00122919 0 -0.127019)
(0.00122928 0 -0.139817)
(0.00122434 0 -0.149789)
(0.00127494 0 -0.157819)
(0.00141781 0 -0.165215)
(0.00165914 0 -0.173213)
(0.00198246 0 -0.182693)
(0.00235678 0 -0.194163)
(0.00273548 0 -0.20785)
(0.00304411 0 -0.223692)
(0.00317077 0 -0.241093)
(0.00298268 0 -0.258538)
(0.00239094 0 -0.273527)
(0.00144934 0 -0.283282)
(0.000384062 0 -0.28613)
(-0.000517597 0 -0.282502)
(-0.00107127 0 -0.274451)
(-0.00124642 0 -0.264247)
(-0.00108406 0 -0.253135)
(-0.000579881 0 -0.241088)
(0.000418157 0 -0.227544)
(0.0022347 0 -0.213044)
(0.00541273 0 -0.202104)
(0.0107406 0 -0.209213)
(0.018067 0 -0.267253)
(0.0260166 0 -0.414562)
(0.00978914 0 -0.578785)
(-0.0226419 0 -0.532373)
(-0.0277349 0 -0.329059)
(-0.017835 0 -0.181582)
(-0.011164 0 -0.116897)
(-0.00711154 0 -0.0936922)
(-0.00485315 0 -0.083859)
(-0.00338777 0 -0.0765846)
(-0.00238981 0 -0.0694976)
(-0.00167346 0 -0.0622318)
(-0.0011354 0 -0.0549352)
(-0.000716596 0 -0.0478073)
(-0.000381939 0 -0.0409942)
(-0.000109445 0 -0.0345853)
(0.000115267 0 -0.0286309)
(0.00030202 0 -0.0231564)
(0.000458002 0 -0.0181722)
(0.000588525 0 -0.0136798)
(0.00069763 0 -0.00967549)
(0.000788612 0 -0.00615253)
(0.000864276 0 -0.00310247)
(0.000927089 0 -0.00051602)
(0.000979067 0 0.00161756)
(0.00102187 0 0.00331123)
(0.0010571 0 0.0045813)
(0.00108613 0 0.00544768)
(0.00111007 0 0.00593474)
(0.00112981 0 0.00607217)
(0.00114601 0 0.00589568)
(0.00115915 0 0.00544705)
(0.00116954 0 0.00477297)
(0.00117741 0 0.00392327)
(0.00118283 0 0.00295162)
(0.00118653 0 0.00192699)
(0.00118718 0 0.000916923)
(-0.000803681 0 0.000919889)
(-0.000806012 0 0.00197435)
(-0.000810353 0 0.00291928)
(-0.000813109 0 0.0040187)
(-0.000814971 0 0.00536752)
(-0.000815961 0 0.0070194)
(-0.000815816 0 0.00901034)
(-0.000814234 0 0.011358)
(-0.000811075 0 0.014054)
(-0.000806529 0 0.0170584)
(-0.00080122 0 0.0202981)
(-0.000796212 0 0.0236703)
(-0.000792907 0 0.0270496)
(-0.000792823 0 0.0302985)
(-0.000797318 0 0.0332782)
(-0.000807299 0 0.0358569)
(-0.000823004 0 0.0379152)
(-0.000843871 0 0.0393465)
(-0.000868506 0 0.040055)
(-0.00089474 0 0.0399522)
(-0.000919762 0 0.0389574)
(-0.000940395 0 0.0370076)
(-0.000953567 0 0.0340846)
(-0.000957037 0 0.0302627)
(-0.000950113 0 0.0257651)
(-0.000933744 0 0.0209864)
(-0.000909316 0 0.0164182)
(-0.000876557 0 0.0124446)
(-0.000832422 0 0.00908654)
(-0.000772361 0 0.00586992)
(-0.000682201 0 0.00156552)
(-0.000551499 0 -0.00497611)
(-0.000376267 0 -0.0140371)
(-0.000149956 0 -0.0258421)
(0.000123266 0 -0.0402722)
(0.000427301 0 -0.0569239)
(0.00072971 0 -0.0750798)
(0.000987873 0 -0.0936798)
(0.0011643 0 -0.111421)
(0.00124783 0 -0.127057)
(0.00126726 0 -0.139834)
(0.00128225 0 -0.149823)
(0.00135445 0 -0.157905)
(0.00152127 0 -0.165366)
(0.00178866 0 -0.173425)
(0.0021386 0 -0.18295)
(0.00253695 0 -0.194437)
(0.00293259 0 -0.2081)
(0.00324642 0 -0.223855)
(0.0033634 0 -0.241087)
(0.00315232 0 -0.258289)
(0.00253082 0 -0.273026)
(0.00155961 0 -0.282624)
(0.00046792 0 -0.285488)
(-0.000454188 0 -0.282032)
(-0.00101666 0 -0.274229)
(-0.00117952 0 -0.264272)
(-0.000972906 0 -0.253398)
(-0.000388199 0 -0.241641)
(0.000726868 0 -0.228545)
(0.00268205 0 -0.214774)
(0.0059657 0 -0.204955)
(0.0113249 0 -0.213515)
(0.0182283 0 -0.271787)
(0.0248602 0 -0.412202)
(0.00901549 0 -0.56247)
(-0.021534 0 -0.520097)
(-0.0272833 0 -0.330642)
(-0.0184203 0 -0.186758)
(-0.011887 0 -0.120705)
(-0.00772172 0 -0.0961533)
(-0.00533728 0 -0.0855172)
(-0.00373654 0 -0.0777511)
(-0.00261759 0 -0.0703619)
(-0.0017972 0 -0.0629033)
(-0.00117078 0 -0.0554772)
(-0.000677416 0 -0.0482579)
(-0.000279846 0 -0.0413767)
(4.57482e-05 0 -0.0349149)
(0.000315362 0 -0.0289178)
(0.000540302 0 -0.0234076)
(0.000728766 0 -0.0183928)
(0.000886897 0 -0.0138737)
(0.00101953 0 -0.00984572)
(0.00113058 0 -0.0063016)
(0.00122327 0 -0.00323264)
(0.00130049 0 -0.000629392)
(0.00136466 0 0.00151897)
(0.0014178 0 0.00322574)
(0.00146173 0 0.0045073)
(0.001498 0 0.0053837)
(0.00152789 0 0.00587951)
(0.00155245 0 0.0060247)
(0.00157248 0 0.0058553)
(0.00158853 0 0.0054134)
(0.00160102 0 0.00474593)
(0.00161026 0 0.00390286)
(0.00161636 0 0.00293786)
(0.00162038 0 0.0019195)
(0.00162104 0 0.00091434)
(-0.00106862 0 0.000925877)
(-0.00106966 0 0.00198394)
(-0.00107367 0 0.00292797)
(-0.00107617 0 0.00402503)
(-0.00107797 0 0.00537134)
(-0.00107899 0 0.00702049)
(-0.00107891 0 0.00900827)
(-0.00107741 0 0.0113525)
(-0.00107436 0 0.0140456)
(-0.00106994 0 0.0170481)
(-0.0010648 0 0.020288)
(-0.00106 0 0.0236626)
(-0.00105696 0 0.0270469)
(-0.00105722 0 0.030303)
(-0.00106216 0 0.0332911)
(-0.0010727 0 0.0358783)
(-0.0010891 0 0.037944)
(-0.00111076 0 0.0393805)
(-0.00113625 0 0.0400912)
(-0.00116331 0 0.039987)
(-0.00118902 0 0.038987)
(-0.00121007 0 0.0370285)
(-0.00122323 0 0.0340944)
(-0.00122608 0 0.0302607)
(-0.00121774 0 0.0257524)
(-0.00119892 0 0.020965)
(-0.00117075 0 0.0163895)
(-0.00113276 0 0.0124078)
(-0.00108165 0 0.00903897)
(-0.00101278 0 0.00580819)
(-0.000910803 0 0.0014844)
(-0.000764183 0 -0.00508394)
(-0.000570102 0 -0.0141777)
(-0.000322655 0 -0.0260164)
(-2.63243e-05 0 -0.0404731)
(0.00030159 0 -0.0571347)
(0.000627327 0 -0.0752749)
(0.000907522 0 -0.0938321)
(0.00110473 0 -0.111515)
(0.00120851 0 -0.127098)
(0.00124848 0 -0.139851)
(0.00128468 0 -0.149859)
(0.00137886 0 -0.157992)
(0.00156833 0 -0.165519)
(0.00185858 0 -0.173639)
(0.00223027 0 -0.183207)
(0.00264681 0 -0.194708)
(0.00305386 0 -0.20834)
(0.00336942 0 -0.223998)
(0.00347755 0 -0.24105)
(0.00325061 0 -0.258003)
(0.00261356 0 -0.272486)
(0.00163263 0 -0.281928)
(0.000537235 0 -0.28481)
(-0.000385276 0 -0.281532)
(-0.000942677 0 -0.273988)
(-0.00108682 0 -0.264295)
(-0.000839378 0 -0.253681)
(-0.00018898 0 -0.242236)
(0.00101054 0 -0.229604)
(0.00305052 0 -0.216562)
(0.00635837 0 -0.207818)
(0.0116324 0 -0.217656)
(0.0180697 0 -0.275798)
(0.0234805 0 -0.409369)
(0.00821995 0 -0.547025)
(-0.0202349 0 -0.508218)
(-0.0264211 0 -0.331588)
(-0.0185764 0 -0.191582)
(-0.0122546 0 -0.124482)
(-0.00807172 0 -0.0986852)
(-0.00562129 0 -0.0872697)
(-0.00392706 0 -0.0790149)
(-0.00271569 0 -0.0713184)
(-0.00180983 0 -0.0636589)
(-0.00110719 0 -0.0560949)
(-0.000547243 0 -0.0487757)
(-9.2031e-05 0 -0.041819)
(0.000283227 0 -0.0352977)
(0.000595607 0 -0.029252)
(0.000857376 0 -0.0237009)
(0.00107748 0 -0.018651)
(0.00126278 0 -0.0141011)
(0.00141874 0 -0.0100458)
(0.00154979 0 -0.00647732)
(0.00165959 0 -0.0033866)
(0.00175139 0 -0.000763969)
(0.00182795 0 0.00140168)
(0.00189158 0 0.00312383)
(0.00194433 0 0.00441899)
(0.00198793 0 0.00530736)
(0.00202383 0 0.00581376)
(0.00205323 0 0.00596846)
(0.00207704 0 0.00580783)
(0.00209593 0 0.00537432)
(0.0021104 0 0.00471515)
(0.00212083 0 0.00388041)
(0.00212741 0 0.00292354)
(0.00213154 0 0.00191227)
(0.00213192 0 0.000912109)
(-0.00136986 0 0.000930286)
(-0.00136992 0 0.00199132)
(-0.00137362 0 0.00293523)
(-0.0013759 0 0.00403081)
(-0.00137765 0 0.00537511)
(-0.00137872 0 0.00702171)
(-0.0013787 0 0.00900639)
(-0.00137727 0 0.0113473)
(-0.00137431 0 0.0140374)
(-0.00137001 0 0.0170382)
(-0.00136501 0 0.0202782)
(-0.00136039 0 0.0236555)
(-0.00135759 0 0.0270449)
(-0.00135815 0 0.0303082)
(-0.00136348 0 0.0333048)
(-0.00137451 0 0.0359008)
(-0.00139149 0 0.0379741)
(-0.00141382 0 0.039416)
(-0.00144001 0 0.0401289)
(-0.00146774 0 0.0400232)
(-0.00149398 0 0.0390177)
(-0.00151529 0 0.0370502)
(-0.0015283 0 0.0341046)
(-0.00153045 0 0.0302585)
(-0.00152066 0 0.0257387)
(-0.00149941 0 0.0209418)
(-0.00146764 0 0.0163578)
(-0.00142467 0 0.0123669)
(-0.00136705 0 0.00898626)
(-0.00129 0 0.00574017)
(-0.00117726 0 0.00139559)
(-0.00101623 0 -0.00520113)
(-0.000805358 0 -0.0143291)
(-0.000539356 0 -0.0262026)
(-0.000222827 0 -0.0406867)
(0.000125884 0 -0.057358)
(0.000472159 0 -0.0754819)
(0.00077227 0 -0.0939957)
(0.00098907 0 -0.111619)
(0.00111286 0 -0.127149)
(0.00117367 0 -0.13988)
(0.00123136 0 -0.149906)
(0.00134715 0 -0.158089)
(0.00155784 0 -0.165682)
(0.00186833 0 -0.173863)
(0.00225822 0 -0.183473)
(0.00268908 0 -0.194984)
(0.00310431 0 -0.208579)
(0.00342048 0 -0.224134)
(0.00352223 0 -0.241002)
(0.00328656 0 -0.257704)
(0.00264576 0 -0.271936)
(0.00167026 0 -0.281226)
(0.000587493 0 -0.284129)
(-0.000320898 0 -0.281032)
(-0.000862919 0 -0.273751)
(-0.000984202 0 -0.264333)
(-0.000700156 0 -0.253991)
(1.62894e-06 0 -0.24287)
(0.00125761 0 -0.230704)
(0.00333996 0 -0.218367)
(0.00661769 0 -0.210633)
(0.0117369 0 -0.221573)
(0.0177164 0 -0.279301)
(0.0220577 0 -0.406251)
(0.00748373 0 -0.532615)
(-0.0188699 0 -0.496935)
(-0.0253258 0 -0.332023)
(-0.0184143 0 -0.196019)
(-0.0123301 0 -0.128157)
(-0.00818715 0 -0.10123)
(-0.00571093 0 -0.0890757)
(-0.00395599 0 -0.0803484)
(-0.00267663 0 -0.0723487)
(-0.00170241 0 -0.0644866)
(-0.000935569 0 -0.0567803)
(-0.000317355 0 -0.0493564)
(0.000189664 0 -0.042319)
(0.000610541 0 -0.0357331)
(0.000962983 0 -0.029634)
(0.00125966 0 -0.0240376)
(0.00151011 0 -0.0189485)
(0.00172173 0 -0.0143641)
(0.00190046 0 -0.0102781)
(0.00205114 0 -0.00668208)
(0.00217785 0 -0.00356669)
(0.00228416 0 -0.000921949)
(0.00237309 0 0.00126352)
(0.00244721 0 0.00300343)
(0.00250878 0 0.00431443)
(0.0025597 0 0.00521693)
(0.0026016 0 0.00573599)
(0.0026358 0 0.00590219)
(0.00266336 0 0.00575229)
(0.00268506 0 0.00532908)
(0.00270148 0 0.00468014)
(0.0027131 0 0.00385564)
(0.00272021 0 0.0029085)
(0.00272453 0 0.00190529)
(0.00272474 0 0.000910268)
(-0.00170591 0 0.000933878)
(-0.0017055 0 0.00199744)
(-0.00170921 0 0.00294169)
(-0.0017115 0 0.0040364)
(-0.00171338 0 0.00537897)
(-0.0017146 0 0.00702309)
(-0.00171474 0 0.00900467)
(-0.00171349 0 0.0113423)
(-0.00171073 0 0.0140294)
(-0.00170667 0 0.0170284)
(-0.00170194 0 0.0202686)
(-0.00169762 0 0.0236484)
(-0.00169514 0 0.027043)
(-0.00169607 0 0.0303135)
(-0.00170182 0 0.0333187)
(-0.00171333 0 0.0359234)
(-0.00173085 0 0.0380043)
(-0.00175376 0 0.0394515)
(-0.00178055 0 0.0401666)
(-0.00180881 0 0.0400591)
(-0.00183544 0 0.039048)
(-0.00185687 0 0.0370711)
(-0.00186961 0 0.0341133)
(-0.00187093 0 0.0302542)
(-0.0018596 0 0.0257221)
(-0.00183596 0 0.0209147)
(-0.00180075 0 0.0163213)
(-0.00175319 0 0.0123201)
(-0.00168968 0 0.00892653)
(-0.00160533 0 0.00566399)
(-0.00148297 0 0.00129719)
(-0.0013091 0 -0.00532949)
(-0.00108341 0 -0.0144929)
(-0.000801127 0 -0.0264023)
(-0.00046692 0 -0.0409143)
(-9.99846e-05 0 -0.0575956)
(0.000264537 0 -0.0757031)
(0.000582791 0 -0.0941735)
(0.000818094 0 -0.111738)
(0.000961398 0 -0.127216)
(0.00104288 0 -0.139925)
(0.00112181 0 -0.149969)
(0.00125849 0 -0.158204)
(0.00148898 0 -0.165861)
(0.00181755 0 -0.174101)
(0.00222296 0 -0.18375)
(0.00266549 0 -0.195268)
(0.00308711 0 -0.208822)
(0.00340402 0 -0.224271)
(0.00350252 0 -0.240953)
(0.00326483 0 -0.257409)
(0.00263046 0 -0.271396)
(0.00167275 0 -0.280542)
(0.000615195 0 -0.283469)
(-0.000267848 0 -0.280552)
(-0.000786488 0 -0.273535)
(-0.000882114 0 -0.264394)
(-0.000565459 0 -0.254331)
(0.000175755 0 -0.243537)
(0.00146684 0 -0.231828)
(0.00356136 0 -0.220164)
(0.00677537 0 -0.213366)
(0.0116978 0 -0.22525)
(0.0172399 0 -0.282354)
(0.0206616 0 -0.402983)
(0.00683005 0 -0.51926)
(-0.0174839 0 -0.486318)
(-0.0240784 0 -0.332064)
(-0.018006 0 -0.200089)
(-0.0121692 0 -0.131705)
(-0.00809959 0 -0.103754)
(-0.00562178 0 -0.0909059)
(-0.0038289 0 -0.0817288)
(-0.00249988 0 -0.0734359)
(-0.0014712 0 -0.0653743)
(-0.00065061 0 -0.0575253)
(1.80843e-05 0 -0.0499942)
(0.000571325 0 -0.0428728)
(0.00103388 0 -0.0362187)
(0.00142343 0 -0.0300624)
(0.0017529 0 -0.0244171)
(0.00203218 0 -0.0192852)
(0.00226905 0 -0.0146629)
(0.00246977 0 -0.010543)
(0.00263954 0 -0.00691643)
(0.0027828 0 -0.0037735)
(0.00290335 0 -0.00110393)
(0.00300447 0 0.00110395)
(0.00308896 0 0.00286404)
(0.00315924 0 0.00419321)
(0.00321742 0 0.00511206)
(0.00326527 0 0.00564591)
(0.00330425 0 0.00582567)
(0.00333555 0 0.00568846)
(0.00336008 0 0.00527747)
(0.00337853 0 0.0046406)
(0.00339149 0 0.00382803)
(0.00339939 0 0.00289202)
(0.00340416 0 0.00189778)
(0.0034045 0 0.000908338)
(-0.00207684 0 0.000937536)
(-0.00207631 0 0.00200367)
(-0.0020804 0 0.00294849)
(-0.00208298 0 0.00404254)
(-0.00208514 0 0.00538346)
(-0.00208666 0 0.00702508)
(-0.00208709 0 0.00900354)
(-0.00208617 0 0.0113378)
(-0.00208378 0 0.0140221)
(-0.00208014 0 0.0170194)
(-0.00207588 0 0.0202597)
(-0.00207206 0 0.0236421)
(-0.00207009 0 0.0270417)
(-0.00207154 0 0.0303195)
(-0.00207782 0 0.0333332)
(-0.00208986 0 0.0359465)
(-0.00210794 0 0.0380349)
(-0.00213141 0 0.0394875)
(-0.00215872 0 0.0402045)
(-0.00218742 0 0.0400951)
(-0.00221431 0 0.0390779)
(-0.00223573 0 0.0370912)
(-0.00224805 0 0.0341209)
(-0.00224842 0 0.030248)
(-0.0022355 0 0.025703)
(-0.00220951 0 0.0208842)
(-0.00217109 0 0.0162806)
(-0.0021194 0 0.0122683)
(-0.00205072 0 0.00886077)
(-0.00196001 0 0.00558081)
(-0.00182928 0 0.00119055)
(-0.00164415 0 -0.00546746)
(-0.00140552 0 -0.0146675)
(-0.00110903 0 -0.0266136)
(-0.000759378 0 -0.0411542)
(-0.000376461 0 -0.0578457)
(4.2914e-06 0 -0.0759371)
(0.000339085 0 -0.0943646)
(0.000591806 0 -0.111871)
(0.000753988 0 -0.127298)
(0.00085573 0 -0.139986)
(0.00095541 0 -0.150049)
(0.00111216 0 -0.158334)
(0.00136113 0 -0.166054)
(0.00170603 0 -0.174352)
(0.00212499 0 -0.184038)
(0.00257745 0 -0.19556)
(0.00300461 0 -0.20907)
(0.00332315 0 -0.22441)
(0.00342175 0 -0.240908)
(0.0031882 0 -0.257121)
(0.002569 0 -0.270871)
(0.00163926 0 -0.279879)
(0.000617073 0 -0.282832)
(-0.000231556 0 -0.280095)
(-0.000720365 0 -0.27334)
(-0.000788048 0 -0.264479)
(-0.000441725 0 -0.254697)
(0.000330155 0 -0.244227)
(0.00164129 0 -0.232962)
(0.00372763 0 -0.221936)
(0.00685914 0 -0.216003)
(0.0115635 0 -0.228697)
(0.016694 0 -0.285015)
(0.0193299 0 -0.399641)
(0.00626174 0 -0.506893)
(-0.0161065 0 -0.476356)
(-0.0227297 0 -0.331797)
(-0.0174025 0 -0.203827)
(-0.0118135 0 -0.135124)
(-0.00783497 0 -0.106244)
(-0.00536945 0 -0.0927438)
(-0.00355393 0 -0.0831402)
(-0.00218827 0 -0.074566)
(-0.00111568 0 -0.0663106)
(-0.000249735 0 -0.0583207)
(0.000462977 0 -0.0506819)
(0.00105755 0 -0.0434747)
(0.00155809 0 -0.0367499)
(0.00198199 0 -0.0305337)
(0.00234221 0 -0.0248366)
(0.00264881 0 -0.0196589)
(0.00290979 0 -0.0149958)
(0.00313166 0 -0.0108391)
(0.00331993 0 -0.00717919)
(0.00347927 0 -0.00400606)
(0.00361373 0 -0.00130909)
(0.0037268 0 0.000923655)
(0.00382145 0 0.0027063)
(0.00390032 0 0.00405588)
(0.00396564 0 0.00499321)
(0.00401936 0 0.00554389)
(0.00406308 0 0.00573914)
(0.0040981 0 0.00561647)
(0.00412548 0 0.00521943)
(0.00414604 0 0.00459622)
(0.00416049 0 0.00379697)
(0.00416941 0 0.00287322)
(0.00417487 0 0.00188887)
(0.00417558 0 0.000905801)
(-0.00248405 0 0.000941761)
(-0.00248352 0 0.00201085)
(-0.00248817 0 0.00295639)
(-0.00249114 0 0.00404979)
(-0.00249366 0 0.00538896)
(-0.00249553 0 0.00702801)
(-0.00249633 0 0.00900337)
(-0.0024958 0 0.0113344)
(-0.00249389 0 0.0140158)
(-0.0024908 0 0.0170115)
(-0.00248715 0 0.020252)
(-0.00248398 0 0.0236369)
(-0.00248268 0 0.0270415)
(-0.00248479 0 0.0303265)
(-0.0024917 0 0.0333486)