/*--------------------------------*- C++ -*----------------------------------*\
  =========                 |
  \\      /  F ield         | OpenFOAM: The Open Source CFD Toolbox
   \\    /   O peration     | Website:  https://openfoam.org
    \\  /    A nd           | Version:  9
     \\/     M anipulation  |
\*---------------------------------------------------------------------------*/
FoamFile
{
    format      ascii;
    class       surfaceVectorField;
    location    "0.16";
    object      Uf;
}
// * * * * * * * * * * * * * * * * * * * * * * * * * * * * * * * * * * * * * //

dimensions      [0 1 -1 0 0 0 0];

internalField   nonuniform List<vector> 
39700
(
(-8.52884e-06 0 0.00143208)
(-3.4435e-05 0 0.000921236)
(-7.15082e-06 0 0.00240602)
(-3.18978e-05 0 0.00194419)
(-7.25316e-06 0 0.00342412)
(-3.07167e-05 0 0.00288005)
(-7.44796e-06 0 0.00465704)
(-3.15135e-05 0 0.00398779)
(-7.25619e-06 0 0.00616977)
(-3.21548e-05 0 0.00534924)
(-6.56279e-06 0 0.00800591)
(-3.21375e-05 0 0.00701584)
(-5.28217e-06 0 0.010192)
(-3.1332e-05 0 0.00902421)
(-3.38698e-06 0 0.0127305)
(-2.95849e-05 0 0.0113906)
(-9.57282e-07 0 0.0155938)
(-2.68622e-05 0 0.0141034)
(1.78926e-06 0 0.0187217)
(-2.33196e-05 0 0.0171187)
(4.50713e-06 0 0.0220233)
(-1.93405e-05 0 0.0203599)
(6.76233e-06 0 0.0253835)
(-1.55113e-05 0 0.0237216)
(8.11156e-06 0 0.028672)
(-1.25317e-05 0 0.0270783)
(8.18927e-06 0 0.0317539)
(-1.10935e-05 0 0.0302948)
(6.77947e-06 0 0.0344987)
(-1.17419e-05 0 0.0332363)
(3.85455e-06 0 0.0367864)
(-1.47696e-05 0 0.0357762)
(-4.25211e-07 0 0.0385092)
(-2.0164e-05 0 0.0378007)
(-5.74665e-06 0 0.03957)
(-2.76016e-05 0 0.039208)
(-1.16648e-05 0 0.0398796)
(-3.64829e-05 0 0.0399059)
(-1.76303e-05 0 0.0393546)
(-4.59873e-05 0 0.039808)
(-2.30106e-05 0 0.0379222)
(-5.51221e-05 0 0.038834)
(-2.7136e-05 0 0.0355379)
(-6.28013e-05 0 0.036919)
(-2.94246e-05 0 0.0322222)
(-6.80112e-05 0 0.0340399)
(-2.96105e-05 0 0.0281136)
(-7.01071e-05 0 0.0302633)
(-2.79735e-05 0 0.0235122)
(-6.91589e-05 0 0.0258035)
(-2.53038e-05 0 0.0188602)
(-6.60365e-05 0 0.0210507)
(-2.24274e-05 0 0.0146044)
(-6.18848e-05 0 0.0165007)
(-1.96189e-05 0 0.0109616)
(-5.72036e-05 0 0.0125486)
(-1.65085e-05 0 0.00771584)
(-5.14169e-05 0 0.00922373)
(-1.24088e-05 0 0.00419084)
(-4.3413e-05 0 0.00605381)
(-4.89429e-06 0 -0.00136118)
(-3.02766e-05 0 0.00181664)
(7.47437e-06 0 -0.00905)
(-9.17915e-06 0 -0.00463002)
(2.70343e-05 0 -0.0193508)
(2.28208e-05 0 -0.0135665)
(5.59074e-05 0 -0.0323416)
(6.93093e-05 0 -0.0252381)
(9.37682e-05 0 -0.0477983)
(0.000131083 0 -0.0395557)
(0.000137046 0 -0.0652047)
(0.000204713 0 -0.0561596)
(0.000178105 0 -0.0837013)
(0.000280484 0 -0.0743746)
(0.000206682 0 -0.102094)
(0.000343236 0 -0.0931552)
(0.000214564 0 -0.119034)
(0.000377459 0 -0.111157)
(0.000201752 0 -0.133413)
(0.00037646 0 -0.127034)
(0.000178776 0 -0.144805)
(0.000349588 0 -0.139919)
(0.000161398 0 -0.153677)
(0.000319465 0 -0.149832)
(0.000161639 0 -0.161177)
(0.000309765 0 -0.157686)
(0.000183639 0 -0.168641)
(0.000334152 0 -0.164856)
(0.00022578 0 -0.177177)
(0.000394505 0 -0.172637)
(0.000284675 0 -0.187513)
(0.000486031 0 -0.181949)
(0.000356865 0 -0.200051)
(0.000601891 0 -0.193326)
(0.0004362 0 -0.214943)
(0.00073245 0 -0.207043)
(0.000506946 0 -0.231958)
(0.00085793 0 -0.223124)
(0.000537459 0 -0.250092)
(0.000938264 0 -0.241072)
(0.000486851 0 -0.267229)
(0.000913486 0 -0.259366)
(0.000333185 0 -0.2804)
(0.0007316 0 -0.275293)
(0.000107549 0 -0.286991)
(0.000400856 0 -0.28566)
(-0.00011196 0 -0.286251)
(1.37901e-05 0 -0.288467)
(-0.000261892 0 -0.279656)
(-0.000307309 0 -0.284224)
(-0.000330074 0 -0.269721)
(-0.00049637 0 -0.275339)
(-0.000347876 0 -0.258379)
(-0.000567776 0 -0.264393)
(-0.000349509 0 -0.246113)
(-0.000570606 0 -0.252656)
(-0.000339079 0 -0.232238)
(-0.000529514 0 -0.239835)
(-0.000269859 0 -0.216195)
(-0.000401472 0 -0.224891)
(-8.03417e-06 0 -0.199776)
(-5.10402e-05 0 -0.207803)
(0.000659755 0 -0.191479)
(0.000823891 0 -0.192248)
(0.00243694 0 -0.216509)
(0.00277819 0 -0.191834)
(0.00649334 0 -0.327916)
(0.00706737 0 -0.243916)
(0.00958485 0 -0.537084)
(0.0140578 0 -0.415544)
(-0.00334729 0 -0.62348)
(0.00617752 0 -0.654453)
(-0.0102879 0 -0.448418)
(-0.0128115 0 -0.58388)
(-0.00507533 0 -0.23339)
(-0.0128086 0 -0.313101)
(-0.00186128 0 -0.129448)
(-0.00569024 0 -0.158178)
(-0.000714429 0 -0.0931189)
(-0.00251083 0 -0.102817)
(-0.000364009 0 -0.0822337)
(-0.00128204 0 -0.0857777)
(-0.000226438 0 -0.0761877)
(-0.00076692 0 -0.0790944)
(-0.000164992 0 -0.0703487)
(-0.000511639 0 -0.0735396)
(-0.000130487 0 -0.0639142)
(-0.000370759 0 -0.0674033)
(-0.000105866 0 -0.0570686)
(-0.000280467 0 -0.0606845)
(-8.55637e-05 0 -0.050133)
(-0.000214945 0 -0.0537228)
(-6.78577e-05 0 -0.0433533)
(-0.000163392 0 -0.0468155)
(-5.22218e-05 0 -0.0368844)
(-0.000120984 0 -0.0401584)
(-3.8467e-05 0 -0.0308153)
(-8.5349e-05 0 -0.0338674)
(-2.64836e-05 0 -0.0251947)
(-5.51612e-05 0 -0.028007)
(-1.61651e-05 0 -0.0200465)
(-2.95729e-05 0 -0.0226109)
(-7.40352e-06 0 -0.0153803)
(-7.97702e-06 0 -0.0176942)
(-8.61051e-08 0 -0.0111972)
(1.01186e-05 0 -0.0132614)
(5.92759e-06 0 -0.0074932)
(2.51018e-05 0 -0.00931052)
(1.07346e-05 0 -0.00426129)
(3.72996e-05 0 -0.00583576)
(1.44483e-05 0 -0.0014927)
(4.70161e-05 0 -0.0028291)
(1.74776e-05 0 0.000822963)
(5.53209e-05 0 -0.0002816)
(1.95363e-05 0 0.00269728)
(6.19347e-05 0 0.00181925)
(2.10227e-05 0 0.00414438)
(6.65637e-05 0 0.00348399)
(2.20653e-05 0 0.0051824)
(7.02093e-05 0 0.00472944)
(2.27989e-05 0 0.00583323)
(7.3112e-05 0 0.00557534)
(2.33504e-05 0 0.00612327)
(7.54621e-05 0 0.00604555)
(2.38189e-05 0 0.00608426)
(7.7439e-05 0 0.00616888)
(2.42644e-05 0 0.00575387)
(7.91593e-05 0 0.0059799)
(2.47069e-05 0 0.00517548)
(8.06662e-05 0 0.0055193)
(2.51383e-05 0 0.0043966)
(8.19511e-05 0 0.00483305)
(2.55099e-05 0 0.00346612)
(8.29897e-05 0 0.00397016)
(2.55718e-05 0 0.00243611)
(8.3747e-05 0 0.00297999)
(2.40304e-05 0 0.00136774)
(8.32301e-05 0 0.00192086)
(7.63784e-05 0 0.000865)
(-5.57868e-05 0 0.00140913)
(-9.57942e-05 0 0.000901751)
(-5.39805e-05 0 0.00239674)
(-9.45988e-05 0 0.00193857)
(-5.49777e-05 0 0.00341874)
(-9.40418e-05 0 0.002883)
(-5.63305e-05 0 0.00464939)
(-9.57946e-05 0 0.0039916)
(-5.7146e-05 0 0.00615769)
(-9.73027e-05 0 0.00535142)
(-5.70872e-05 0 0.00798842)
(-9.79833e-05 0 0.00701567)
(-5.58715e-05 0 0.0101683)
(-9.7603e-05 0 0.0090212)
(-5.3319e-05 0 0.0127003)
(-9.58725e-05 0 0.0113846)
(-4.94586e-05 0 0.0155572)
(-9.26635e-05 0 0.0140947)
(-4.46059e-05 0 0.0186794)
(-8.81297e-05 0 0.0171084)
(-3.93846e-05 0 0.0219765)
(-8.2772e-05 0 0.0203493)
(-3.46641e-05 0 0.0253335)
(-7.74235e-05 0 0.0237124)
(-3.14226e-05 0 0.0286201)
(-7.31401e-05 0 0.0270723)
(-3.05641e-05 0 0.0317013)
(-7.10203e-05 0 0.0302933)
(-3.27385e-05 0 0.034446)
(-7.19912e-05 0 0.0332399)
(-3.82131e-05 0 0.0367338)
(-7.66215e-05 0 0.035785)
(-4.68144e-05 0 0.0384564)
(-8.50031e-05 0 0.0378138)
(-5.79372e-05 0 0.0395166)
(-9.67121e-05 0 0.0392242)
(-7.05989e-05 0 0.0398249)
(-0.000110836 0 0.0399234)
(-8.3514e-05 0 0.039298)
(-0.000126047 0 0.039825)
(-9.52019e-05 0 0.0378631)
(-0.000140703 0 0.0388486)
(-0.000104178 0 0.0354758)
(-0.000153009 0 0.0369297)
(-0.000109295 0 0.032157)
(-0.000161323 0 0.0340458)
(-0.000110196 0 0.0280453)
(-0.000164645 0 0.0302643)
(-0.000107607 0 0.0234409)
(-0.000163124 0 0.0258008)
(-0.000102959 0 0.0187849)
(-0.000158087 0 0.021046)
(-9.72362e-05 0 0.0145233)
(-0.000151098 0 0.0164953)
(-8.99707e-05 0 0.0108725)
(-0.000142462 0 0.012542)
(-7.95084e-05 0 0.00761775)
(-0.00013064 0 0.00921474)
(-6.41731e-05 0 0.00408449)
(-0.00011338 0 0.00604128)
(-3.65484e-05 0 -0.00147587)
(-8.52631e-05 0 0.00179823)
(3.88006e-06 0 -0.00917229)
(-4.15107e-05 0 -0.00465694)
(6.17289e-05 0 -0.0194812)
(2.20571e-05 0 -0.013605)
(0.000141303 0 -0.032481)
(0.00011072 0 -0.025291)
(0.000240568 0 -0.0479471)
(0.000224863 0 -0.0396218)
(0.000349914 0 -0.0653613)
(0.00035784 0 -0.0562324)
(0.00045126 0 -0.0838629)
(0.000492801 0 -0.0744421)
(0.000522393 0 -0.102257)
(0.000604634 0 -0.0932026)
(0.000547211 0 -0.1192)
(0.00066864 0 -0.111174)
(0.000527694 0 -0.133587)
(0.000675036 0 -0.127021)
(0.000487402 0 -0.144995)
(0.00063985 0 -0.139892)
(0.000460346 0 -0.153891)
(0.000600134 0 -0.149814)
(0.000473272 0 -0.161416)
(0.000594595 0 -0.157695)
(0.000536773 0 -0.168904)
(0.000646055 0 -0.164898)
(0.0006483 0 -0.177462)
(0.000758133 0 -0.172712)
(0.000799207 0 -0.187817)
(0.000922557 0 -0.18205)
(0.000977406 0 -0.200374)
(0.00112585 0 -0.193445)
(0.00116163 0 -0.215283)
(0.00134803 0 -0.207166)
(0.001309 0 -0.232301)
(0.00155178 0 -0.223223)
(0.00134788 0 -0.250417)
(0.00166906 0 -0.241097)
(0.00119762 0 -0.267516)
(0.00160505 0 -0.259266)
(0.000825475 0 -0.280652)
(0.00128288 0 -0.275045)
(0.000304146 0 -0.28724)
(0.000722091 0 -0.285312)
(-0.000207026 0 -0.286538)
(7.15639e-05 0 -0.288126)
(-0.000574132 0 -0.279992)
(-0.000474093 0 -0.283979)
(-0.000759008 0 -0.270087)
(-0.000804228 0 -0.275215)
(-0.000807578 0 -0.258743)
(-0.000929513 0 -0.26436)
(-0.000771499 0 -0.246454)
(-0.000913033 0 -0.25268)
(-0.000633953 0 -0.23257)
(-0.000777991 0 -0.239926)
(-0.000259303 0 -0.216582)
(-0.000441353 0 -0.225141)
(0.000649369 0 -0.20036)
(0.000342692 0 -0.208409)
(0.00270246 0 -0.192635)
(0.00205507 0 -0.193617)
(0.00704052 0 -0.218928)
(0.00542462 0 -0.194726)
(0.0141541 0 -0.330772)
(0.011765 0 -0.248658)
(0.0162434 0 -0.533819)
(0.0212678 0 -0.416937)
(-0.00566148 0 -0.61686)
(0.00898662 0 -0.63985)
(-0.0191146 0 -0.448558)
(-0.0190655 0 -0.574911)
(-0.0124786 0 -0.237065)
(-0.0201645 0 -0.317525)
(-0.00598444 0 -0.131372)
(-0.0101576 0 -0.162507)
(-0.00280123 0 -0.0938142)
(-0.00516638 0 -0.104939)
(-0.00158836 0 -0.082548)
(-0.00288071 0 -0.0867671)
(-0.00100218 0 -0.0763719)
(-0.0017949 0 -0.079596)
(-0.000692594 0 -0.070493)
(-0.00120273 0 -0.0738174)
(-0.000507384 0 -0.0640488)
(-0.000853658 0 -0.0675775)
(-0.000381746 0 -0.0572015)
(-0.000625275 0 -0.0608084)
(-0.000287791 0 -0.0502649)
(-0.000461927 0 -0.05382)
(-0.000213042 0 -0.0434829)
(-0.000337088 0 -0.0468966)
(-0.000151504 0 -0.0370101)
(-0.000237427 0 -0.0402284)
(-9.99833e-05 0 -0.0309362)
(-0.000155757 0 -0.0339289)
(-5.65718e-05 0 -0.0253098)
(-8.78647e-05 0 -0.0280615)
(-2.0009e-05 0 -0.0201553)
(-3.1052e-05 0 -0.0226591)
(1.07007e-05 0 -0.0154824)
(1.65028e-05 0 -0.0177367)
(3.6296e-05 0 -0.0112923)
(5.62076e-05 0 -0.0132986)
(5.73642e-05 0 -0.0075811)
(8.91955e-05 0 -0.00934274)
(7.44258e-05 0 -0.00434184)
(0.000116362 0 -0.00586319)
(8.78775e-05 0 -0.00156576)
(0.000138401 0 -0.00285184)
(0.000100858 0 0.000756813)
(0.000156579 0 -0.000304617)
(0.000109225 0 0.00263745)
(0.000171245 0 0.00180361)
(0.000116015 0 0.00409087)
(0.000182715 0 0.00347067)
(0.000121486 0 0.00513508)
(0.000192038 0 0.00471816)
(0.000125957 0 0.00579188)
(0.000199608 0 0.00556566)
(0.000129704 0 0.00608766)
(0.000205843 0 0.00603704)
(0.000132923 0 0.00605422)
(0.000211089 0 0.00616122)
(0.000135711 0 0.00572931)
(0.000215562 0 0.00597296)
(0.000138076 0 0.00515636)
(0.000219357 0 0.00551313)
(0.000139978 0 0.00438289)
(0.000222478 0 0.00482786)
(0.000141306 0 0.00345836)
(0.00022494 0 0.00396636)
(0.000141522 0 0.00243854)
(0.000226736 0 0.00297932)
(0.000138427 0 0.00139292)
(0.00022693 0 0.00193047)
(0.000219126 0 0.000896289)
(-0.000132936 0 0.00140463)
(-0.000188014 0 0.000897532)
(-0.000133153 0 0.00239934)
(-0.000189475 0 0.00193924)
(-0.000134927 0 0.00342563)
(-0.000190709 0 0.00288826)
(-0.000136811 0 0.00465628)
(-0.00019296 0 0.00399692)
(-0.000138163 0 0.00616323)
(-0.000194729 0 0.00535505)
(-0.000138605 0 0.00799206)
(-0.000195655 0 0.00701679)
(-0.000137784 0 0.0101698)
(-0.000195471 0 0.00901917)
(-0.00013545 0 0.0126998)
(-0.000193842 0 0.0113791)
(-0.000131586 0 0.0155554)
(-0.00019061 0 0.0140861)
(-0.000126514 0 0.0186777)
(-0.000185926 0 0.0170975)
(-0.000120939 0 0.0219766)
(-0.000180335 0 0.0203379)
(-0.000115886 0 0.0253372)
(-0.000174771 0 0.0237026)
(-0.00011255 0 0.028629)
(-0.000170443 0 0.0270661)
(-0.000112082 0 0.0317162)
(-0.000168643 0 0.0302924)
(-0.000115361 0 0.0344673)
(-0.000170486 0 0.0332453)
(-0.000122809 0 0.0367608)
(-0.000176696 0 0.0357968)
(-0.000134287 0 0.0384877)
(-0.000187432 0 0.0378312)
(-0.000149073 0 0.0395503)
(-0.00020223 0 0.0392456)
(-0.00016591 0 0.0398587)
(-0.000220006 0 0.0399466)
(-0.000183093 0 0.0393296)
(-0.000239128 0 0.0398476)
(-0.000198627 0 0.0378902)
(-0.000257537 0 0.0388681)
(-0.000210508 0 0.0354969)
(-0.000272956 0 0.0369439)
(-0.000217179 0 0.0321714)
(-0.000283278 0 0.0340533)
(-0.000218107 0 0.0280539)
(-0.000287169 0 0.0302652)
(-0.000214117 0 0.0234459)
(-0.000284681 0 0.0257965)
(-0.000206866 0 0.0187886)
(-0.0002773 0 0.0210388)
(-0.000197382 0 0.0145268)
(-0.000266791 0 0.0164863)
(-0.000184772 0 0.0108753)
(-0.000253358 0 0.0125306)
(-0.000166476 0 0.00761812)
(-0.000234837 0 0.00919904)
(-0.000139416 0 0.0040801)
(-0.000208032 0 0.00601921)
(-9.28712e-05 0 -0.00148963)
(-0.000165341 0 0.00176724)
(-2.62844e-05 0 -0.00919987)
(-0.000100175 0 -0.00470125)
(6.75824e-05 0 -0.0195262)
(-7.52005e-06 0 -0.0136674)
(0.000191273 0 -0.0325437)
(0.00011867 0 -0.0253734)
(0.000341147 0 -0.0480218)
(0.000277746 0 -0.0397216)
(0.000503102 0 -0.0654358)
(0.000460184 0 -0.0563402)
(0.000652234 0 -0.0839193)
(0.000643848 0 -0.0745414)
(0.00075925 0 -0.102279)
(0.000796828 0 -0.0932738)
(0.000803967 0 -0.11918)
(0.000888655 0 -0.111204)
(0.000790194 0 -0.133535)
(0.000908028 0 -0.127012)
(0.000749461 0 -0.144936)
(0.000875673 0 -0.139865)
(0.000726697 0 -0.153851)
(0.000838148 0 -0.149799)
(0.000758044 0 -0.161411)
(0.000844091 0 -0.157716)
(0.000858815 0 -0.168939)
(0.000922605 0 -0.164965)
(0.00102601 0 -0.177533)
(0.00107864 0 -0.172823)
(0.00124631 0 -0.187914)
(0.00130111 0 -0.182197)
(0.00149906 0 -0.200482)
(0.0015705 0 -0.193614)
(0.00174952 0 -0.215372)
(0.00185746 0 -0.207333)
(0.00193536 0 -0.232323)
(0.00211045 0 -0.223347)
(0.00196142 0 -0.250308)
(0.00224231 0 -0.241115)
(0.00172868 0 -0.267227)
(0.00213794 0 -0.25911)
(0.00120405 0 -0.280201)
(0.00170901 0 -0.274695)
(0.000486424 0 -0.286726)
(0.000985985 0 -0.284834)
(-0.000220235 0 -0.286083)
(0.00015356 0 -0.287655)
(-0.000738354 0 -0.279675)
(-0.000549098 0 -0.283634)
(-0.0010065 0 -0.26991)
(-0.000979965 0 -0.275037)
(-0.00106439 0 -0.258672)
(-0.00113869 0 -0.264322)
(-0.000958238 0 -0.246479)
(-0.00108723 0 -0.252751)
(-0.000645566 0 -0.232759)
(-0.000839264 0 -0.240135)
(7.77235e-05 0 -0.217116)
(-0.000281332 0 -0.225623)
(0.0015892 0 -0.201599)
(0.000894778 0 -0.209417)
(0.00461107 0 -0.19525)
(0.00324627 0 -0.195631)
(0.0102112 0 -0.223514)
(0.00754237 0 -0.19846)
(0.0182127 0 -0.334301)
(0.0147667 0 -0.253993)
(0.0188431 0 -0.525581)
(0.0247951 0 -0.417357)
(-0.00651225 0 -0.60222)
(0.0101531 0 -0.622946)
(-0.0232174 0 -0.44529)
(-0.0219612 0 -0.563775)
(-0.0170747 0 -0.242065)
(-0.024369 0 -0.321621)
(-0.00930513 0 -0.135258)
(-0.0134254 0 -0.167687)
(-0.00489014 0 -0.0957053)
(-0.00746176 0 -0.107883)
(-0.00296702 0 -0.0835213)
(-0.0044022 0 -0.088336)
(-0.00192398 0 -0.0768956)
(-0.00283943 0 -0.0804884)
(-0.00132312 0 -0.0707978)
(-0.00192892 0 -0.0743565)
(-0.000947026 0 -0.0642447)
(-0.00136297 0 -0.0679314)
(-0.000690084 0 -0.0573401)
(-0.000982064 0 -0.0610619)
(-0.000501056 0 -0.0503706)
(-0.000707532 0 -0.0540156)
(-0.000354339 0 -0.0435678)
(-0.00049864 0 -0.0470558)
(-0.000236403 0 -0.0370804)
(-0.000333454 0 -0.0403627)
(-0.000139574 0 -0.0309954)
(-0.000199461 0 -0.0340446)
(-5.91132e-05 0 -0.02536)
(-8.89822e-05 0 -0.0281624)
(8.00356e-06 0 -0.0201977)
(2.83519e-06 0 -0.0227475)
(6.41369e-05 0 -0.015518)
(7.93534e-05 0 -0.0178143)
(0.000110891 0 -0.0113217)
(0.000143226 0 -0.0133666)
(0.000149669 0 -0.00760492)
(0.000196398 0 -0.00940192)
(0.000181717 0 -0.00436056)
(0.00024047 0 -0.00591455)
(0.000208257 0 -0.00157985)
(0.000276744 0 -0.00289651)
(0.000227677 0 0.000746375)
(0.000305775 0 -0.000338973)
(0.000245296 0 0.0026297)
(0.000329331 0 0.00177091)
(0.000259325 0 0.00408526)
(0.000349038 0 0.00344333)
(0.000270633 0 0.00513093)
(0.00036508 0 0.00469502)
(0.000279881 0 0.0057885)
(0.000378122 0 0.0055458)
(0.000287566 0 0.00608448)
(0.000388856 0 0.00601973)
(0.000294036 0 0.00605087)
(0.000397796 0 0.00614595)
(0.000299496 0 0.00572564)
(0.000405292 0 0.00595946)
(0.00030404 0 0.00515243)
(0.00041154 0 0.00550136)
(0.000307702 0 0.00437898)
(0.000416626 0 0.00481793)
(0.000310448 0 0.00345569)
(0.000420625 0 0.00395856)
(0.000311784 0 0.00244145)
(0.00042355 0 0.00297534)
(0.000310244 0 0.00140727)
(0.000425053 0 0.00193526)
(0.000420579 0 0.000912137)
(-0.000244115 0 0.00140713)
(-0.000316445 0 0.000900938)
(-0.000246361 0 0.00240503)
(-0.000319639 0 0.00194622)
(-0.000248837 0 0.00343216)
(-0.000322497 0 0.00289558)
(-0.00025088 0 0.00466188)
(-0.000324994 0 0.00400266)
(-0.000252203 0 0.00616706)
(-0.000326755 0 0.00535856)
(-0.000252552 0 0.00799367)
(-0.000327622 0 0.00701762)
(-0.000251604 0 0.010169)
(-0.00032734 0 0.00901677)
(-0.000249114 0 0.0126968)
(-0.000325591 0 0.0113732)
(-0.000245084 0 0.0155513)
(-0.000322226 0 0.014077)
(-0.000239872 0 0.0186741)
(-0.000317419 0 0.0170864)
(-0.000234246 0 0.0219758)
(-0.000311757 0 0.0203264)
(-0.000229324 0 0.0253416)
(-0.00030624 0 0.023693)
(-0.000226416 0 0.0286408)
(-0.000302171 0 0.0270607)
(-0.000226794 0 0.0317369)
(-0.000300944 0 0.030293)
(-0.00023144 0 0.0344974)
(-0.000303779 0 0.033253)
(-0.000240836 0 0.0367999)
(-0.000311474 0 0.0358117)
(-0.000254837 0 0.0385343)
(-0.000324219 0 0.0378525)
(-0.000272633 0 0.0396021)
(-0.000341506 0 0.0392714)
(-0.000292778 0 0.0399129)
(-0.000362127 0 0.0399745)
(-0.000313286 0 0.0393831)
(-0.000384238 0 0.0398746)
(-0.000331805 0 0.0379402)
(-0.000405487 0 0.0388914)
(-0.000345927 0 0.035541)
(-0.000423241 0 0.0369608)
(-0.000353717 0 0.0322086)
(-0.000435022 0 0.0340622)
(-0.000354363 0 0.0280848)
(-0.000439168 0 0.0302658)
(-0.000348567 0 0.0234724)
(-0.000435523 0 0.0257904)
(-0.000338017 0 0.0188132)
(-0.000425517 0 0.0210282)
(-0.000323802 0 0.0145508)
(-0.000410962 0 0.0164728)
(-0.000304901 0 0.0108979)
(-0.00039203 0 0.0125136)
(-0.000278285 0 0.00763749)
(-0.000366271 0 0.00917623)
(-0.000240113 0 0.00409358)
(-0.000329852 0 0.00598808)
(-0.000175196 0 -0.0014871)
(-0.000272992 0 0.00172402)
(-8.45075e-05 0 -0.00921343)
(-0.000187755 0 -0.00476161)
(4.08692e-05 0 -0.0195603)
(-6.88396e-05 0 -0.0137509)
(0.000202869 0 -0.0325977)
(9.04642e-05 0 -0.0254812)
(0.000396127 0 -0.0480881)
(0.000288322 0 -0.0398503)
(0.000602816 0 -0.0654977)
(0.000512753 0 -0.0564779)
(0.000792996 0 -0.0839544)
(0.000737605 0 -0.0746681)
(0.000932416 0 -0.102266)
(0.000926143 0 -0.0933667)
(0.000998221 0 -0.119113)
(0.00104417 0 -0.111247)
(0.000995709 0 -0.133429)
(0.00107973 0 -0.12701)
(0.000962062 0 -0.14482)
(0.00105694 0 -0.139843)
(0.000949834 0 -0.153759)
(0.00102876 0 -0.149791)
(0.00100168 0 -0.161364)
(0.00105042 0 -0.15775)
(0.00113609 0 -0.168942)
(0.00115527 0 -0.165055)
(0.00134937 0 -0.17758)
(0.00134906 0 -0.172966)
(0.00162407 0 -0.18799)
(0.00161829 0 -0.18238)
(0.00193228 0 -0.200562)
(0.00193826 0 -0.193819)
(0.00222857 0 -0.215415)
(0.00227174 0 -0.20753)
(0.00243658 0 -0.232263)
(0.00255607 0 -0.223485)
(0.00244569 0 -0.250068)
(0.00269098 0 -0.241121)
(0.00214666 0 -0.266758)
(0.00254976 0 -0.258911)
(0.00150882 0 -0.279531)
(0.00204003 0 -0.27427)
(0.000650278 0 -0.285979)
(0.00120234 0 -0.284261)
(-0.000194827 0 -0.285416)
(0.00024475 0 -0.287092)
(-0.000818872 0 -0.279187)
(-0.000565614 0 -0.283218)
(-0.00114075 0 -0.269618)
(-0.00106444 0 -0.274822)
(-0.00119027 0 -0.258548)
(-0.00123899 0 -0.264289)
(-0.00100515 0 -0.246528)
(-0.00114488 0 -0.252874)
(-0.000526901 0 -0.233079)
(-0.000787126 0 -0.240454)
(0.000476388 0 -0.217939)
(-3.08351e-05 0 -0.226292)
(0.00244316 0 -0.203346)
(0.00145288 0 -0.210728)
(0.00606938 0 -0.198572)
(0.00424112 0 -0.198049)
(0.012338 0 -0.228607)
(0.00912957 0 -0.202639)
(0.0205836 0 -0.337109)
(0.0166667 0 -0.25949)
(0.0198722 0 -0.51571)
(0.0262579 0 -0.416883)
(-0.00690317 0 -0.585866)
(0.0104169 0 -0.605096)
(-0.0254085 0 -0.440708)
(-0.0230636 0 -0.551438)
(-0.0200618 0 -0.247043)
(-0.0266798 0 -0.325185)
(-0.0117108 0 -0.139937)
(-0.0157333 0 -0.173254)
(-0.00657998 0 -0.0983049)
(-0.00925947 0 -0.111303)
(-0.00417881 0 -0.0849964)
(-0.0056708 0 -0.0902949)
(-0.00278315 0 -0.0777581)
(-0.00375945 0 -0.0816826)
(-0.00192953 0 -0.0713315)
(-0.00258963 0 -0.0751226)
(-0.00137183 0 -0.0645993)
(-0.00183056 0 -0.0684563)
(-0.000981805 0 -0.0575932)
(-0.00130489 0 -0.0614469)
(-0.000692678 0 -0.0505625)
(-0.000919904 0 -0.0543149)
(-0.000468653 0 -0.0437201)
(-0.000624966 0 -0.0472991)
(-0.000289596 0 -0.0372051)
(-0.000391446 0 -0.0405667)
(-0.000143529 0 -0.0310994)
(-0.00020229 0 -0.0342193)
(-2.29162e-05 0 -0.0254477)
(-4.66464e-05 0 -0.0283137)
(7.75591e-05 0 -0.0202719)
(8.24216e-05 0 -0.0228797)
(0.000161325 0 -0.0155808)
(0.000189895 0 -0.01793)
(0.000231125 0 -0.0113745)
(0.000279672 0 -0.0134678)
(0.000289134 0 -0.00764894)
(0.000354469 0 -0.00949019)
(0.000337092 0 -0.004397)
(0.000416562 0 -0.00599116)
(0.000376454 0 -0.00160995)
(0.00046796 0 -0.00296252)
(0.000407724 0 0.000722069)
(0.000509768 0 -0.000394029)
(0.000434083 0 0.00261066)
(0.00054402 0 0.00172219)
(0.000455627 0 0.00407032)
(0.000572486 0 0.00340152)
(0.000473221 0 0.00511899)
(0.000595698 0 0.00465918)
(0.000487643 0 0.00577863)
(0.000614697 0 0.00551497)
(0.000499554 0 0.00607596)
(0.000630354 0 0.00599303)
(0.000509452 0 0.00604321)
(0.000643322 0 0.00612269)
(0.000517671 0 0.00571864)
(0.000654078 0 0.00593922)
(0.00052441 0 0.0051461)
(0.00066293 0 0.00548399)
(0.000529791 0 0.00437355)
(0.000670063 0 0.00480341)
(0.000533859 0 0.00345216)
(0.000675605 0 0.00394706)
(0.000536335 0 0.0024425)
(0.000679573 0 0.00296802)
(0.000536497 0 0.00141469)
(0.000682112 0 0.00193478)
(0.000680711 0 0.000917812)
(-0.000392174 0 0.00141514)
(-0.000483602 0 0.000908212)
(-0.000395604 0 0.00241421)
(-0.000487174 0 0.00195689)
(-0.000398662 0 0.00343976)
(-0.000491085 0 0.00290463)
(-0.000400862 0 0.00466716)
(-0.000493797 0 0.00400885)
(-0.000402162 0 0.00616984)
(-0.000495594 0 0.00536203)
(-0.000402429 0 0.00799357)
(-0.000496462 0 0.00701825)
(-0.000401378 0 0.0101656)
(-0.000496165 0 0.00901412)
(-0.000398781 0 0.0126903)
(-0.000494399 0 0.011367)
(-0.000394658 0 0.0155423)
(-0.000491025 0 0.0140677)
(-0.000389399 0 0.0186641)
(-0.00048623 0 0.0170751)
(-0.000383815 0 0.0219669)
(-0.000480625 0 0.020315)
(-0.000379087 0 0.0253362)
(-0.000475254 0 0.0236838)
(-0.000376603 0 0.0286411)
(-0.000471475 0 0.0270561)
(-0.000377716 0 0.0317446)
(-0.000470752 0 0.0302949)
(-0.000383479 0 0.0345131)
(-0.000474376 0 0.0332626)
(-0.000394415 0 0.0368232)
(-0.0004832 0 0.0358291)
(-0.000410371 0 0.0385638)
(-0.000497433 0 0.0378767)
(-0.000430462 0 0.0396356)
(-0.000516539 0 0.0393005)
(-0.000453098 0 0.0399475)
(-0.000539217 0 0.0400057)
(-0.000476077 0 0.0394156)
(-0.000563465 0 0.0399049)
(-0.000496768 0 0.0379676)
(-0.000586707 0 0.0389173)
(-0.000512452 0 0.0355609)
(-0.000606047 0 0.0369795)
(-0.000520881 0 0.0322199)
(-0.000618723 0 0.0340717)
(-0.000520981 0 0.0280882)
(-0.000622799 0 0.0302658)
(-0.000513273 0 0.0234698)
(-0.000617897 0 0.0257823)
(-0.000499352 0 0.0188067)
(-0.000605289 0 0.0210144)
(-0.000480249 0 0.0145409)
(-0.000586681 0 0.0164547)
(-0.000454816 0 0.0108833)
(-0.000562127 0 0.0124907)
(-0.000419663 0 0.00761571)
(-0.000528959 0 0.00914614)
(-0.000370306 0 0.00406148)
(-0.000482938 0 0.00594786)
(-0.000287876 0 -0.00153555)
(-0.000412297 0 0.00166915)
(-0.000174752 0 -0.0092834)
(-0.000308094 0 -0.0048369)
(-2.14239e-05 0 -0.0196557)
(-0.000165233 0 -0.0138529)
(0.000174007 0 -0.0327172)
(2.3291e-05 0 -0.0256113)
(0.000404413 0 -0.0482229)
(0.000254515 0 -0.0400037)
(0.000648994 0 -0.0656302)
(0.000514527 0 -0.0566408)
(0.000874211 0 -0.0840611)
(0.000774121 0 -0.0748181)
(0.00104257 0 -0.102327)
(0.000993334 0 -0.0934789)
(0.00112984 0 -0.119121)
(0.00113585 0 -0.111306)
(0.00114265 0 -0.133399)
(0.00118971 0 -0.127019)
(0.00112196 0 -0.144786)
(0.00118147 0 -0.139829)
(0.00112509 0 -0.153754)
(0.001168 0 -0.149793)
(0.00119879 0 -0.161411)
(0.00120851 0 -0.1578)
(0.00136357 0 -0.169047)
(0.00133885 0 -0.165165)
(0.00161501 0 -0.177734)
(0.00156514 0 -0.173133)
(0.00193221 0 -0.188176)
(0.00187183 0 -0.182592)
(0.00228119 0 -0.200752)
(0.00222991 0 -0.194052)
(0.002608 0 -0.215564)
(0.00259564 0 -0.207748)
(0.00282612 0 -0.232303)
(0.00289808 0 -0.223631)
(0.00281579 0 -0.24992)
(0.00302849 0 -0.241113)
(0.00246435 0 -0.266376)
(0.00285514 0 -0.258676)
(0.00174662 0 -0.278948)
(0.00228721 0 -0.273791)
(0.000794127 0 -0.285321)
(0.00137425 0 -0.283626)
(-0.000141704 0 -0.284842)
(0.000337864 0 -0.286468)
(-0.000834432 0 -0.278803)
(-0.000539526 0 -0.282756)
(-0.00118756 0 -0.269447)
(-0.00107905 0 -0.274587)
(-0.00121913 0 -0.258571)
(-0.00125594 0 -0.264268)
(-0.00095726 0 -0.246756)
(-0.00111649 0 -0.253049)
(-0.000332793 0 -0.23362)
(-0.000659153 0 -0.24087)
(0.000899273 0 -0.219028)
(0.000263737 0 -0.227113)
(0.00318198 0 -0.205377)
(0.00198038 0 -0.21225)
(0.00719788 0 -0.202085)
(0.00505069 0 -0.200726)
(0.0137682 0 -0.233542)
(0.0102717 0 -0.207019)
(0.0216693 0 -0.339287)
(0.0177246 0 -0.264757)
(0.019591 0 -0.506089)
(0.026291 0 -0.415497)
(-0.00691364 0 -0.570362)
(0.010077 0 -0.587427)
(-0.0259859 0 -0.435812)
(-0.0229456 0 -0.538723)
(-0.0218557 0 -0.251439)
(-0.0275843 0 -0.327939)
(-0.0134638 0 -0.144631)
(-0.0172548 0 -0.178849)
(-0.00790866 0 -0.10115)
(-0.0106013 0 -0.115006)
(-0.00517428 0 -0.0867393)
(-0.00667446 0 -0.0925256)
(-0.00351332 0 -0.0788596)
(-0.00451694 0 -0.083104)
(-0.00245437 0 -0.0720652)
(-0.00314198 0 -0.0760731)
(-0.00173798 0 -0.0651196)
(-0.00221891 0 -0.0691308)
(-0.0012246 0 -0.057985)
(-0.00156341 0 -0.0619539)
(-0.000838543 0 -0.0508725)
(-0.00107493 0 -0.0547148)
(-0.000537336 0 -0.0439746)
(-0.000696685 0 -0.0476264)
(-0.000295975 0 -0.0374196)
(-0.000395418 0 -0.0408418)
(-9.89907e-05 0 -0.0312833)
(-0.000150612 0 -0.0344548)
(6.37175e-05 0 -0.0256071)
(5.1059e-05 0 -0.0285178)
(0.000198996 0 -0.0204109)
(0.00021849 0 -0.0230577)
(0.000311855 0 -0.0157021)
(0.000358167 0 -0.0180858)
(0.000406021 0 -0.0114803)
(0.000474971 0 -0.0136041)
(0.000484408 0 -0.00774101)
(0.000572484 0 -0.00960924)
(0.000549389 0 -0.00447682)
(0.000653661 0 -0.00609471)
(0.000602973 0 -0.001679)
(0.000721075 0 -0.00305213)
(0.000647475 0 0.000662565)
(0.000776806 0 -0.000472147)
(0.000683722 0 0.00255957)
(0.000822806 0 0.0016554)
(0.000713506 0 0.00402639)
(0.000860699 0 0.00334391)
(0.00073796 0 0.00508109)
(0.000891782 0 0.00460953)
(0.000758079 0 0.00574575)
(0.000917357 0 0.00547212)
(0.000774689 0 0.00604727)
(0.000938449 0 0.00595594)
(0.000788423 0 0.00601814)
(0.000955866 0 0.00609055)
(0.000799728 0 0.00569691)
(0.000970208 0 0.00591151)
(0.000808897 0 0.00512763)
(0.000981888 0 0.00546045)
(0.000816125 0 0.00435845)
(0.000991181 0 0.00478397)
(0.000821535 0 0.00344095)
(0.000998289 0 0.00393183)
(0.000825085 0 0.00243649)
(0.00100324 0 0.00295756)
(0.000826601 0 0.00141399)
(0.00100661 0 0.00193011)
(0.00100683 0 0.000917752)
(-0.000579087 0 0.00142501)
(-0.000690391 0 0.000916079)
(-0.000582852 0 0.00242488)
(-0.000693269 0 0.00196858)
(-0.000586155 0 0.00344768)
(-0.000697576 0 0.00291438)
(-0.00058849 0 0.00467189)
(-0.000700355 0 0.00401538)
(-0.000589871 0 0.00617156)
(-0.000702203 0 0.00536566)
(-0.000590205 0 0.00799204)
(-0.000703149 0 0.007019)
(-0.000589228 0 0.0101605)
(-0.000702945 0 0.0090116)
(-0.000586719 0 0.0126815)
(-0.000701291 0 0.011361)
(-0.000582699 0 0.0155307)
(-0.000698046 0 0.0140586)
(-0.000577568 0 0.0186511)
(-0.000693402 0 0.0170641)
(-0.000572158 0 0.0219545)
(-0.00068798 0 0.0203039)
(-0.000567683 0 0.0253268)
(-0.000682839 0 0.0236751)
(-0.000565577 0 0.0286369)
(-0.000679371 0 0.0270521)
(-0.000567249 0 0.0317472)
(-0.000679081 0 0.0302977)
(-0.000573805 0 0.0345233)
(-0.000683306 0 0.0332735)
(-0.000585805 0 0.0368405)
(-0.00069294 0 0.0358482)
(-0.000603096 0 0.0385868)
(-0.000708213 0 0.037903)
(-0.000624746 0 0.0396619)
(-0.000728569 0 0.0393318)
(-0.000649059 0 0.0399742)
(-0.000752641 0 0.0400393)
(-0.000673673 0 0.0394394)
(-0.000778311 0 0.0399372)
(-0.00069575 0 0.0379852)
(-0.000802838 0 0.0389449)
(-0.000712337 0 0.0355699)
(-0.000823128 0 0.0369992)
(-0.000720952 0 0.032219)
(-0.000836204 0 0.0340814)
(-0.000720301 0 0.0280779)
(-0.00083992 0 0.030265)
(-0.000710705 0 0.0234519)
(-0.000833685 0 0.0257722)
(-0.000693566 0 0.018783)
(-0.00081856 0 0.0209973)
(-0.000669728 0 0.0145116)
(-0.00079605 0 0.0164322)
(-0.00063784 0 0.0108469)
(-0.000765999 0 0.012462)
(-0.000594181 0 0.00756923)
(-0.000725493 0 0.0091088)
(-0.000533765 0 0.00400174)
(-0.000670062 0 0.00589864)
(-0.000434691 0 -0.00161542)
(-0.000586274 0 0.0016032)
(-0.000300688 0 -0.0093887)
(-0.000464209 0 -0.0049261)
(-0.000122268 0 -0.0197901)
(-0.000299435 0 -0.0139717)
(0.000102283 0 -0.0328786)
(-8.51694e-05 0 -0.0257609)
(0.000364291 0 -0.0484015)
(0.00017476 0 -0.0401782)
(0.00064077 0 -0.0658073)
(0.00046493 0 -0.056825)
(0.00089575 0 -0.0842127)
(0.000753864 0 -0.074988)
(0.0010899 0 -0.102432)
(0.000999645 0 -0.0936083)
(0.0011986 0 -0.119175)
(0.00116502 0 -0.111378)
(0.00122968 0 -0.133418)
(0.00123851 0 -0.12704)
(0.00122634 0 -0.144803)
(0.00124827 0 -0.139827)
(0.00124845 0 -0.153804)
(0.00125329 0 -0.149808)
(0.00134492 0 -0.161517)
(0.0013147 0 -0.157864)
(0.00153723 0 -0.169214)
(0.00146954 0 -0.165293)
(0.00182019 0 -0.177953)
(0.0017239 0 -0.173322)
(0.00217005 0 -0.188428)
(0.00206053 0 -0.182825)
(0.00254789 0 -0.201006)
(0.00244686 0 -0.194304)
(0.00289324 0 -0.215771)
(0.00283403 0 -0.207978)
(0.00311287 0 -0.232393)
(0.00314526 0 -0.223777)
(0.00308305 0 -0.249816)
(0.00326709 0 -0.241093)
(0.0026926 0 -0.266032)
(0.0030675 0 -0.258416)
(0.00192335 0 -0.278405)
(0.00246088 0 -0.273278)
(0.000915592 0 -0.284706)
(0.00150447 0 -0.282954)
(-7.16862e-05 0 -0.284316)
(0.000425991 0 -0.285809)
(-0.000802225 0 -0.278476)