/*--------------------------------*- C++ -*----------------------------------*\
  =========                 |
  \\      /  F ield         | OpenFOAM: The Open Source CFD Toolbox
   \\    /   O peration     | Website:  https://openfoam.org
    \\  /    A nd           | Version:  9
     \\/     M anipulation  |
\*---------------------------------------------------------------------------*/
FoamFile
{
    format      ascii;
    class       surfaceScalarField;
    location    "0.02";
    object      alphaPhi0.water;
}
// * * * * * * * * * * * * * * * * * * * * * * * * * * * * * * * * * * * * * //

dimensions      [0 3 -1 0 0 0 0];

internalField   nonuniform List<scalar> 
9850
(
6.3622e-272
7.88015e-272
2.85428e-271
3.70558e-271
1.24935e-270
1.7002e-270
5.6237e-270
8.02197e-270
2.61073e-269
3.90336e-269
1.25027e-268
1.95917e-268
6.17713e-268
1.01443e-267
3.1488e-267
5.41903e-267
1.65616e-266
2.9867e-266
8.98816e-266
1.69843e-265
5.03338e-265
9.96535e-265
2.90847e-264
6.03288e-264
1.73409e-263
3.76814e-263
1.06673e-262
2.42813e-262
6.76981e-262
1.61407e-261
4.43185e-261
1.10668e-260
2.99236e-260
7.82536e-260
2.08342e-259
5.70535e-259
1.49546e-258
4.28796e-258
1.10632e-257
3.32113e-257
8.43241e-257
2.64997e-256
6.61949e-256
2.17746e-255
5.34948e-255
1.84171e-254
4.44842e-254
1.60267e-253
3.80437e-253
1.43415e-252
3.34427e-252
1.31895e-251
3.01998e-251
1.24589e-250
2.79977e-250
1.20804e-249
2.66309e-249
1.20158e-248
2.59744e-248
1.22532e-247
2.6064e-247
1.49907e-246
3.03227e-246
1.7368e-245
3.46152e-245
1.97443e-244
3.86895e-244
2.19765e-243
4.22995e-243
2.39268e-242
4.51917e-242
2.54561e-241
4.71305e-241
2.64374e-240
4.79263e-240
2.67717e-239
4.74626e-239
2.64026e-238
4.57171e-238
2.53268e-237
4.27724e-237
2.35986e-236
3.88127e-236
2.13276e-235
3.41062e-235
1.86671e-234
2.89748e-234
1.5797e-233
2.37551e-233
1.29023e-232
1.87591e-232
1.01516e-231
1.42394e-231
7.67869e-231
1.03664e-230
5.57151e-230
7.22071e-230
3.86863e-229
2.56403e-228
2.85741e-269
3.5395e-269
1.28119e-268
1.66348e-268
5.60443e-268
7.62763e-268
2.52117e-267
3.59666e-267
1.1697e-266
1.74899e-266
5.59818e-266
8.77303e-266
2.76416e-265
4.53973e-265
1.40817e-264
2.42359e-264
7.40194e-264
1.33493e-263
4.01468e-263
7.58661e-263
2.24687e-262
4.44865e-262
1.29755e-261
2.69152e-261
7.73168e-261
1.68012e-260
4.75341e-260
1.08201e-259
3.01495e-259
7.18835e-259
1.97264e-258
4.92588e-258
1.33119e-257
3.48117e-257
9.26354e-257
2.53671e-256
6.6459e-256
1.90552e-255
4.91415e-255
1.47514e-254
3.74386e-254
1.17647e-253
2.93766e-253
9.66252e-253
2.37307e-252
8.16913e-252
1.97261e-251
7.10605e-251
1.68643e-250
6.35655e-250
1.48202e-249
5.84402e-249
1.33795e-248
5.51874e-248
1.24012e-247
5.3498e-247
1.17939e-246
5.32022e-246
1.15019e-245
5.4246e-245
1.15411e-244
6.63607e-244
1.34273e-243
7.68843e-243
1.53297e-242
8.74111e-242
1.71375e-241
9.73097e-241
1.87419e-240
1.05973e-239
2.0031e-239
1.12787e-238
2.09004e-238
1.17187e-237
2.12656e-237
1.18736e-236
2.10743e-236
1.17176e-235
2.03154e-235
1.12488e-234
1.9024e-234
1.04906e-233
1.72803e-233
9.49052e-233
1.52021e-232
8.31593e-232
1.29309e-231
7.04608e-231
1.0616e-230
5.76281e-230
8.39576e-230
4.54097e-229
6.38318e-229
3.44038e-228
4.65505e-228
2.50064e-227
3.24848e-227
1.73961e-226
1.1553e-225
1.0548e-266
1.30674e-266
4.7279e-266
6.13943e-266
2.0675e-265
2.81421e-265
9.29775e-265
1.32656e-264
4.31235e-264
6.44881e-264
2.06327e-263
3.23379e-263
1.01847e-262
1.67288e-262
5.187e-262
8.92833e-262
2.72577e-261
4.91645e-261
1.47802e-260
2.79334e-260
8.26988e-260
1.63755e-259
4.77466e-259
9.90509e-259
2.84445e-258
6.18162e-258
1.7484e-257
3.98016e-257
1.10875e-256
2.64371e-256
7.2532e-256
1.81131e-255
4.89395e-255
1.27987e-254
3.40519e-254
9.32508e-254
2.44273e-253
7.00403e-253
1.80609e-252
5.42163e-252
1.37591e-251
4.32368e-251
1.07962e-250
3.55103e-250
8.72146e-250
3.00223e-249
7.25013e-249
2.61166e-248
6.19896e-248
2.3364e-247
5.44839e-247
2.1483e-246
4.91974e-246
2.02909e-245
4.56117e-245
1.96743e-244
4.33913e-244
1.95712e-243
4.23329e-243
1.99622e-242
4.24963e-242
2.44307e-241
4.94681e-241
2.83194e-240
5.65122e-240
3.2216e-239
6.32211e-239
3.58888e-238
6.91955e-238
3.91144e-237
7.40213e-237
4.16655e-236
7.73109e-236
4.33333e-235
7.87483e-235
4.39531e-234
7.81339e-234
4.34273e-233
7.54191e-233
4.1744e-232
7.07258e-232
3.89852e-231
6.43426e-231
3.53228e-230
5.66984e-230
3.10023e-229
4.83139e-229
2.63151e-228
3.97403e-228
2.15636e-227
3.14932e-227
1.70264e-226
2.39958e-226
1.29278e-225
1.75397e-225
9.41843e-225
1.22697e-224
6.56825e-224
4.37345e-223
3.82237e-264
4.73627e-264
1.71273e-263
2.22448e-263
7.48723e-263
1.01932e-262
3.36597e-262
4.80328e-262
1.56066e-261
2.33427e-261
7.46476e-261
1.17017e-260
3.68363e-260
6.0516e-260
1.87551e-259
3.22885e-259
9.85303e-259
1.77749e-258
5.34128e-258
1.00963e-257
2.98781e-257
5.91722e-257
1.72461e-256
3.57828e-256
1.02718e-255
2.23263e-255
6.31248e-255
1.43721e-254
4.00231e-254
9.54439e-254
2.61776e-253
6.53804e-253
1.76601e-252
4.61905e-252
1.22863e-251
3.36495e-251
8.81271e-251
2.52712e-250
6.51539e-250
1.956e-249
4.96333e-249
1.5598e-248
3.89444e-248
1.28102e-247
3.14611e-247
1.08305e-246
2.61551e-246
9.42196e-246
2.23651e-245
8.42963e-245
1.966e-244
7.75194e-244
1.77559e-243
7.32307e-243
1.64658e-242
7.10215e-242
1.5669e-241
7.06693e-241
1.52924e-240
7.21062e-240
1.53582e-239
8.82835e-239
1.78873e-238
1.02388e-237
2.04468e-237
1.16544e-236
2.28901e-236
1.29918e-235
2.50729e-235
1.41702e-234
2.68451e-234
1.51073e-233
2.80654e-233
1.5727e-232
2.86179e-232
1.59687e-231
2.8428e-231
1.5796e-230
2.74756e-230
1.5203e-229
2.58018e-229
1.42178e-228
2.35086e-228
1.29015e-227
2.07494e-227
1.13419e-226
1.7712e-226
9.64394e-226
1.45963e-225
7.91748e-225
1.15905e-224
6.26417e-224
8.85012e-224
4.76653e-223
6.48376e-223
3.48059e-222
4.54668e-222
2.43325e-221
1.6244e-220
1.38843e-261
1.72085e-261
6.21866e-261
8.07883e-261
2.7173e-260
3.70031e-260
1.22106e-259
1.74291e-259
5.65913e-259
8.46646e-259
2.70568e-258
4.24245e-258
1.33462e-257
2.1931e-257
6.79243e-257
1.16966e-256
3.56702e-256
6.43645e-256
1.93292e-255
3.65454e-255
1.08084e-254
2.14105e-254
6.23653e-254
1.29427e-253
3.71321e-253
8.07264e-253
2.28118e-252
5.19486e-252
1.44588e-251
3.44875e-251
9.45421e-251
2.36173e-250
6.37632e-250
1.66806e-249
4.43493e-249
1.21485e-248
3.18035e-248
9.12151e-248
2.35081e-247
7.05858e-247
1.7905e-246
5.62774e-246
1.4047e-245
4.62119e-245
1.13465e-244
3.90654e-244
9.43215e-244
3.39817e-243
8.06511e-243
3.04011e-242
7.08965e-242
2.79568e-241
6.40333e-241
2.6411e-240
5.93869e-240
2.56164e-239
5.65221e-239
2.5493e-238
5.51759e-238
2.60166e-237
5.54294e-237
3.1862e-236
6.45813e-236
3.69653e-235
7.38559e-235
4.20942e-234
8.27256e-234
4.69486e-233
9.06703e-233
5.12377e-232
9.71477e-232
5.46636e-231
1.01645e-230
5.69504e-230
1.03739e-229
5.78766e-229
1.03154e-228
5.73068e-228
9.98083e-228
5.52156e-227
9.38419e-227
5.16998e-226
8.56151e-226
4.69751e-225
7.5676e-225
4.13559e-224
6.46997e-224
3.52198e-223
5.34089e-223
2.89638e-222
4.24879e-222
2.29577e-221
3.25063e-221
1.75035e-220
2.38651e-220
1.28085e-219
1.6773e-219
8.97476e-219
6.00606e-218
5.06037e-259
6.27405e-259
2.26529e-258
2.94387e-258
9.89286e-258
1.34761e-257
4.44303e-257
6.34392e-257
2.05802e-256
3.07995e-256
9.83416e-256
1.54248e-255
4.84823e-255
7.96939e-255
2.46615e-254
4.24809e-254
1.29441e-253
2.33641e-253
7.01059e-253
1.3259e-252
3.91814e-252
7.76391e-252
2.25968e-251
4.69095e-251
1.34475e-250
2.92441e-250
8.25746e-250
1.881e-249
5.23146e-249
1.24817e-248
3.41919e-248
8.54376e-248
2.30507e-247
6.03176e-247
1.6026e-246
4.39115e-246
1.14881e-245
3.29573e-245
8.48861e-245
2.54943e-244
6.46321e-244
2.03194e-243
5.06903e-243
1.66799e-242
4.09342e-242
1.40964e-241
3.40198e-241
1.22589e-240
2.90834e-240
1.09649e-239
2.55617e-239
1.00815e-238
2.30845e-238
9.52287e-238
2.1408e-237
9.2356e-237
2.03751e-236
9.19082e-236
1.98907e-235
9.37984e-235
1.99843e-234
1.14884e-233
2.32884e-233
1.33307e-232
2.66399e-232
1.5184e-231
2.98495e-231
1.69405e-230
3.27301e-230
1.84957e-229
3.50862e-229
1.97421e-228
3.67327e-228
2.058e-227
3.75156e-227
2.09288e-226
3.73336e-226
2.07389e-225
3.61551e-225
1.99998e-224
3.4028e-224
1.8745e-223
3.10796e-223
1.70508e-222
2.75056e-222
1.50296e-221
2.35481e-221
1.2817e-220
1.94676e-220
1.05561e-219
1.55121e-219
8.38071e-219
1.18889e-218
6.401e-218
8.74514e-218
4.69307e-217
6.15909e-217
3.29525e-216
2.21022e-215
1.84855e-256
2.29283e-256
8.26968e-256
1.07513e-255
3.60904e-255
4.91821e-255
1.61976e-254
2.31368e-254
7.49766e-254
1.12252e-253
3.5803e-253
5.61791e-253
1.76389e-252
2.9006e-252
8.9664e-252
1.54513e-251
4.70308e-251
8.49244e-251
2.54555e-250
4.81622e-250
1.42176e-249
2.81835e-249
8.19438e-249
1.70175e-248
4.87348e-248
1.06023e-247
2.99072e-247
6.81521e-247
1.89361e-246
4.51962e-246
1.2369e-245
3.09184e-245
8.33388e-245
2.18152e-244
5.79092e-244
1.58727e-243
4.14895e-243
1.19066e-242
3.0641e-242
9.20558e-242
2.33185e-241
7.33335e-241
1.828e-240
6.017e-240
1.47553e-239
5.08278e-239
1.2258e-238
4.41839e-238
1.04754e-237
3.95049e-237
9.20396e-237
3.63098e-236
8.30961e-236
3.42874e-235
7.70428e-235
3.32446e-234
7.33114e-234
3.30766e-233
7.15589e-233
3.37518e-232
7.18907e-232
4.13352e-231
8.37769e-231
4.79632e-230
9.58408e-230
5.46344e-229
1.07404e-228
6.09625e-228
1.17795e-227
6.65729e-227
1.26314e-226
7.108e-226
1.32294e-225
7.41248e-225
1.3518e-224
7.54172e-224
1.34603e-223
7.47755e-223
1.30444e-222
7.21591e-222
1.22867e-221
6.76845e-221
1.12323e-220
6.16225e-220
9.95079e-220
5.4373e-219
8.52885e-219
4.64213e-218
7.05999e-218
3.82814e-217
5.63348e-217
3.04356e-216
4.3244e-216
2.32825e-215
3.18639e-215
1.70996e-214
2.24837e-214
1.20293e-213
8.08516e-213
6.75888e-254
8.38742e-254
3.02135e-253
3.92989e-253
1.31751e-252
1.7963e-252
5.90833e-252
8.44355e-252
2.73267e-251
4.0932e-251
1.30386e-250
2.04689e-250
6.41852e-250
1.05598e-249
3.26012e-249
5.62066e-249
1.70865e-248
3.0868e-248
9.2408e-248
1.74919e-247
5.1572e-247
1.02278e-246
2.97007e-246
6.17088e-246
1.76505e-245
3.84162e-245
1.08234e-244
2.46753e-244
6.84783e-244
1.63515e-243
4.4697e-243
1.11777e-242
3.00939e-242
7.88097e-242
2.08964e-241
5.73008e-241
1.49611e-240
4.29532e-240
1.10418e-239
3.31869e-239
8.39762e-239
2.642e-238
6.57902e-238
2.16639e-237
5.30731e-237
1.82892e-236
4.40655e-236
1.58894e-235
3.76374e-235
1.4199e-234
3.30527e-234
1.3044e-233
2.98273e-233
1.23116e-232
2.7643e-232
1.19321e-231
2.62945e-231
1.18673e-230
2.56579e-230
1.21056e-229
2.57704e-229
1.48215e-228
3.00257e-228
1.71946e-227
3.43454e-227
1.95836e-226
3.84874e-226
2.18505e-225
4.22125e-225
2.38617e-224
4.52704e-224
2.54796e-223
4.74228e-223
2.65758e-222
4.8471e-222
2.70465e-221
4.82824e-221
2.68261e-220
4.68128e-220
2.58995e-219
4.41193e-219
2.43073e-218
4.03611e-218
2.21454e-217
3.57854e-217
1.95559e-216
3.07005e-216
1.67115e-215
2.54404e-215
1.37959e-214
2.03247e-214
1.09817e-213
1.5623e-213
8.41214e-213
1.15292e-212
6.18767e-212
8.14901e-212
4.36032e-211
2.93621e-210
2.4702e-251
3.06714e-251
1.10326e-250
1.43583e-250
4.80651e-250
6.55692e-250
2.15345e-249
3.07922e-249
9.9507e-249
1.49133e-248
4.74342e-248
7.45073e-248
2.33288e-247
3.84023e-247
1.18383e-246
2.04213e-246
6.19875e-246
1.12047e-245
3.34935e-245
6.34348e-245
1.86752e-244
3.70573e-244
1.07454e-243
2.23377e-243
6.37996e-243
1.38934e-242
3.90872e-242
8.91593e-242
2.4708e-241
5.90302e-241
1.61132e-240
4.03166e-240
1.08394e-239
2.84009e-239
7.52019e-239
2.06319e-238
5.37969e-238
1.54528e-237
3.96711e-237
1.19294e-236
3.0147e-236
9.48932e-236
2.35999e-235
7.77492e-235
1.90238e-234
6.55877e-234
1.57836e-233
5.69397e-233
1.34717e-232
5.08461e-232
1.18228e-231
4.66786e-231
1.06624e-230
4.40299e-230
9.87584e-230
4.26471e-229
9.38901e-229
4.2392e-228
9.15722e-228
4.32214e-227
9.19339e-227
5.28945e-226
1.07075e-225
6.13401e-225
1.22443e-224
6.98403e-224
1.37176e-223
7.79053e-223
1.50429e-222
8.50609e-222
1.61312e-221
9.0819e-221
1.68981e-220
9.47246e-220
1.7273e-219
9.64085e-219
1.72088e-218
9.56383e-218
1.66895e-217
9.23587e-217
1.57352e-216
8.67126e-216
1.44018e-215
7.9038e-215
1.27768e-214
6.98373e-214
1.09693e-213
5.97228e-213
9.09776e-213
4.93453e-212
7.27567e-212
3.9319e-211
5.59913e-211
3.0154e-210
4.13747e-210
2.22098e-209
2.92886e-209
1.56744e-208
1.05731e-207
9.00383e-249
1.1187e-248
4.01731e-248
5.23173e-248
1.74837e-247
2.38663e-247
7.82487e-247
1.1196e-246
3.61186e-246
5.41667e-246
1.71991e-245
2.70329e-245
8.44966e-245
1.39182e-244
4.2832e-244
7.39337e-244
2.24037e-243
4.05221e-243
1.20923e-242
2.29167e-242
6.7352e-242
1.33731e-241
3.87117e-241
8.05252e-241
2.29603e-240
5.00311e-240
1.40518e-239
3.20726e-239
8.87318e-239
2.12121e-238
5.78055e-238
1.44722e-237
3.88455e-237
1.01843e-236
2.69227e-236
7.39078e-236
1.924e-235
5.52986e-235
1.41738e-234
4.26468e-234
1.07604e-233
3.38899e-233
8.41536e-233
2.774e-232
6.77712e-232
2.33785e-231
5.6176e-231
2.0277e-230
4.79046e-230
1.80905e-229
4.20045e-229
1.65931e-228
3.785e-228
1.56382e-227
3.50294e-227
1.51347e-226
3.32771e-226
1.50325e-225
3.24321e-225
1.53153e-224
3.25382e-224
1.873e-223
3.78735e-223
2.17068e-222
4.32845e-222
2.47004e-221
4.84685e-221
2.75383e-220
5.31273e-220
3.00539e-219
5.69492e-219
3.20757e-218
5.96382e-218
3.34443e-217
6.09472e-217
3.40304e-216
6.07112e-216
3.3753e-215
5.88752e-215
3.25929e-214
5.55098e-214
3.06007e-213
5.08121e-213
2.78954e-212
4.50888e-212
2.46533e-211
3.87233e-211
2.10896e-210
3.21309e-210
1.74328e-209
2.57106e-209
1.38986e-208
1.98003e-208
1.06665e-207
1.4644e-207
7.863e-207
1.03768e-206
5.55486e-206
3.75139e-205
2.92758e-246
3.64015e-246
1.30353e-245
1.69883e-245
5.66017e-245
7.73218e-245
2.52725e-244
3.61871e-244
1.16371e-243
1.74648e-243
5.52745e-243
8.69423e-243
2.70853e-242
4.46475e-242
1.36931e-241
2.36533e-241
7.14257e-241
1.29283e-240
3.84421e-240
7.29061e-240
2.13486e-239
4.24194e-239
1.22332e-238
2.54649e-238
7.23286e-238
1.57718e-237
4.4122e-237
1.00777e-236
2.77677e-236
6.64277e-236
1.80268e-235
4.51636e-235
1.20705e-234
3.16678e-234
8.33457e-234
2.28957e-233
5.93324e-233
1.70647e-232
4.35345e-232
1.31078e-231
3.29133e-231
1.0373e-230
2.56298e-230
8.45411e-230
2.05482e-229
7.09303e-229
1.69535e-228
6.12344e-228
1.43875e-227
5.43672e-227
1.2552e-226
4.96159e-226
1.12513e-225
4.65152e-225
1.03558e-224
4.47707e-224
9.78148e-224
4.42134e-223
9.47601e-223
4.47751e-222
9.4474e-222
5.44141e-221
1.09225e-220
6.26371e-220
1.23953e-219
7.07737e-219
1.37776e-218
7.8323e-218
1.49851e-217
8.48155e-217
1.59326e-216
8.97844e-216
1.65421e-215
9.28129e-215
1.67526e-214
9.35862e-214
1.65287e-213
9.19375e-213
1.58673e-212
8.78816e-212
1.48005e-211
8.16277e-211
1.33944e-210
7.35665e-210
1.17424e-209
6.42318e-209
9.95503e-209
5.42404e-208
8.14699e-208
4.422e-207
6.42347e-207
3.47376e-206
4.86908e-206
2.62399e-205
3.54031e-205
1.90165e-204
2.46312e-204
1.31901e-203
8.73316e-203
5.67889e-244
7.067e-244
2.51704e-243
3.28308e-243
1.08733e-242
1.48659e-242
4.82873e-242
6.91987e-242
2.211e-241
3.32099e-241
1.04408e-240
1.64361e-240
5.08521e-240
8.38934e-240
2.55469e-239
4.41656e-239
1.32387e-238
2.39821e-238
7.07687e-238
1.34323e-237
3.90239e-237
7.76027e-237
2.21978e-236
4.62444e-236
1.30245e-235
2.84237e-235
7.88239e-235
1.80183e-234
4.91997e-234
1.17792e-233
3.16681e-233
7.94029e-233
2.10169e-232
5.51826e-232
1.43787e-231
3.95302e-231
1.01383e-230
2.91817e-230
7.36533e-230
2.21933e-229
5.51125e-229
1.73827e-228
4.24595e-228
1.40161e-227
3.3665e-227
1.16296e-226
2.74572e-226
9.92467e-226
2.30238e-225
8.70668e-225
1.98382e-224
7.84743e-224
1.75537e-223
7.26235e-223
1.59407e-222
6.89648e-222
1.48472e-221
6.71586e-221
1.41754e-220
6.70272e-220
1.39199e-219
8.02297e-219
1.58352e-218
9.08715e-218
1.76723e-217
1.00971e-216
1.93053e-216
1.09819e-215
2.06231e-215
1.16802e-214
2.15219e-214
1.21359e-213
2.19172e-213
1.23048e-212
2.17552e-212
1.21607e-211
2.10223e-211
1.17002e-210
1.97499e-210
1.09449e-209
1.80139e-209
9.9407e-209
1.59279e-208
8.75304e-208
1.36308e-207
7.46021e-207
1.12706e-206
6.14407e-206
8.98752e-206
4.88072e-205
6.89828e-205
3.73238e-204
5.08542e-204
2.74189e-203
3.59257e-203
1.93061e-202
2.42607e-202
1.29974e-201
8.34441e-201
6.75393e-242
8.41257e-242
2.97731e-241
3.887e-241
1.2783e-240
1.7493e-240
5.64053e-240
8.09065e-240
2.56557e-239
3.85709e-239
1.20318e-238
1.89579e-238
5.81824e-238
9.60742e-238
2.90131e-237
5.02035e-237
1.49194e-236
2.70513e-236
7.91182e-236
1.50307e-235
4.32679e-235
8.61197e-235
2.44012e-234
5.08804e-234
1.41903e-233
3.09957e-233
8.50904e-233
1.94681e-232
5.26055e-232
1.26058e-231
3.35264e-231
8.41365e-231
2.20231e-230
5.78753e-230
1.49078e-229
4.10209e-229
1.03966e-228
2.99511e-228
7.46754e-228
2.25208e-227
5.5224e-227
1.74329e-226
4.2031e-226
1.38866e-225
3.29086e-225
1.1378e-224
2.64932e-224
9.58434e-224
2.19183e-223
8.29559e-223
1.86242e-222
7.37336e-222
1.62434e-221
6.72581e-221
1.45318e-220
6.29214e-220
1.33269e-219
6.03313e-219
1.25214e-218
5.9254e-218
1.20929e-217
6.97553e-217
1.35162e-216
7.76246e-216
1.48126e-215
8.46983e-215
1.58809e-214
9.04088e-214
1.66401e-213
9.4315e-213
1.70224e-212
9.60582e-212
1.69819e-211
9.54099e-211
1.65023e-210
9.23105e-210
1.56008e-209
8.68894e-209
1.4329e-208
7.94632e-208
1.27683e-207
7.05078e-207
1.10214e-206
6.06076e-206
9.20081e-206
5.03894e-205
7.41558e-205
4.0451e-204
5.75956e-204
3.12968e-203
4.30225e-203
2.32915e-202
3.08416e-202
1.66383e-201
2.11701e-201
1.13828e-200
1.38797e-200
7.43978e-200
4.63347e-199
5.65071e-240
7.04559e-240
2.47655e-239
3.23652e-239
1.05636e-238
1.44704e-238
4.62937e-238
6.64697e-238
2.09074e-237
3.1464e-237
9.73301e-237
1.53513e-236
4.67083e-236
7.72049e-236
2.31079e-235
4.00255e-235
1.17858e-234
2.1391e-234
6.19723e-234
1.17851e-233
3.35945e-233
6.69323e-233
1.8774e-232
3.91856e-232
1.08154e-231
2.36472e-231
6.4223e-231
1.47082e-230
3.93054e-230
9.42796e-230
2.47896e-229
6.22717e-229
1.61088e-228
4.23742e-228
1.07831e-227
2.97e-227
7.43364e-227
2.1436e-226
5.27597e-226
1.59267e-225
3.85385e-225
1.21774e-224
2.89603e-224
9.57732e-224
2.23783e-223
7.74456e-223
1.77725e-222
6.43557e-222
1.44985e-221
5.49251e-221
1.21419e-220
4.81153e-220
1.0432e-219
4.32357e-219
9.18915e-219
3.98249e-218
8.29307e-218
3.75773e-217
7.66349e-217
3.62986e-216
7.27533e-216
4.2004e-215
7.98498e-215
4.58996e-214
8.5889e-214
4.91547e-213
9.03293e-213
5.14689e-212
9.27922e-212
5.26397e-211
9.30095e-211
5.25308e-210
9.08631e-210
5.10931e-209
8.6412e-209
4.83776e-208
7.98981e-208
4.45362e-207
7.17278e-207
3.98097e-206
6.24316e-206
3.45027e-205
5.26045e-205
2.89501e-204
4.28383e-204
2.34788e-203
3.36573e-203
1.83731e-202
2.54656e-202
1.38476e-201
1.8518e-201
1.00322e-200
1.29145e-200
6.97166e-200
8.61814e-200
4.63676e-199
5.48964e-199
2.94431e-198
1.78041e-197
3.6941e-238
4.61111e-238
1.60931e-237
2.10548e-237
6.81798e-237
9.34987e-237
2.96679e-236
4.26451e-236
1.33006e-235
2.00385e-235
6.14483e-235
9.70254e-235
2.92569e-234
4.84124e-234
1.43563e-233
2.4894e-233
7.26044e-233
1.31919e-232
3.78432e-232
7.20437e-232
2.03287e-231
4.05462e-231
1.12541e-230
2.35153e-230
6.4204e-230
1.4053e-229
3.77421e-229
8.65296e-229
2.28587e-228
5.48888e-228
1.42617e-227
3.58642e-227
9.16454e-227
2.41331e-226
6.06414e-226
1.67203e-225
4.1308e-225
1.19244e-224
2.8958e-224
8.75094e-224
2.08842e-223
6.60594e-223
1.5488e-222
5.12737e-222
1.1806e-221
4.09004e-221
9.24505e-221
3.35122e-220
7.433e-220
2.81881e-219
6.13196e-219
2.43246e-218
5.18714e-218
2.15204e-217
4.49624e-217
1.95063e-216
3.99083e-216
1.81017e-215
3.62493e-215
1.71872e-214
3.38062e-214
1.95377e-213
3.641e-213
2.09504e-212
3.8412e-212
2.20053e-211
3.95998e-211
2.2586e-210
3.98529e-210
2.26301e-209
3.91112e-209
2.2111e-208
3.73873e-208
2.10434e-207
3.47702e-207
1.94845e-206
3.14191e-206
1.75298e-205
2.75484e-205
1.53037e-204
2.34038e-204
1.29458e-203
1.92355e-203
1.05953e-202
1.52699e-202
8.37632e-202
1.16877e-201
6.38559e-201
8.60971e-201
4.68559e-200
6.09191e-200
3.30292e-199
4.13156e-199
2.23204e-198
2.67978e-198
1.44282e-197
1.65832e-197
8.90028e-197
5.22611e-196
2.16952e-236
2.71134e-236
9.39002e-236
1.22999e-235
3.94899e-235
5.42199e-235
1.70518e-234
2.45398e-234
7.58355e-234
1.14389e-233
3.47452e-233
5.49273e-233
1.64005e-232
2.71708e-232
7.97571e-232
1.38464e-231
3.9961e-231
7.26938e-231
2.06278e-230
3.93166e-230
1.09699e-229
2.19058e-229
6.0099e-229
1.25725e-228
3.39163e-228
7.43236e-228
1.97143e-227
4.52512e-227
1.18013e-226
2.83709e-226
7.27424e-226
1.8314e-225
4.61599e-225
1.21696e-224
3.01483e-224
8.32232e-224
2.02609e-223
5.85556e-223
1.40061e-222
4.23746e-222
9.95563e-222
3.15275e-221
7.27328e-221
2.41063e-220
5.45871e-220
1.89328e-219
4.2064e-219
1.52652e-218
3.32609e-218
1.2628e-217
2.697e-217
1.07108e-216
2.24107e-216
9.30834e-216
1.90698e-215
8.28258e-215
1.66051e-214
7.54029e-214
1.47864e-213
7.01872e-213
1.35096e-212
7.81644e-212
1.42367e-211
8.20095e-211
1.46871e-210
8.42321e-210
1.47966e-209
8.44864e-209
1.45428e-208
8.26704e-208
1.39292e-207
7.88323e-207
1.29868e-206
7.31746e-206
1.17722e-205
6.60392e-205
1.0362e-204
5.78739e-204
8.84456e-204
4.91842e-203
7.31034e-203
4.04781e-202
5.84217e-202
3.2212e-201
4.50708e-201
2.47477e-200
3.35092e-200
1.83251e-199
2.39665e-199
1.3055e-198
1.64584e-198
8.93132e-198
1.08301e-197
5.85582e-197
6.8141e-197
3.67174e-196
4.08996e-196
2.19676e-195
1.25105e-194
1.617e-234
2.02348e-234
6.93359e-234
9.0941e-234
2.88495e-233
3.9662e-233
1.23176e-232
1.77498e-232
5.41394e-232
8.17688e-232
2.45012e-231
3.87832e-231
1.14173e-230
1.89396e-230
5.4783e-230
9.52299e-230
2.7066e-229
4.92995e-229
1.37684e-228
2.62763e-228
7.21109e-228
1.44182e-227
3.88815e-227
8.14427e-227
2.15808e-226
4.73522e-226
1.23287e-225
2.83347e-225
7.24816e-225
1.74471e-224
4.38451e-224
1.10527e-223
2.72837e-223
7.20219e-223
1.74609e-222
4.82612e-222
1.1489e-221
3.32461e-221
7.76975e-221
2.35366e-220
5.39843e-220
1.71173e-219
3.85188e-219
1.27826e-218
2.821e-218
9.79651e-218
2.11941e-217
7.70104e-217
1.63245e-216
6.20557e-216
1.28823e-215
5.12242e-215
1.04079e-214
4.32832e-214
8.60268e-214
3.74104e-213
7.26921e-213
3.305e-212
6.27544e-212
2.98246e-211
5.55317e-211
3.21692e-210
5.6575e-210
3.26297e-209
5.63855e-209
3.23773e-208
5.48393e-208
3.13504e-207
5.19965e-207
2.95938e-206
4.8015e-206
2.72068e-205
4.3136e-205
2.4334e-204
3.76596e-204
2.11509e-203
3.19135e-203
1.78451e-202
2.6218e-202
1.45965e-201
2.08537e-201
1.15599e-200
1.60369e-200
8.85209e-200
1.19064e-199
6.54474e-199
8.52094e-199
4.66473e-198
5.86842e-198
3.19992e-197
3.88257e-197
2.10899e-196
2.463e-196
1.33299e-195
1.49517e-195
8.06381e-195
8.66694e-195
4.65901e-194
2.56512e-193
2.23497e-232
2.80073e-232
9.44565e-232
1.24063e-231
3.86514e-231
5.3212e-231
1.62143e-230
2.33976e-230
6.99637e-230
1.05816e-229
3.10577e-229
4.92299e-229
1.41836e-228
2.35611e-228
6.6636e-228
1.15995e-227
3.22043e-227
5.874e-227
1.60091e-226
3.05948e-226
8.18518e-226
1.63885e-225
4.30371e-225
9.02714e-225
2.32675e-224
5.11235e-224
1.29323e-223
2.97628e-223
7.38814e-223
1.78084e-222
4.33741e-222
1.0949e-221
2.61608e-221
6.9152e-221
1.62057e-220
4.48532e-220
1.03072e-219
2.9867e-219
6.72834e-219
2.04097e-218
4.50589e-218
1.43066e-217
3.09421e-217
1.02822e-216
2.17762e-216
7.57252e-216
1.56969e-215
5.71134e-215
1.15813e-214
4.40847e-214
8.73991e-214
3.47999e-213
6.7411e-213
2.80721e-212
5.30996e-212
2.31226e-211
4.26832e-211
1.94324e-210
3.49901e-210
1.66518e-209
2.93497e-209
1.7025e-208
2.82503e-208
1.63153e-207
2.65681e-207
1.52761e-206
2.43517e-206
1.39399e-205
2.1736e-205
1.23874e-204
1.88782e-204
1.0711e-203
1.5941e-203
9.00445e-203
1.30763e-202
7.35363e-202
1.04112e-201
5.82909e-201
8.03862e-201
4.48103e-200
6.01353e-200
3.33766e-199
4.35435e-199
2.40645e-198
3.04864e-198
1.67778e-197
2.06148e-197
1.12985e-196
1.34458e-196
7.33994e-196
8.44714e-196
4.59341e-195
5.10329e-195
2.76479e-194
2.9596e-194
1.59775e-193
1.64435e-193
8.84752e-193
4.68457e-192
4.51425e-230
5.66554e-230
1.87707e-229
2.46912e-229
7.53823e-229
1.03936e-228
3.1004e-228
4.48063e-228
1.31047e-227
1.98498e-227
5.69342e-227
9.03816e-227
2.54235e-226
4.22952e-226
1.16676e-225
2.03402e-225
5.50256e-225
1.00515e-224
2.66646e-224
5.1034e-224
1.32748e-223
2.66184e-223
6.78842e-223
1.426e-222
3.56508e-222
7.84477e-222
1.92234e-221
4.43066e-221
1.06399e-220
2.56843e-220
6.04326e-220
1.52775e-219
3.52118e-219
9.32141e-219
2.10395e-218
5.83171e-218
1.28865e-217
3.73957e-217
8.08718e-217
2.45675e-216
5.19761e-216
1.65271e-215
3.4191e-215
1.13784e-214
2.30064e-214
8.01203e-214
1.58238e-213
5.76596e-213
1.11165e-212
4.23773e-212
7.96996e-212
3.17806e-211
5.82626e-211
2.42979e-210
4.33881e-210
1.89213e-209
3.28855e-209
1.49937e-208
2.53487e-208
1.2081e-207
1.99356e-207
1.1581e-206
1.79025e-206
1.03542e-205
1.56684e-205
9.02211e-205
1.33294e-204
7.64131e-204
1.10143e-203
6.28615e-203
8.83467e-203
5.01978e-202
6.87495e-202
3.88893e-201
5.18797e-201
2.92165e-200
3.7951e-200
2.1278e-199
2.69058e-199
1.50191e-198
1.84845e-198
1.02733e-197
1.2305e-197
6.8095e-197
7.93675e-197
4.3736e-196
4.95959e-196
2.7217e-195
3.00173e-195
1.64063e-194
1.75871e-194
9.57489e-194
9.96633e-194
5.40555e-193
5.45565e-193
2.94841e-192
2.88002e-192
1.55117e-191
7.85532e-191
9.65577e-228
1.21378e-227
3.94743e-227
5.20085e-227
1.55458e-226
2.14686e-226
6.26363e-226
9.06655e-226
2.59137e-225
3.93144e-225
1.10101e-224
1.75061e-224
4.80366e-224
8.00422e-224
2.15193e-223
3.75744e-223
9.8968e-223
1.81071e-222
4.67198e-222
8.95599e-222
2.26341e-221
4.54573e-221
1.12508e-220
2.36712e-220
5.73658e-220
1.2643e-219
2.99949e-219
6.92425e-219
1.6078e-218
3.88728e-218
8.83185e-218
2.23623e-217
4.96983e-217
1.3177e-216
2.86363e-216
7.9499e-216
1.68879e-215
4.90846e-215
1.01881e-214
3.09986e-214
6.28384e-214
2.00125e-213
3.95998e-213
1.31992e-212
2.54795e-212
8.88724e-212
1.67254e-211
6.10406e-211
1.11911e-210
4.27288e-210
7.62547e-210
3.04547e-209
5.2858e-209
2.20786e-208
3.72338e-208
1.6263e-207
2.66245e-207
1.21582e-206
1.93076e-206
9.21643e-206
1.42438e-205
8.28753e-205
1.19364e-204
6.91447e-204
9.72198e-204
5.60689e-203
7.6734e-203
4.40584e-202
5.86448e-202
3.35226e-201
4.33706e-201
2.46812e-200
3.10216e-200
1.75751e-199
2.14538e-199
1.21005e-198
1.43446e-198
8.05488e-198
9.2751e-198
5.18524e-197
5.80275e-197
3.22984e-196
3.51577e-196
1.94844e-195
2.06534e-195
1.13974e-194
1.17801e-194
6.47358e-194
6.53283e-194
3.5754e-193
3.52679e-193
1.92257e-192
1.85486e-192
1.00728e-191
9.50445e-192
5.14252e-191
4.74129e-191
2.55643e-190
1.23551e-189
1.97502e-225
2.48697e-225
7.92934e-225
1.0465e-224
3.05815e-224
4.23049e-224
1.20538e-223
1.74775e-223
4.87414e-223
7.40726e-223
2.02227e-222
3.22088e-222
8.6079e-222
1.43674e-221
3.75845e-221
6.57368e-221
1.68305e-220
3.08449e-220
7.72803e-220
1.48393e-219
3.63767e-219
7.31806e-219
1.75486e-218
3.69837e-218
8.6735e-218
1.9148e-217
4.3907e-217
1.01529e-216
2.27561e-216
5.51116e-216
1.20701e-215
3.06131e-215
6.54907e-215
1.73935e-214
3.63322e-214
1.01034e-213
2.05976e-213
5.99676e-213
1.19263e-212
3.63482e-212
7.04826e-212
2.24847e-211
4.24858e-211
1.41849e-210
2.61009e-210
9.1193e-210
1.63284e-209
5.96922e-209
1.03921e-208
3.97448e-208
6.72159e-208
2.68901e-207
4.41332e-207
1.84655e-206
2.93807e-206
1.28546e-205
1.98078e-205
9.06066e-205
1.3509e-204
6.45943e-204
9.34805e-204
5.44827e-203
7.31202e-203
4.24289e-202
5.54644e-202
3.20419e-201
4.06677e-201
2.33898e-200
2.87996e-200
1.64903e-199
1.96852e-199
1.12213e-198
1.29808e-198
7.36657e-198
8.25599e-198
4.66435e-197
5.06489e-197
2.84877e-196
2.99852e-196
1.67906e-195
1.71469e-195
9.55941e-195
9.48518e-195
5.265e-194
5.08614e-194
2.81108e-193
2.65072e-193
1.45886e-192
1.34684e-192
7.38199e-192
6.69388e-192
3.65416e-191
3.26419e-191
1.77499e-190
1.56538e-190
8.48043e-190
7.39072e-190
3.98969e-189
1.84753e-188
3.76734e-223
4.7525e-223
1.48333e-222
1.96123e-222
5.59325e-222
7.75142e-222
2.15291e-221
3.12727e-221
8.4935e-221
1.29309e-220
3.43481e-220
5.4805e-220
1.42367e-219
2.38053e-219
6.04681e-219
1.05952e-218
2.63123e-218
4.83089e-218
1.17273e-217
2.25592e-217
5.35208e-217
1.07864e-216
2.50032e-216
5.27888e-216
1.19526e-215
2.64344e-215
5.84459e-215
1.3539e-214
2.92204e-214
7.08938e-214
1.49299e-213
3.7934e-213
7.7919e-213
2.07313e-212
4.15154e-212
1.15654e-211
2.25683e-211
6.58225e-211
1.25092e-210
3.81931e-210
7.0649e-210
2.25782e-209
4.06253e-209
1.35881e-208
2.37654e-208
8.31822e-208
1.41304e-207
5.17497e-207
8.53087e-207
3.26853e-206
5.22373e-206
2.09355e-205
3.24038e-205
1.35823e-204
2.03369e-204
8.91387e-204
1.28968e-203
5.91008e-203
8.25459e-203
3.95415e-202
5.34809e-202
3.12266e-201
3.89832e-201
2.26617e-200
2.75095e-200
1.59213e-199
1.87299e-199
1.0792e-198
1.22948e-198
7.05268e-198
7.77694e-198
4.4412e-197
4.73866e-197
2.69404e-196
2.7812e-196
1.57411e-195
1.57273e-195
8.86163e-195
8.57458e-195
4.80991e-194
4.51263e-194
2.52017e-193
2.29671e-193
1.27702e-192
1.13339e-192
6.27463e-192
5.44219e-192
3.00006e-191
2.55401e-191
1.40205e-190
1.17759e-190
6.43815e-190
5.36418e-190
2.92113e-189
2.42646e-189
1.31633e-188
1.09394e-188
5.91291e-188
2.65117e-187
6.62533e-221
8.37393e-221
2.55464e-220
3.38417e-220
9.40174e-220
1.30544e-219
3.52752e-219
5.13381e-219
1.35517e-218
2.06712e-218
5.3313e-218
8.52276e-218
2.14738e-217
3.59751e-217
8.8537e-217
1.55429e-216
3.73565e-216
6.87166e-216
1.61253e-215
3.10786e-215
7.11885e-215
1.43743e-214
3.21301e-214
6.79647e-214
1.48197e-213
3.28377e-213
6.98237e-213
1.62054e-212
3.35886e-212
8.16466e-212
1.64883e-211
4.19734e-211
8.25494e-211
2.2005e-210
4.21247e-210
1.17575e-209
2.18958e-209
6.39827e-209
1.15846e-208
3.54374e-208
6.23408e-208
1.9961e-207
3.40945e-207
1.14255e-206
1.89338e-206
6.63976e-206
1.06665e-205
3.91387e-205
6.08965e-205
2.33767e-204
3.51928e-204
1.41316e-203
2.05625e-203
8.63553e-203
1.21307e-202
5.32727e-202
7.21618e-202
3.31327e-201
4.32349e-201
2.07507e-200
2.61672e-200
1.53083e-199
1.77374e-199
1.03312e-198
1.16272e-198
6.74245e-198
7.34497e-198
4.24039e-197
4.46906e-197
2.5686e-196
2.61841e-196
1.49822e-195
1.47717e-195
8.41433e-195
8.02581e-195
4.55123e-194
4.20193e-194
2.37214e-193
2.12189e-193
1.19253e-192
1.03503e-192
5.79112e-192
4.88727e-192
2.72243e-191
2.24075e-191
1.24275e-190
1.00173e-190
5.53182e-190
4.39097e-190
2.41455e-189
1.90044e-189
1.04071e-188
8.18704e-189
4.4653e-188
3.53897e-188
1.92268e-187
1.54478e-187