/*--------------------------------*- C++ -*----------------------------------*\
  =========                 |
  \\      /  F ield         | OpenFOAM: The Open Source CFD Toolbox
   \\    /   O peration     | Website:  https://openfoam.org
    \\  /    A nd           | Version:  9
     \\/     M anipulation  |
\*---------------------------------------------------------------------------*/
FoamFile
{
    format      ascii;
    class       volScalarField;
    location    "0.02";
    object      p;
}
// * * * * * * * * * * * * * * * * * * * * * * * * * * * * * * * * * * * * * //

dimensions      [1 -1 -2 0 0 0 0];

internalField   nonuniform List<scalar> 
5000
(
0.605109
0.605099
0.605094
0.605092
0.60509
0.605088
0.605086
0.605084
0.605082
0.605079
0.605076
0.605071
0.605065
0.605058
0.605049
0.605037
0.605024
0.605007
0.604988
0.604964
0.604937
0.604905
0.604868
0.604825
0.604775
0.604717
0.604651
0.604575
0.604488
0.604389
0.604267
0.60412
0.603961
0.603791
0.603608
0.603413
0.603208
0.602991
0.602765
0.60253
0.602287
0.602038
0.601784
0.601526
0.601267
0.60101
0.600755
0.600507
0.600269
0.600043
0.603144
0.603131
0.603125
0.603123
0.603122
0.603122
0.603124
0.603126
0.603129
0.603133
0.603136
0.60314
0.603144
0.603147
0.603149
0.60315
0.60315
0.603148
0.603145
0.603139
0.603131
0.603119
0.603104
0.603085
0.60306
0.60303
0.602993
0.602948
0.602895
0.602832
0.602751
0.602651
0.602539
0.602416
0.602281
0.602136
0.60198
0.601815
0.60164
0.601457
0.601266
0.60107
0.600869
0.600664
0.600459
0.600254
0.600052
0.599855
0.599667
0.599489
0.601191
0.601191
0.601194
0.601198
0.601203
0.601209
0.601217
0.601225
0.601235
0.601245
0.601256
0.601268
0.60128
0.601292
0.601305
0.601317
0.601329
0.60134
0.60135
0.601359
0.601367
0.601373
0.601376
0.601377
0.601374
0.601366
0.601354
0.601337
0.601312
0.60128
0.601235
0.601174
0.601101
0.601018
0.600925
0.600821
0.600706
0.600583
0.600451
0.600311
0.600163
0.60001
0.599852
0.59969
0.599527
0.599363
0.599202
0.599045
0.598894
0.598751
0.599234
0.599243
0.599254
0.599266
0.599279
0.599293
0.599308
0.599324
0.599341
0.599359
0.599379
0.599399
0.59942
0.599442
0.599465
0.599489
0.599512
0.599536
0.599561
0.599585
0.599608
0.599631
0.599653
0.599673
0.599692
0.599707
0.59972
0.599728
0.599732
0.599729
0.599718
0.599696
0.599663
0.599619
0.599566
0.599502
0.599429
0.599347
0.599256
0.599157
0.599052
0.59894
0.598824
0.598703
0.598581
0.598457
0.598334
0.598214
0.598099
0.59799
0.597277
0.597294
0.597313
0.597333
0.597354
0.597376
0.597399
0.597424
0.59745
0.597477
0.597506
0.597536
0.597568
0.597601
0.597635
0.597671
0.597708
0.597746
0.597785
0.597825
0.597865
0.597907
0.597948
0.597989
0.59803
0.59807
0.598108
0.598143
0.598176
0.598205
0.59823
0.598247
0.598255
0.598252
0.59824
0.598219
0.598188
0.598148
0.598101
0.598045
0.597982
0.597914
0.59784
0.597761
0.59768
0.597597
0.597513
0.597431
0.597352
0.597276
0.595319
0.595344
0.59537
0.595398
0.595427
0.595457
0.595489
0.595523
0.595558
0.595595
0.595634
0.595675
0.595717
0.595762
0.595809
0.595857
0.595908
0.59596
0.596015
0.596071
0.59613
0.59619
0.596251
0.596314
0.596378
0.596442
0.596507
0.596571
0.596634
0.596694
0.596756
0.596814
0.596863
0.596903
0.596933
0.596954
0.596966
0.59697
0.596965
0.596953
0.596933
0.596907
0.596876
0.596839
0.596799
0.596756
0.596711
0.596666
0.596623
0.59658
0.593361
0.593393
0.593427
0.593462
0.593499
0.593537
0.593578
0.593621
0.593665
0.593712
0.593761
0.593813
0.593867
0.593923
0.593982
0.594044
0.594109
0.594176
0.594247
0.59432
0.594396
0.594475
0.594557
0.594642
0.594729
0.594818
0.594909
0.595001
0.595094
0.595186
0.595285
0.595384
0.595474
0.595555
0.595627
0.59569
0.595745
0.595791
0.595829
0.595859
0.595882
0.595898
0.595907
0.595912
0.595911
0.595907
0.5959
0.595891
0.595882
0.595872
0.591403
0.591442
0.591483
0.591526
0.591571
0.591618
0.591667
0.591719
0.591773
0.59183
0.591889
0.591952
0.592017
0.592086
0.592158
0.592233
0.592312
0.592395
0.592481
0.592571
0.592666
0.592764
0.592866
0.592973
0.593083
0.593197
0.593314
0.593434
0.593557
0.593681
0.593816
0.593955
0.594086
0.594208
0.594322
0.594426
0.594522
0.59461
0.59469
0.594762
0.594826
0.594883
0.594933
0.594976
0.595015
0.595048
0.595078
0.595104
0.595128
0.595148
0.589444
0.589491
0.58954
0.58959
0.589643
0.589698
0.589757
0.589818
0.589881
0.589948
0.590019
0.590092
0.59017
0.590251
0.590336
0.590425
0.590518
0.590616
0.590719
0.590827
0.590939
0.591057
0.59118
0.591309
0.591442
0.591581
0.591725
0.591873
0.592025
0.592181
0.592352
0.592532
0.592703
0.592866
0.593021
0.593167
0.593304
0.593433
0.593554
0.593667
0.593771
0.593868
0.593958
0.59404
0.594117
0.594187
0.594252
0.594312
0.594368
0.594419
0.587486
0.58754
0.587596
0.587654
0.587715
0.587779
0.587846
0.587917
0.587991
0.588068
0.588149
0.588234
0.588324
0.588417
0.588516
0.588619
0.588728
0.588841
0.588961
0.589086
0.589217
0.589355
0.589499
0.58965
0.589807
0.589971
0.590141
0.590318
0.5905
0.590687
0.590895
0.591115
0.591326
0.59153
0.591725
0.591912
0.592091
0.592261
0.592422
0.592575
0.59272
0.592857
0.592985
0.593106
0.593219
0.593325
0.593425
0.593519
0.593607
0.593686
0.585528
0.58559
0.585653
0.585719
0.585788
0.585861
0.585937
0.586017
0.586101
0.586189
0.586281
0.586378
0.586479
0.586586
0.586698
0.586816
0.58694
0.58707
0.587206
0.587349
0.5875
0.587658
0.587823
0.587996
0.588178
0.588367
0.588564
0.588769
0.588981
0.5892
0.589443
0.589703
0.589955
0.590199
0.590435
0.590662
0.590882
0.591092
0.591294
0.591487
0.591671
0.591846
0.592013
0.592171
0.592321
0.592462
0.592596
0.592723
0.592842
0.592951
0.583569
0.583639
0.58371
0.583784
0.583861
0.583943
0.584028
0.584118
0.584212
0.58431
0.584414
0.584523
0.584637
0.584757
0.584883
0.585015
0.585155
0.585301
0.585455
0.585616
0.585786
0.585964
0.586151
0.586347
0.586553
0.586767
0.586991
0.587224
0.587466
0.587717
0.587996
0.588296
0.588587
0.588871
0.589148
0.589415
0.589674
0.589925
0.590166
0.590398
0.590621
0.590835
0.591039
0.591234
0.59142
0.591596
0.591764
0.591923
0.592072
0.59221
0.581611
0.581688
0.581767
0.581849
0.581935
0.582025
0.58212
0.58222
0.582324
0.582433
0.582549
0.582669
0.582796
0.58293
0.58307
0.583217
0.583372
0.583535
0.583707
0.583887
0.584076
0.584275
0.584484
0.584703
0.584933
0.585173
0.585424
0.585685
0.585957
0.586238
0.586553
0.586892
0.587223
0.587547
0.587863
0.58817
0.588469
0.588758
0.589039
0.58931
0.589571
0.589822
0.590063
0.590295
0.590516
0.590727
0.590928
0.591119
0.591299
0.591466
0.579653
0.579737
0.579824
0.579914
0.580009
0.580109
0.580213
0.580322
0.580437
0.580558
0.580685
0.580818
0.580958
0.581105
0.58126
0.581422
0.581593
0.581773
0.581962
0.582161
0.582371
0.582591
0.582821
0.583064
0.583317
0.583583
0.583861
0.58415
0.584451
0.584764
0.585114
0.585492
0.585862
0.586225
0.58658
0.586926
0.587264
0.587592
0.587911
0.58822
0.588519
0.588807
0.589086
0.589353
0.58961
0.589855
0.590089
0.590312
0.590522
0.590718
0.577694
0.577787
0.577881
0.57798
0.578084
0.578193
0.578307
0.578426
0.578552
0.578684
0.578823
0.578968
0.579121
0.579282
0.579452
0.57963
0.579817
0.580014
0.580222
0.58044
0.580669
0.58091
0.581163
0.581428
0.581707
0.581998
0.582302
0.58262
0.58295
0.583293
0.583678
0.584094
0.584503
0.584904
0.585298
0.585683
0.586059
0.586425
0.586782
0.587129
0.587465
0.587791
0.588105
0.588409
0.588701
0.58898
0.589248
0.589503
0.589744
0.589969
0.575736
0.575837
0.575939
0.576047
0.57616
0.576278
0.576402
0.576532
0.576668
0.576812
0.576962
0.577121
0.577287
0.577462
0.577647
0.57784
0.578044
0.578259
0.578484
0.578722
0.578971
0.579233
0.579509
0.579797
0.5801
0.580417
0.580747
0.581093
0.581452
0.581826
0.582245
0.582699
0.583145
0.583584
0.584016
0.584438
0.584852
0.585257
0.585651
0.586035
0.586409
0.586771
0.587122
0.587462
0.587789
0.588103
0.588405
0.588692
0.588964
0.58922
0.573777
0.573886
0.573998
0.574114
0.574236
0.574364
0.574498
0.574638
0.574786
0.574941
0.575104
0.575275
0.575455
0.575645
0.575844
0.576054
0.576274
0.576506
0.57675
0.577007
0.577277
0.57756
0.577858
0.57817
0.578497
0.578839
0.579196
0.579569
0.579957
0.58036
0.580813
0.581304
0.581788
0.582264
0.582733
0.583193
0.583644
0.584086
0.584517
0.584939
0.585349
0.585749
0.586137
0.586512
0.586875
0.587225
0.58756
0.587881
0.588185
0.588472
0.571819
0.571936
0.572056
0.572182
0.572313
0.572451
0.572595
0.572746
0.572905
0.573072
0.573248
0.573432
0.573626
0.57383
0.574044
0.57427
0.574508
0.574757
0.57502
0.575296
0.575586
0.575891
0.576211
0.576546
0.576897
0.577264
0.577647
0.578047
0.578463
0.578896
0.579382
0.579909
0.580429
0.580943
0.581448
0.581945
0.582433
0.582911
0.58338
0.583839
0.584287
0.584723
0.585148
0.585561
0.58596
0.586345
0.586716
0.587071
0.587409
0.587728
0.56986
0.569986
0.570115
0.57025
0.570391
0.570539
0.570694
0.570856
0.571026
0.571205
0.571393
0.571591
0.571799
0.572018
0.572248
0.572489
0.572744
0.573011
0.573293
0.573589
0.573899
0.574225
0.574567
0.574925
0.5753
0.575692
0.576101
0.576527
0.576971
0.577432
0.57795
0.578513
0.57907
0.579619
0.58016
0.580693
0.581218
0.581734
0.58224
0.582736
0.583221
0.583695
0.584158
0.584608
0.585044
0.585466
0.585873
0.586263
0.586636
0.586989
0.567901
0.568036
0.568174
0.568319
0.56847
0.568628
0.568793
0.568967
0.569149
0.56934
0.569541
0.569752
0.569974
0.570208
0.570453
0.570712
0.570983
0.571269
0.571569
0.571884
0.572215
0.572562
0.572926
0.573307
0.573705
0.574121
0.574555
0.575008
0.575478
0.575967
0.576518
0.577116
0.577707
0.578292
0.578869
0.579438
0.579999
0.580552
0.581095
0.581629
0.582152
0.582665
0.583165
0.583654
0.584129
0.584589
0.585033
0.585461
0.585869
0.586257
0.565943
0.566087
0.566234
0.566388
0.566549
0.566718
0.566894
0.567079
0.567274
0.567477
0.567691
0.567916
0.568152
0.568401
0.568662
0.568937
0.569225
0.569529
0.569847
0.570182
0.570533
0.570901
0.571286
0.57169
0.572111
0.572551
0.57301
0.573488
0.573985
0.574502
0.575083
0.575715
0.576341
0.576961
0.577573
0.578179
0.578776
0.579366
0.579947
0.580519
0.581081
0.581632
0.582173
0.582701
0.583215
0.583715
0.584199
0.584664
0.58511
0.585536
0.563984
0.564137
0.564294
0.564458
0.56463
0.564809
0.564997
0.565194
0.5654
0.565616
0.565843
0.566082
0.566333
0.566596
0.566873
0.567164
0.56747
0.567791
0.568129
0.568482
0.568853
0.569242
0.569649
0.570074
0.570518
0.570982
0.571464
0.571967
0.57249
0.573033
0.573645
0.574311
0.574971
0.575625
0.576273
0.576915
0.577549
0.578176
0.578795
0.579406
0.580007
0.580599
0.58118
0.581749
0.582305
0.582846
0.58337
0.583876
0.584362
0.584826
0.562025
0.562188
0.562355
0.562529
0.562711
0.562901
0.563101
0.563309
0.563528
0.563757
0.563998
0.56425
0.564516
0.564794
0.565087
0.565395
0.565717
0.566056
0.566412
0.566785
0.567175
0.567584
0.568012
0.568458
0.568925
0.569411
0.569917
0.570444
0.570992
0.571561
0.572203
0.572902
0.573596
0.574285
0.574968
0.575646
0.576317
0.576982
0.57764
0.578291
0.578933
0.579566
0.580189
0.580801
0.581399
0.581983
0.58255
0.583098
0.583626
0.584131
0.560065
0.560238
0.560416
0.560601
0.560793
0.560995
0.561206
0.561427
0.561658
0.5619
0.562154
0.562421
0.562701
0.562995
0.563303
0.563627
0.563967
0.564323
0.564697
0.565088
0.565498
0.565927
0.566375
0.566842
0.56733
0.567838
0.568367
0.568918
0.56949
0.570085
0.570756
0.571488
0.572216
0.572939
0.573658
0.574372
0.575081
0.575785
0.576483
0.577174
0.577859
0.578535
0.579201
0.579857
0.5805
0.581128
0.581739
0.582332
0.582903
0.58345
0.558106
0.558289
0.558477
0.558673
0.558877
0.55909
0.559312
0.559545
0.559789
0.560045
0.560313
0.560593
0.560888
0.561197
0.561521
0.561861
0.562218
0.562592
0.562983
0.563393
0.563821
0.564269
0.564737
0.565225
0.565733
0.566263
0.566814
0.567388
0.567984
0.568604
0.569304
0.570069
0.57083
0.571588
0.572343
0.573094
0.573841
0.574585
0.575323
0.576057
0.576785
0.577505
0.578217
0.578918
0.579607
0.580282
0.58094
0.581578
0.582194
0.582787
0.556146
0.55634
0.556538
0.556745
0.556961
0.557185
0.55742
0.557666
0.557922
0.558191
0.558473
0.558768
0.559077
0.559401
0.559741
0.560097
0.56047
0.560861
0.56127
0.561697
0.562144
0.562611
0.563098
0.563605
0.564134
0.564684
0.565257
0.565852
0.566472
0.567117
0.567846
0.568643
0.569439
0.570232
0.571022
0.571811
0.572598
0.573382
0.574163
0.57494
0.575712
0.576478
0.577236
0.577985
0.578722
0.579445
0.580151
0.580838
0.581501
0.58214
0.554186
0.55439
0.5546
0.554818
0.555045
0.555282
0.555529
0.555787
0.556057
0.556339
0.556634
0.556944
0.557267
0.557607
0.557962
0.558334
0.558723
0.55913
0.559556
0.560001
0.560466
0.56095
0.561456
0.561982
0.56253
0.563101
0.563694
0.564311
0.564954
0.565623
0.566381
0.567212
0.568041
0.56887
0.569698
0.570525
0.571352
0.572178
0.573002
0.573824
0.574642
0.575455
0.576262
0.577059
0.577845
0.578618
0.579374
0.580111
0.580824
0.581511
0.552226
0.552441
0.552662
0.552891
0.55313
0.553379
0.553639
0.553909
0.554192
0.554488
0.554797
0.555121
0.555459
0.555813
0.556183
0.556571
0.556976
0.557399
0.557842
0.558303
0.558785
0.559287
0.55981
0.560355
0.560922
0.561511
0.562125
0.562764
0.563429
0.564123
0.56491
0.565774
0.566638
0.567503
0.568369
0.569236
0.570104
0.570973
0.571842
0.57271
0.573575
0.574436
0.575292
0.57614
0.576978
0.577802
0.57861
0.579397
0.580162
0.580899
0.550265
0.550491
0.550723
0.550965
0.551216
0.551477
0.551749
0.552033
0.552329
0.552638
0.552961
0.553298
0.553651
0.55402
0.554405
0.554807
0.555228
0.555667
0.556125
0.556603
0.557101
0.55762
0.55816
0.558722
0.559307
0.559916
0.560549
0.561209
0.561897
0.562616
0.563432
0.56433
0.565229
0.566131
0.567036
0.567944
0.568854
0.569767
0.570682
0.571596
0.57251
0.573422
0.574328
0.575228
0.576118
0.576995
0.577856
0.578697
0.579514
0.580304
0.548304
0.548541
0.548785
0.549038
0.549301
0.549575
0.54986
0.550156
0.550465
0.550788
0.551125
0.551476
0.551843
0.552226
0.552626
0.553043
0.553479
0.553933
0.554406
0.5549
0.555414
0.555949
0.556505
0.557084
0.557687
0.558313
0.558966
0.559647
0.560358
0.561102
0.561947
0.562879
0.563815
0.564755
0.5657
0.566649
0.567603
0.568561
0.569522
0.570485
0.571448
0.572411
0.573369
0.574322
0.575265
0.576197
0.577113
0.578009
0.578881
0.579725
0.546343
0.546591
0.546846
0.547112
0.547387
0.547673
0.547971
0.54828
0.548602
0.548938
0.549289
0.549654
0.550034
0.550431
0.550845
0.551277
0.551727
0.552196
0.552684
0.553192
0.553721
0.554271
0.554844
0.555439
0.556058
0.556703
0.557375
0.558077
0.558811
0.55958
0.560456
0.561423
0.562396
0.563374
0.56436
0.565352
0.56635
0.567354
0.568362
0.569375
0.570389
0.571403
0.572414
0.573421
0.57442
0.575407
0.576379
0.577332
0.578261
0.579161
0.54438
0.54464
0.544907
0.545185
0.545473
0.545771
0.546081
0.546404
0.546739
0.547088
0.547452
0.54783
0.548225
0.548635
0.549063
0.549508
0.549972
0.550455
0.550957
0.55148
0.552023
0.552588
0.553175
0.553786
0.554422
0.555085
0.555776
0.556499
0.557256
0.558051
0.558958
0.559961
0.560971
0.56199
0.563016
0.564052
0.565095
0.566146
0.567203
0.568265
0.56933
0.570397
0.571463
0.572524
0.573579
0.574624
0.575653
0.576665
0.577653
0.578612
0.542418
0.542689
0.542968
0.543258
0.543558
0.543868
0.544191
0.544526
0.544875
0.545237
0.545613
0.546005
0.546413
0.546837
0.547278
0.547736
0.548213
0.548709
0.549225
0.549761
0.550318
0.550897
0.551499
0.552125
0.552778
0.553458
0.554169
0.554913
0.555694
0.556514
0.557453
0.558493
0.559542
0.560601
0.56167
0.562749
0.563838
0.564936
0.566042
0.567155
0.568272
0.569392
0.570513
0.57163
0.572743
0.573845
0.574935
0.576006
0.577056
0.578077
0.540455
0.540737
0.541028
0.54133
0.541642
0.541965
0.5423
0.542648
0.543009
0.543384
0.543773
0.544178
0.544598
0.545035
0.545488
0.54596
0.546449
0.546958
0.547486
0.548035
0.548605
0.549198
0.549814
0.550455
0.551124
0.551822
0.552552
0.553318
0.554123
0.554971
0.555942
0.557019
0.558107
0.559207
0.560319
0.561442
0.562577
0.563723
0.564879
0.566042
0.567212
0.568387
0.569563
0.570737
0.571908
0.573071
0.574221
0.575356
0.576469
0.577554
0.538491
0.538784
0.539087
0.539401
0.539725
0.54006
0.540408
0.540768
0.541141
0.541528
0.54193
0.542347
0.542779
0.543228
0.543694
0.544177
0.544679
0.5452
0.54574
0.546301
0.546884
0.54749
0.54812
0.548776
0.549461
0.550177
0.550927
0.551715
0.552545
0.55342
0.554424
0.555539
0.556667
0.557808
0.558963
0.560131
0.561313
0.562507
0.563712
0.564927
0.56615
0.567379
0.568611
0.569844
0.571074
0.572299
0.573513
0.574712
0.575891
0.577044
0.536526
0.536831
0.537145
0.537471
0.537806
0.538154
0.538513
0.538885
0.539271
0.53967
0.540083
0.540512
0.540956
0.541417
0.541894
0.542389
0.542902
0.543434
0.543986
0.544559
0.545154
0.545773
0.546416
0.547088
0.547789
0.548523
0.549293
0.550104
0.550959
0.551862
0.552899
0.554052
0.55522
0.556403
0.557601
0.558815
0.560043
0.561285
0.56254
0.563806
0.565082
0.566366
0.567656
0.568948
0.57024
0.571527
0.572807
0.574074
0.575322
0.576545
0.53456
0.534876
0.535201
0.535538
0.535886
0.536245
0.536616
0.536999
0.537396
0.537807
0.538232
0.538672
0.539128
0.539599
0.540087
0.540593
0.541117
0.54166
0.542223
0.542808
0.543414
0.544045
0.544703
0.545389
0.546107
0.546859
0.547651
0.548484
0.549365
0.550296
0.551366
0.552559
0.553767
0.554992
0.556233
0.557491
0.558766
0.560056
0.56136
0.562678
0.564008
0.565348
0.566695
0.568048
0.569403
0.570756
0.572103
0.57344
0.574761
0.576057
0.532593
0.532919
0.533256
0.533604
0.533962
0.534332
0.534715
0.53511
0.535518
0.535939
0.536375
0.536826
0.537292
0.537774
0.538273
0.538789
0.539324
0.539877
0.540451
0.541046
0.541664
0.542308
0.542979
0.54368
0.544415
0.545187
0.545999
0.546856
0.547762
0.548722
0.549826
0.551057
0.552305
0.553572
0.554856
0.556159
0.55748
0.558817
0.560172
0.561542
0.562925
0.564321
0.565728
0.567143
0.568562
0.569983
0.571401
0.572811
0.574206
0.575579
0.530625
0.530961
0.531308
0.531667
0.532036
0.532417
0.53281
0.533215
0.533634
0.534066
0.534513
0.534974
0.53545
0.535942
0.536451
0.536976
0.537521
0.538084
0.538668
0.539274
0.539904
0.54056
0.541245
0.541962
0.542714
0.543505
0.544338
0.545219
0.546152
0.54714
0.548278
0.549547
0.550835
0.552142
0.553469
0.554816
0.556183
0.557568
0.558972
0.560394
0.561832
0.563285
0.564752
0.56623
0.567717
0.569207
0.570698
0.572183
0.573656
0.575108
0.528656
0.529001
0.529358
0.529727
0.530106
0.530497
0.5309
0.531316
0.531744
0.532187
0.532643
0.533114
0.533599
0.534101
0.534619
0.535154
0.535707
0.53628
0.536874
0.537491
0.538133
0.538801
0.539501
0.540233
0.541003
0.541813
0.542668
0.543573
0.544532
0.545549
0.54672
0.548027
0.549354
0.550702
0.552071
0.553461
0.554873
0.556306
0.557759
0.559233
0.560726
0.562238
0.563767
0.56531
0.566865
0.568427
0.569993
0.571556
0.57311
0.574645
0.526686
0.52704
0.527406
0.527784
0.528173
0.528573
0.528985
0.529411
0.529849
0.5303
0.530765
0.531245
0.53174
0.53225
0.532777
0.533321
0.533883
0.534466
0.53507
0.535697
0.53635
0.537032
0.537745
0.538494
0.539281
0.540112
0.540989
0.541918
0.542903
0.543947
0.545151
0.546495
0.547861
0.549248
0.550659
0.552092
0.553548
0.555028
0.556531
0.558058
0.559607
0.561178
0.56277
0.56438
0.566005
0.567642
0.569285
0.570929
0.572566
0.574186
0.524714
0.525076
0.525451
0.525838
0.526235
0.526644
0.527065
0.527499
0.527946
0.528406
0.528879
0.529368
0.529871
0.530389
0.530924
0.531477
0.532048
0.53264
0.533254
0.533892
0.534557
0.535252
0.53598
0.536745
0.53755
0.538401
0.5393
0.540253
0.541263
0.542335
0.543571
0.544951
0.546354
0.54778
0.549231
0.550706
0.552207
0.553734
0.555287
0.556866
0.558472
0.560104
0.56176
0.563438
0.565136
0.566849
0.568572
0.570298
0.572022
0.573731
0.522741
0.523111
0.523493
0.523888
0.524293
0.524709
0.525139
0.52558
0.526035
0.526503
0.526984
0.52748
0.527991
0.528518
0.529061
0.529622
0.530202
0.530802
0.531426
0.532075
0.532752
0.533461
0.534204
0.534985
0.535809
0.53668
0.537601
0.538577
0.539612
0.540711
0.541977
0.543393
0.544832
0.546296
0.547786
0.549303
0.550847
0.552421
0.554024
0.555657
0.55732
0.559013
0.560735
0.562483
0.564255
0.566046
0.567851
0.569663
0.571475
0.573277
0.520766
0.521143
0.521532
0.521933
0.522345
0.522769
0.523205
0.523654
0.524116
0.524591
0.52508
0.525583
0.526101
0.526635
0.527186
0.527755
0.528343
0.528953
0.529587
0.530247
0.530937
0.531659
0.532417
0.533215
0.534058
0.534948
0.53589
0.536889
0.537949
0.539073
0.540369
0.541818
0.543292
0.544793
0.546321
0.547879
0.549467
0.551088
0.552741
0.554428
0.55615
0.557905
0.559694
0.561513
0.56336
0.565231
0.56712
0.56902
0.570924
0.572821
0.51879
0.519172
0.519567
0.519975
0.520393
0.520823
0.521265
0.52172
0.522189
0.52267
0.523165
0.523675
0.5242
0.524741
0.525299
0.525876
0.526473
0.527092
0.527737
0.528408
0.52911
0.529846
0.53062
0.531435
0.532295
0.533205
0.534168
0.535189
0.536272
0.537421
0.538745
0.540227
0.541734
0.54327
0.544836
0.546434
0.548066
0.549733
0.551437
0.553178
0.554959
0.556778
0.558634
0.560526
0.56245
0.564402
0.566377
0.568367
0.570366
0.572362
0.516812
0.517199
0.517599
0.518011
0.518435
0.51887
0.519318
0.519778
0.520252
0.520739
0.52124
0.521756
0.522288
0.522835
0.523401
0.523985
0.524591
0.52522
0.525875
0.526558
0.527273
0.528023
0.528812
0.529644
0.530522
0.53145
0.532434
0.533476
0.53458
0.535753
0.537104
0.538616
0.540156
0.541726
0.543329
0.544967
0.546641
0.548355
0.550109
0.551906
0.553746
0.555628
0.557553
0.559518
0.561521
0.563556
0.565618
0.567701
0.569798
0.571897
0.514833
0.515223
0.515627
0.516043
0.516471
0.51691
0.517363
0.517828
0.518306
0.518799
0.519305
0.519827
0.520364
0.520918
0.521491
0.522083
0.522697
0.523336
0.524001
0.524696
0.525424
0.526188
0.526993
0.527841
0.528736
0.529683
0.530686
0.531748
0.532873
0.534068
0.535444
0.536985
0.538556
0.540159
0.541798
0.543475
0.545192
0.546952
0.548757
0.550609
0.552508
0.554455
0.556449
0.558488
0.560569
0.562689
0.564841
0.56702
0.569217
0.571422
0.512852
0.513245
0.513651
0.514071
0.514501
0.514944
0.5154
0.515869
0.516352
0.516848
0.517359
0.517886
0.518429
0.51899
0.519569
0.520169
0.520792
0.521441
0.522117
0.522824
0.523565
0.524343
0.525162
0.526026
0.526939
0.527903
0.528923
0.530004
0.531149
0.532363
0.533764
0.535332
0.536933
0.538569
0.540242
0.541957
0.543717
0.545523
0.547378
0.549285
0.551244
0.553255
0.555319
0.557432
0.559593
0.561798
0.564042
0.566318
0.56862
0.570936
0.510869
0.511264
0.511672
0.512093
0.512526
0.512972
0.51343
0.513902
0.514388
0.514888
0.515404
0.515935
0.516483
0.51705
0.517636
0.518244
0.518876
0.519534
0.520221
0.52094
0.521694
0.522486
0.52332
0.5242
0.525128
0.526108
0.527145
0.528243
0.529406
0.530639
0.532062
0.533657
0.535286
0.536953
0.538661
0.540413
0.542214
0.544066
0.545971
0.547932
0.54995
0.552026
0.554159
0.556347
0.558589
0.56088
0.563217
0.565594
0.568003
0.570434
0.508885
0.50928
0.509689
0.510111
0.510545
0.510992
0.511453
0.511927
0.512415
0.512919
0.513438
0.513973
0.514527
0.515099
0.515692
0.516308
0.516949
0.517617
0.518315
0.519045
0.519812
0.520618
0.521466
0.52236
0.523303
0.524298
0.525351
0.526464
0.527643
0.528894
0.530338
0.531957
0.533614
0.53531
0.537052
0.538841
0.540682
0.542579
0.544533
0.546548
0.548625
0.550764
0.552966
0.55523
0.557552
0.559931
0.562363
0.564842
0.567362
0.569912
0.506899
0.507294
0.507703
0.508125
0.508559
0.509007
0.509468
0.509943
0.510434
0.51094
0.511462
0.512002
0.51256
0.513138
0.513738
0.514362
0.515011
0.515689
0.516397
0.51714
0.517919
0.518737
0.519599
0.520506
0.521463
0.522472
0.523538
0.524666
0.52586
0.527127
0.52859
0.530233
0.531915
0.533641
0.535414
0.537239
0.53912
0.54106
0.543063
0.545131
0.547265
0.549468
0.551738
0.554076
0.556479
0.558947
0.561475
0.564058
0.566691
0.569364
0.504912
0.505306
0.505713
0.506134
0.506568
0.507015
0.507476
0.507953
0.508444
0.508952
0.509478
0.510021
0.510584
0.511167
0.511774
0.512405
0.513063
0.51375
0.514469
0.515223
0.516013
0.516844
0.517718
0.518638
0.519607
0.520628
0.521707
0.522847
0.524055
0.525337
0.526818
0.528483
0.53019
0.531943
0.533747
0.535607
0.537526
0.539509
0.541558
0.543677
0.545868
0.548132
0.550469
0.552881
0.555366
0.557922
0.560547
0.563237
0.565986
0.568785
0.502923
0.503315
0.50372
0.504139
0.504572
0.505018
0.505479
0.505955
0.506447
0.506957
0.507484
0.508031
0.508598
0.509187
0.5098
0.510439
0.511105
0.511801
0.51253
0.513295
0.514096
0.514938
0.515823
0.516754
0.517734
0.518767
0.519856
0.521008
0.522228
0.523524
0.525021
0.526707
0.528437
0.530216
0.53205
0.533942
0.535898
0.537921
0.540016
0.542184
0.544429
0.546753
0.549157
0.551642
0.554207
0.556852
0.559575
0.562373
0.56524
0.568169
0.500933
0.501322
0.501724
0.502141
0.502571
0.503015
0.503475
0.503951
0.504443
0.504954
0.505483
0.506033
0.506604
0.507198
0.507817
0.508463
0.509137
0.509842
0.510581
0.511355
0.512167
0.513019
0.513914
0.514855
0.515844
0.516886
0.517985
0.519146
0.520377
0.521685
0.523199
0.524904
0.526655
0.528459
0.530321
0.532244
0.534234
0.536296
0.538433
0.540649
0.542947
0.545329
0.547797
0.550354
0.552998
0.555732
0.558552
0.561458
0.564446
0.567508
0.498941
0.499327
0.499726
0.500139
0.500566
0.501008
0.501466
0.501941
0.502433
0.502944
0.503475
0.504027
0.504602
0.505201
0.505825
0.506478
0.507159
0.507873
0.50862
0.509403
0.510224
0.511086
0.511989
0.512938
0.513936
0.514985
0.516092
0.517263
0.518503
0.519822
0.52135
0.523073
0.524844
0.526671
0.528558
0.53051
0.532533
0.534631
0.536808
0.539069
0.541416
0.543854
0.546385
0.549011
0.551734
0.554554
0.557473
0.560488
0.563598
0.566797
0.496948
0.49733
0.497725
0.498134
0.498558
0.498997
0.499452
0.499925
0.500417
0.500928
0.50146
0.502014
0.502592
0.503195
0.503825
0.504484
0.505173
0.505894
0.506649
0.50744
0.508269
0.509138
0.510048
0.511004
0.512008
0.513064
0.514178
0.515356
0.516605
0.517934
0.519474
0.521213
0.523003
0.52485
0.526761
0.528739
0.530792
0.532923
0.535137
0.53744
0.539835
0.542325
0.544916
0.54761
0.550408
0.553315
0.55633
0.559454
0.562688
0.566027
0.494954
0.495331
0.495721
0.496126
0.496546
0.496981
0.497434
0.497905
0.498396
0.498907
0.499439
0.499995
0.500576
0.501183
0.501818
0.502482
0.503177
0.503904
0.504666
0.505464
0.5063
0.507175
0.508091
0.509052
0.510061
0.511123
0.512242
0.513426
0.514682
0.51602
0.517571
0.519324
0.52113
0.522996
0.524927
0.52693
0.529009
0.53117
0.533418
0.535759
0.538198
0.540738
0.543386
0.546144
0.549016
0.552006
0.555117
0.558351
0.56171
0.565192
0.492958
0.493331
0.493716
0.494116
0.494531
0.494963
0.495413
0.495882
0.49637
0.496881
0.497414
0.497971
0.498554
0.499164
0.499803
0.500471
0.501172
0.501905
0.502673
0.503476
0.504317
0.505196
0.506117
0.507082
0.508095
0.50916
0.510283
0.511472
0.512734
0.51408
0.51564
0.517405
0.519225
0.521107
0.523057
0.525079
0.527182
0.529369
0.531648
0.534024
0.536502
0.539089
0.541789
0.544608
0.547551
0.550623
0.553828
0.557172
0.560657
0.564284
0.490962
0.491329
0.491709
0.492104
0.492515
0.492943
0.493389
0.493855
0.494341
0.494851
0.495384
0.495942
0.496526
0.497139
0.497781
0.498453
0.499158
0.499895
0.500667
0.501475
0.502319
0.503202
0.504126
0.505093
0.506108
0.507176
0.508302
0.509495
0.510761
0.512113
0.513681
0.515456
0.517288
0.519182
0.521147
0.523187
0.525308
0.527518
0.529823
0.53223
0.534744
0.537372
0.540121
0.542998
0.546008
0.549159
0.552457
0.555909
0.559521
0.563296
0.488964
0.489326
0.489701
0.490091
0.490496
0.49092
0.491362
0.491825
0.49231
0.492817
0.49335
0.493908
0.494493
0.495108
0.495752
0.496427
0.497135
0.497876
0.498651
0.499461
0.500307
0.501192
0.502117
0.503085
0.504101
0.50517
0.506298
0.507493
0.508764
0.510119
0.511693
0.513475
0.515316
0.517221
0.519196
0.52125
0.523387
0.525615
0.527942
0.530374
0.53292
0.535585
0.538378
0.541308
0.544381
0.547608
0.550996
0.554556
0.558295
0.562219
0.486966
0.487322
0.487691
0.488076
0.488477
0.488896
0.489334
0.489794
0.490276
0.490781
0.491312
0.49187
0.492456
0.493071
0.493717
0.494394
0.495103
0.495846
0.496622
0.497433
0.49828
0.499165
0.50009
0.501058
0.502074
0.503143
0.504272
0.505468
0.50674
0.508098
0.509676
0.511463
0.513309
0.51522
0.517204
0.519267
0.521415
0.523658
0.526001
0.528455
0.531026
0.533723
0.536556
0.539533
0.542666
0.545964
0.54944
0.553105
0.55697
0.561042
0.484966
0.485318
0.485681
0.48606
0.486456
0.486871
0.487305
0.487761
0.48824
0.488743
0.489272
0.489829
0.490414
0.491029
0.491675
0.492353
0.493063
0.493805
0.494582
0.495392
0.496239
0.497122
0.498046
0.499013
0.500027
0.501095
0.502223
0.503419
0.504692
0.506051
0.50763
0.509418
0.511267
0.513181
0.515168
0.517236
0.519391
0.521643
0.523998
0.526467
0.529059
0.531783
0.534649
0.53767
0.540856
0.544222
0.547782
0.551548
0.555536
0.559754
0.482966
0.483312
0.48367
0.484044
0.484435
0.484845
0.485275
0.485727
0.486202
0.486703
0.48723
0.487785
0.488368
0.488983
0.489628
0.490304
0.491013
0.491755
0.492529
0.493338
0.494182
0.495063
0.495984
0.496948
0.49796
0.499026
0.500152
0.501346
0.502618
0.503975
0.505553
0.50734
0.509188
0.511101
0.513088
0.515156
0.517314
0.519569
0.521931
0.52441
0.527016
0.529761
0.532655
0.535712
0.538947
0.542375
0.546012
0.549876
0.553981
0.558341
0.480966
0.481307
0.481659
0.482028
0.482414
0.482819
0.483244
0.483692
0.484164
0.484661
0.485185
0.485737
0.486319
0.486931
0.487574
0.488248
0.488955
0.489693
0.490465
0.491271
0.492111
0.492988
0.493905
0.494866
0.495874
0.496936
0.498059
0.49925
0.500518
0.501873
0.503447
0.505229
0.507071
0.50898
0.510963
0.513026
0.515181
0.517434
0.519797
0.52228
0.524895
0.527654
0.530569
0.533657
0.536933
0.540416
0.544124
0.548077
0.552294
0.556789
0.478965
0.479301
0.479648
0.480012
0.480393
0.480793
0.481214
0.481657
0.482125
0.482618
0.483139
0.483688
0.484266
0.484874
0.485514
0.486185
0.486887
0.487622
0.488389
0.48919
0.490026
0.490898
0.49181
0.492765
0.493768
0.494826
0.495944
0.497131
0.498394
0.499743
0.50131
0.503084
0.504918
0.506817
0.50879
0.510845
0.512991
0.515237
0.517595
0.520077
0.522693
0.525459
0.528388
0.531499
0.534808
0.538337
0.542108
0.546141
0.55046
0.555082
0.476963
0.477295
0.477637
0.477996
0.478372
0.478767
0.479183
0.479622
0.480085
0.480574
0.48109
0.481635
0.482209
0.482813
0.483448
0.484114
0.484811
0.48554
0.486302
0.487097
0.487926
0.488792
0.489697
0.490647
0.491644
0.492696
0.493808
0.494988
0.496244
0.497585
0.499142
0.500905
0.502726
0.504612
0.506571
0.508612
0.510744
0.512977
0.515324
0.517797
0.520408
0.523173
0.526109
0.529233
0.532566
0.536131