/*--------------------------------*- C++ -*----------------------------------*\
  =========                 |
  \\      /  F ield         | OpenFOAM: The Open Source CFD Toolbox
   \\    /   O peration     | Website:  https://openfoam.org
    \\  /    A nd           | Version:  9
     \\/     M anipulation  |
\*---------------------------------------------------------------------------*/
FoamFile
{
    format      ascii;
    class       volScalarField;
    location    "0.02";
    object      p_rgh;
}
// * * * * * * * * * * * * * * * * * * * * * * * * * * * * * * * * * * * * * //

dimensions      [1 -1 -2 0 0 0 0];

internalField   nonuniform List<scalar> 
5000
(
-8.08968e-06
-1.80969e-05
-2.24734e-05
-2.48233e-05
-2.67938e-05
-2.85823e-05
-3.03345e-05
-3.22216e-05
-3.44554e-05
-3.72606e-05
-4.08638e-05
-4.54936e-05
-5.13856e-05
-5.87902e-05
-6.79785e-05
-7.92473e-05
-9.29229e-05
-0.000109366
-0.000128977
-0.000152201
-0.000179536
-0.000211535
-0.000248821
-0.000292089
-0.000342115
-0.00039977
-0.000466024
-0.00054196
-0.000628772
-0.000727749
-0.000850007
-0.000996537
-0.00115526
-0.00132611
-0.00150891
-0.00170334
-0.00190896
-0.00212519
-0.00235126
-0.00258628
-0.00282913
-0.00307852
-0.0033329
-0.00359051
-0.00384934
-0.00410711
-0.0043613
-0.00460914
-0.00484756
-0.00507334
-1.06507e-05
-2.38522e-05
-2.93433e-05
-3.1755e-05
-3.27651e-05
-3.24495e-05
-3.09578e-05
-2.85319e-05
-2.5429e-05
-2.18977e-05
-1.81749e-05
-1.44872e-05
-1.1057e-05
-8.11108e-06
-5.88709e-06
-4.63937e-06
-4.64331e-06
-6.20071e-06
-9.64626e-06
-1.53545e-05
-2.37473e-05
-3.53008e-05
-5.05542e-05
-7.01177e-05
-9.46814e-05
-0.000125022
-0.000162008
-0.000206606
-0.000259867
-0.00032291
-0.000403499
-0.000503676
-0.000615463
-0.000738715
-0.00087319
-0.00101855
-0.00117436
-0.00134002
-0.00151484
-0.00169796
-0.00188835
-0.00208484
-0.00228602
-0.00249033
-0.00269596
-0.00290089
-0.00310289
-0.0032995
-0.00348805
-0.003666
-1.34235e-06
-1.63591e-06
1.08629e-06
5.09951e-06
1.0148e-05
1.64241e-05
2.39116e-05
3.25003e-05
4.20722e-05
5.24939e-05
6.36179e-05
7.52893e-05
8.73473e-05
9.96225e-05
0.000111934
0.000124088
0.000135874
0.000147058
0.00015738
0.000166541
0.0001742
0.00017996
0.000183368
0.000183897
0.000180945
0.000173823
0.000161758
0.000143885
0.000119254
8.68776e-05
4.18965e-05
-1.91041e-05
-9.12511e-05
-0.000174303
-0.000268032
-0.000372126
-0.000486167
-0.00060963
-0.000741866
-0.000882103
-0.00102943
-0.00118278
-0.00134093
-0.00150247
-0.00166582
-0.0018292
-0.00199063
-0.00214795
-0.00229883
-0.00244141
3.65813e-06
1.28284e-05
2.37121e-05
3.55079e-05
4.81882e-05
6.19715e-05
7.69108e-05
9.30096e-05
0.000110257
0.000128616
0.000148032
0.00016843
0.000189727
0.000211825
0.000234613
0.000257968
0.000281753
0.000305809
0.000329954
0.000353968
0.000377593
0.000400518
0.000422375
0.000442725
0.000461054
0.000476765
0.000489177
0.000497519
0.000500921
0.000498415
0.000487851
0.000465254
0.000432114
0.000388595
0.00033489
0.000271282
0.000198141
0.000115938
2.52446e-05
-7.32557e-05
-0.000178761
-0.000290342
-0.000406928
-0.000527293
-0.000650053
-0.000773652
-0.000896374
-0.00101633
-0.00113154
-0.00124078
8.09284e-06
2.5478e-05
4.42492e-05
6.40836e-05
8.49732e-05
0.000107065
0.000130434
0.000155128
0.000181188
0.000208641
0.0002375
0.000267764
0.000299418
0.000332438
0.000366785
0.000402413
0.000439259
0.000477245
0.000516267
0.000556191
0.000596841
0.000637999
0.000679383
0.000720649
0.000761376
0.000801063
0.000839121
0.000874872
0.000907527
0.000936135
0.000961286
0.000978727
0.000986212
0.000983816
0.000971699
0.000950096
0.000919321
0.000879772
0.000831938
0.000776401
0.000713843
0.000645058
0.000570956
0.000492584
0.000411127
0.000327912
0.000244405
0.000162221
8.29936e-05
7.30472e-06
1.21957e-05
3.72273e-05
6.34188e-05
9.09816e-05
0.000119928
0.000150361
0.000182358
0.000215983
0.000251303
0.000288382
0.000327276
0.000368032
0.000410695
0.000455303
0.000501885
0.000550465
0.000601055
0.000653653
0.000708234
0.000764748
0.000823107
0.000883181
0.000944782
0.00100766
0.00107149
0.00113587
0.00120031
0.00126421
0.00132689
0.00138748
0.00144942
0.00150781
0.00155668
0.00159612
0.00162626
0.00164727
0.00165939
0.00166296
0.00165836
0.00164606
0.00162664
0.00160073
0.0015691
0.00153263
0.0014923
0.00144922
0.00140462
0.00135985
0.00131622
0.0012737
1.61286e-05
4.85933e-05
8.20441e-05
0.000117187
0.000154076
0.000192782
0.000233398
0.000276009
0.000320706
0.00036758
0.000416719
0.000468213
0.000522153
0.00057863
0.000637733
0.000699548
0.000764155
0.000831622
0.000902002
0.000975325
0.00105159
0.00113075
0.00121271
0.00129731
0.00138434
0.00147347
0.00156431
0.00165638
0.00174906
0.00184157
0.00194027
0.0020394
0.00212939
0.00221034
0.00228234
0.0023455
0.00239999
0.00244605
0.00248396
0.0025141
0.00253691
0.00255289
0.00256267
0.00256696
0.00256656
0.00256239
0.00255545
0.00254683
0.00253756
0.00252703
1.99244e-05
5.97429e-05
0.000100485
0.000143248
0.000188115
0.000235153
0.000284475
0.000336189
0.000390409
0.00044725
0.000506833
0.000569286
0.000634742
0.00070334
0.000775221
0.000850525
0.000929393
0.00101196
0.00109835
0.00118867
0.001283
0.00138137
0.00148379
0.00159018
0.00170042
0.00181428
0.00193147
0.00205158
0.00217407
0.00229825
0.00243333
0.00257281
0.00270353
0.00282555
0.00293891
0.00304365
0.00313987
0.0032277
0.00330733
0.00337901
0.00344307
0.0034999
0.00354997
0.00359384
0.00363216
0.00366566
0.00369512
0.00372141
0.00374527
0.00376559
2.36372e-05
7.07937e-05
0.000118901
0.000169358
0.000222286
0.00027776
0.000335917
0.000396887
0.000460807
0.000527821
0.000598085
0.00067176
0.000749021
0.000830048
0.000915028
0.00100415
0.00109762
0.00119562
0.00129836
0.00140599
0.00151868
0.00163655
0.00175967
0.00188808
0.00202172
0.00216047
0.00230411
0.00245231
0.00260462
0.00276038
0.00293168
0.00311134
0.00328261
0.00344549
0.00359995
0.00374595
0.00388349
0.00401261
0.00413341
0.00424602
0.00435065
0.00444757
0.00453713
0.00461976
0.00469593
0.0047662
0.00483116
0.00489147
0.00494761
0.00499801
2.73249e-05
8.18601e-05
0.000137404
0.000195633
0.000256715
0.000320737
0.000387856
0.000458225
0.00053201
0.00060939
0.000690554
0.0007757
0.000865038
0.000958789
0.00105718
0.00116046
0.00126888
0.00138268
0.00150211
0.00162742
0.00175883
0.00189653
0.00204069
0.0021914
0.00234872
0.00251258
0.00268286
0.00285929
0.00304149
0.00322887
0.00343637
0.00365615
0.00386785
0.00407143
0.00426678
0.00445377
0.0046323
0.00480233
0.00496383
0.00511685
0.00526149
0.00539791
0.00552632
0.00564703
0.00576037
0.00586672
0.0059665
0.00606015
0.00614792
0.00622786
3.10052e-05
9.29912e-05
0.000156055
0.00022215
0.000291489
0.000364168
0.000440369
0.000520275
0.000604084
0.00069201
0.000784273
0.000881108
0.000982762
0.0010895
0.00120159
0.00131932
0.001443
0.00157291
0.00170938
0.00185269
0.00200314
0.00216099
0.00232647
0.00249977
0.00268099
0.00287016
0.00306721
0.00327195
0.00348408
0.00370303
0.00394663
0.00420636
0.00445829
0.0047023
0.00493822
0.00516583
0.00538493
0.00559539
0.00579708
0.00598995
0.006174
0.00634929
0.00651593
0.00667408
0.00682394
0.00696574
0.00709971
0.00722612
0.00734498
0.00745405
3.46684e-05
0.000104191
0.000174885
0.000248967
0.000326681
0.000408138
0.000493552
0.000583141
0.000677136
0.000775782
0.000879335
0.000988065
0.00110226
0.00122222
0.00134826
0.00148072
0.00161993
0.00176626
0.00192004
0.00208165
0.00225143
0.0024297
0.00261677
0.00281287
0.00301817
0.00323277
0.00345666
0.00368972
0.00393169
0.00418208
0.00446158
0.00476097
0.00505278
0.00533685
0.00561291
0.00588066
0.00613983
0.00639016
0.00663145
0.00686358
0.00708644
0.0073
0.00750426
0.00769927
0.00788508
0.00806178
0.00822943
0.00838812
0.00853766
0.00867559
3.83081e-05
0.000115472
0.000193933
0.000276136
0.000362357
0.000452734
0.000547518
0.000646954
0.000751306
0.000860852
0.000975886
0.00109672
0.00122367
0.00135709
0.00149733
0.00164477
0.00179979
0.00196279
0.00213417
0.00231435
0.00250372
0.00270267
0.00291154
0.00313062
0.00336015
0.00360026
0.00385101
0.00411233
0.00438402
0.00466563
0.00498072
0.00531941
0.0056507
0.00597437
0.00629008
0.00659745
0.00689611
0.00718574
0.00746608
0.00773689
0.00799802
0.00824931
0.00849069
0.00872208
0.00894341
0.00915461
0.0093556
0.00954629
0.0097263
0.00989304
4.19192e-05
0.000126848
0.00021323
0.000303704
0.000398586
0.000498046
0.000602366
0.000711821
0.000826708
0.000947341
0.00107405
0.00120719
0.00134712
0.00149423
0.0016489
0.00181156
0.00198264
0.00216258
0.00235183
0.00255083
0.00276005
0.00297989
0.00321076
0.00345298
0.00370683
0.0039725
0.00425008
0.00453955
0.00484077
0.00515334
0.00550365
0.00588119
0.00625148
0.00661425
0.00696907
0.0073155
0.00765309
0.00798148
0.00830031
0.00860931
0.00890822
0.00919684
0.00947497
0.00974243
0.00999902
0.0102445
0.0104787
0.0107014
0.0109118
0.0111076
4.54948e-05
0.000138324
0.000232793
0.000331717
0.00043544
0.000544162
0.000658195
0.000777848
0.000903453
0.00103537
0.00117395
0.00131961
0.00147272
0.00163373
0.00180307
0.00198118
0.00216856
0.00236567
0.00257301
0.00279108
0.00302034
0.00326127
0.00351428
0.00377975
0.00405797
0.00434918
0.0046535
0.00497096
0.00530146
0.00564466
0.00602977
0.00644566
0.00685441
0.0072557
0.00764905
0.00803395
0.00840992
0.00877652
0.00913337
0.00948012
0.00981646
0.0101421
0.0104568
0.0107602
0.011052
0.0113318
0.0115993
0.0118541
0.0120953
0.0123206
4.9037e-05
0.000149924
0.000252668
0.000360238
0.000472992
0.000591162
0.000715095
0.000845135
0.000981653
0.00112504
0.0012757
0.00143407
0.00160058
0.0017757
0.0019599
0.00215368
0.00235757
0.00257207
0.00279771
0.00303502
0.0032845
0.00354665
0.0038219
0.00411065
0.00441323
0.0047299
0.00506081
0.00540602
0.00576549
0.00613891
0.00655831
0.00701196
0.00745857
0.00789777
0.00832905
0.00875183
0.00916562
0.00956996
0.0099644
0.0103486
0.0107221
0.0110847
0.0114358
0.0117752
0.0121024
0.0124168
0.012718
0.0130053
0.0132778
0.0135333
5.25464e-05
0.000161678
0.000272905
0.000389325
0.000511305
0.000639114
0.000773144
0.000913771
0.0010614
0.00121646
0.0013794
0.00155067
0.00173077
0.00192019
0.00211946
0.00232911
0.00254969
0.00278176
0.00302587
0.00328257
0.00355239
0.00383583
0.00413335
0.00444536
0.00477222
0.00511418
0.00547144
0.0058441
0.00623214
0.00663532
0.00708844
0.00757921
0.00806302
0.00853949
0.00900807
0.00946817
0.00991929
0.0103609
0.0107927
0.0112141
0.0116248
0.0120242
0.012412
0.0127877
0.0131506
0.0135001
0.0138356
0.0141561
0.0144608
0.0147475
5.60081e-05
0.000173586
0.000293513
0.000418994
0.000550405
0.000688065
0.0008324
0.000983819
0.00114276
0.00130969
0.0014851
0.00166947
0.00186335
0.00206727
0.00228179
0.00250749
0.00274493
0.00299472
0.00325742
0.0035336
0.00382381
0.00412855
0.00444831
0.00478348
0.00513444
0.00550147
0.00588478
0.0062845
0.00670065
0.00713306
0.00761926
0.00814647
0.00866681
0.0091799
0.00968518
0.0101821
0.0106701
0.0111488
0.0116177
0.0120763
0.0125241
0.0129608
0.0133856
0.013798
0.0141973
0.0145827
0.0149533
0.0153081
0.0156459
0.0159649
5.93998e-05
0.000185628
0.000314477
0.000449243
0.00059031
0.000738041
0.000892897
0.00105532
0.00122578
0.00140478
0.00159285
0.00179052
0.00199837
0.00221697
0.00244691
0.0026888
0.00294325
0.00321085
0.00349222
0.00378792
0.00409851
0.0044245
0.00476637
0.00512453
0.00549936
0.00589114
0.00630012
0.00672643
0.00717016
0.00763121
0.00814983
0.00871277
0.00926896
0.00981805
0.0103595
0.0108928
0.0114175
0.011933
0.012439
0.0129349
0.0134203
0.0138945
0.014357
0.0148069
0.0152434
0.0156656
0.0160725
0.0164627
0.016835
0.0171879
6.27057e-05
0.000197797
0.000335805
0.000480095
0.000631051
0.000789078
0.000954672
0.00112831
0.00131049
0.00150177
0.0017027
0.00191386
0.00213586
0.0023693
0.0026148
0.00287301
0.00314455
0.00343003
0.00373009
0.00404528
0.00437617
0.00472327
0.00508706
0.00546795
0.00586632
0.00628247
0.00671664
0.00716903
0.00763976
0.00812882
0.00867918
0.00927713
0.00986853
0.0104531
0.0110303
0.0115997
0.0121608
0.0127132
0.0132564
0.01379
0.0143134
0.0148259
0.0153268
0.0158152
0.0162901
0.0167504
0.0171948
0.017622
0.0180303
0.0184185
6.59137e-05
0.0002101
0.000357517
0.000511582
0.000672662
0.00084121
0.00101777
0.00120283
0.00139695
0.00160071
0.0018147
0.00203953
0.00227583
0.00252425
0.00278543
0.00306004
0.00334871
0.00365208
0.00397078
0.00430537
0.00465641
0.00502441
0.00540984
0.00581312
0.00623462
0.00667466
0.00713351
0.00761138
0.00810849
0.00862492
0.00920633
0.00983864
0.0104647
0.0110842
0.0116968
0.0123021
0.0128997
0.0134892
0.0140701
0.0146419
0.015204
0.0157557
0.016296
0.016824
0.0173386
0.0178384
0.018322
0.0187877
0.0192338
0.0196591
6.90038e-05
0.000222532
0.000379622
0.000543713
0.000715157
0.000894465
0.00108221
0.00127894
0.00148521
0.00170165
0.00192887
0.00216753
0.00241827
0.00268177
0.00295871
0.00324975
0.00355555
0.00387676
0.00421398
0.0045678
0.00493876
0.00532736
0.00573408
0.00615933
0.00660349
0.00706688
0.0075498
0.00805254
0.00857537
0.00911853
0.00973034
0.0103964
0.0110566
0.0117108
0.0123587
0.0129999
0.0136342
0.0142611
0.0148803
0.015491
0.0160928
0.0166846
0.0172656
0.0178346
0.0183903
0.0189312
0.0194557
0.0199617
0.0204474
0.0209116
7.19502e-05
0.000235075
0.000402104
0.000576484
0.000758547
0.000948862
0.00114804
0.00135664
0.00157527
0.00180457
0.0020452
0.00229781
0.0025631
0.00284177
0.00313449
0.00344195
0.00376482
0.00410373
0.0044593
0.0048321
0.00522268
0.00563152
0.0060591
0.00650582
0.00697207
0.00745821
0.00796458
0.00849151
0.00903941
0.0096087
0.0102504
0.0109497
0.0116437
0.0123324
0.0130156
0.013693
0.0143643
0.0150293
0.0156874
0.016338
0.0169804
0.0176137
0.0182367
0.0188482
0.0194467
0.0200304
0.0205975
0.0211458
0.021673
0.022178
7.47254e-05
0.000247699
0.000424943
0.000609883
0.000802827
0.0010044
0.00121524
0.00143593
0.00166711
0.00190944
0.0021636
0.00243029
0.00271021
0.00300406
0.00331256
0.00363637
0.00397618
0.00433261
0.00470628
0.00509775
0.00550755
0.00593619
0.00638412
0.00685176
0.0073395
0.00784773
0.00837686
0.00892732
0.00949968
0.0100946
0.0107656
0.0114979
0.0122255
0.0129487
0.0136673
0.0143813
0.0150903
0.015794
0.016492
0.0171836
0.0178679
0.0185439
0.0192105
0.019866
0.0205089
0.0211373
0.0217489
0.0223413
0.022912
0.0234597
7.73006e-05
0.000260376
0.00044811
0.000643887
0.000847968
0.00106103
0.00128375
0.00151674
0.00176064
0.00201615
0.00228397
0.00256481
0.00285939
0.00316843
0.00349262
0.00383267
0.00418922
0.00456292
0.00495437
0.00536413
0.00579272
0.00624064
0.00670835
0.00719627
0.00770484
0.00823448
0.00878569
0.00935904
0.00995527
0.0105753
0.0112753
0.0120404
0.0128017
0.0135595
0.014314
0.0150651
0.0158125
0.0165559
0.0172948
0.0180285
0.0187561
0.0194763
0.0201879
0.0208891
0.0215782
0.0222529
0.0229109
0.0235495
0.0241657
0.0247579
7.96403e-05
0.000273068
0.000471565
0.000678438
0.000893894
0.00111867
0.00135348
0.00159893
0.00185572
0.00212453
0.0024061
0.00270114
0.00301038
0.00333453
0.00367431
0.0040304
0.00440346
0.00479412
0.00520297
0.00563057
0.00607743
0.00654406
0.00703092
0.00753847
0.00806716
0.00861751
0.00919013
0.00978577
0.0104054
0.0110502
0.0117791
0.0125769
0.013372
0.014165
0.0149559
0.0157447
0.0165314
0.0173155
0.0180965
0.0188736
0.0196458
0.0204117
0.0211698
0.0219184
0.0226553
0.0233782
0.0240845
0.024771
0.0254346
0.0260733
8.16971e-05
0.000285711
0.000495225
0.000713433
0.000940485
0.00117718
0.00142426
0.00168235
0.00195214
0.00223436
0.00252973
0.00283897
0.00316281
0.00350198
0.00385717
0.00422907
0.00461834
0.00502558
0.00545139
0.00589632
0.0063609
0.00684561
0.00735096
0.00787742
0.00842553
0.00899591
0.00958932
0.0102067
0.0108494
0.0115188
0.0122765
0.0131072
0.0139365
0.0147651
0.0155931
0.0164207
0.0172476
0.0180735
0.0188978
0.0197196
0.0205377
0.0213507
0.022157
0.0229544
0.0237409
0.0245136
0.0252698
0.0260061
0.0267191
0.0274062
8.34203e-05
0.000298224
0.000518984
0.00074875
0.000987604
0.00123641
0.00149592
0.00176678
0.00204968
0.00234535
0.00265452
0.00297792
0.00331627
0.00367029
0.00404067
0.00442809
0.0048332
0.00525661
0.00569889
0.0061606
0.00664226
0.0071444
0.00766753
0.00821219
0.00877903
0.00936879
0.00998244
0.0106212
0.0112866
0.0119806
0.0127673
0.0136312
0.0144953
0.0153602
0.0162262
0.0170933
0.0179616
0.0188304
0.0196992
0.0205669
0.0214323
0.0222938
0.0231496
0.0239974
0.0248349
0.0256591
0.0264669
0.0272548
0.0280189
0.0287563
8.47564e-05
0.000310526
0.000542737
0.00078426
0.0010351
0.00129617
0.00156824
0.00185196
0.00214803
0.00245717
0.00278011
0.00311757
0.00347028
0.00383893
0.00422423
0.00462683
0.00504737
0.00548645
0.00594465
0.00642253
0.00692063
0.00743949
0.00797969
0.00854186
0.00912677
0.00973534
0.0103688
0.0110286
0.0117167
0.0124353
0.0132513
0.0141491
0.0150485
0.0159505
0.0168553
0.0177631
0.0186737
0.0195865
0.0205009
0.0214158
0.0223297
0.023241
0.0241476
0.0250472
0.0259371
0.0268143
0.0276753
0.0285164
0.0293336
0.0301233
8.56631e-05
0.000322548
0.000566388
0.00081984
0.00108281
0.00135626
0.00164099
0.00193763
0.00224687
0.00256944
0.00290606
0.00325744
0.0036243
0.00400733
0.0044072
0.00482457
0.00526006
0.00571428
0.00618781
0.00668121
0.00719506
0.00772995
0.00828652
0.00886554
0.00946792
0.0100948
0.0107478
0.0114285
0.0121394
0.0128829
0.0137286
0.0146608
0.0155964
0.0165363
0.0174809
0.0184303
0.0193842
0.0203421
0.0213032
0.0222662
0.0232298
0.0241919
0.0251506
0.0261032
0.0270469
0.0279784
0.0288941
0.0297902
0.0306623
0.0315063
8.60573e-05
0.00033419
0.000589818
0.000855329
0.00113053
0.00141645
0.00171388
0.00202343
0.00234581
0.00268173
0.00303189
0.003397
0.00377774
0.00417481
0.00458885
0.00502052
0.00547045
0.00593922
0.00642745
0.00693571
0.00746461
0.00801483
0.00858712
0.00918238
0.00980175
0.0104466
0.0111188
0.0118205
0.0125543
0.0133231
0.0141991
0.0151665
0.0161391
0.0171178
0.0181031
0.0190949
0.0200931
0.021097
0.0221057
0.0231179
0.024132
0.0251461
0.0261578
0.0271645
0.0281631
0.0291503
0.0301224
0.0310752
0.0320041
0.0329046
8.58399e-05
0.000345253
0.000612763
0.000890437
0.00117796
0.0014764
0.00178653
0.00210898
0.00244441
0.00279353
0.00315704
0.0035356
0.00392991
0.00434062
0.00476839
0.00521385
0.00567764
0.00616035
0.00666261
0.00718505
0.00772833
0.00829323
0.00888063
0.00949163
0.0101276
0.0107903
0.0114817
0.0122045
0.0129615
0.0137561
0.014663
0.0156663
0.0166767
0.0176951
0.0187218
0.019757
0.0208002
0.0218509
0.022908
0.0239702
0.0250356
0.0261024
0.0271681
0.0282298
0.0292846
0.0303289
0.0313588
0.0323701
0.033358
0.0343175
8.51975e-05
0.00035589
0.000635234
0.000925101
0.00122496
0.00153587
0.00185863
0.00219384
0.00254217
0.00290428
0.00328086
0.00367255
0.00408003
0.00450395
0.00494494
0.00540364
0.00588069
0.00637671
0.00689235
0.00742829
0.00798531
0.00856428
0.00916628
0.00979262
0.0104449
0.0111253
0.0118361
0.0125802
0.0133609
0.0141818
0.0151203
0.0161603
0.0172092
0.018268
0.0193369
0.0204161
0.021505
0.0226031
0.0237092
0.0248219
0.0259394
0.0270596
0.02818
0.0292978
0.0304099
0.0315126
0.032602
0.0336738
0.034723
0.035744
8.41051e-05
0.000366143
0.000657229
0.000959201
0.00127127
0.00159452
0.00192974
0.00227753
0.0026385
0.00301332
0.00340263
0.00380707
0.00422728
0.00466392
0.0051176
0.00558896
0.00607865
0.00658733
0.0071157
0.00766452
0.00823467
0.0088272
0.00944339
0.0100848
0.0107533
0.0114514
0.0121817
0.0129476
0.0137525
0.0146003
0.015571
0.0166484
0.0177365
0.0188362
0.019948
0.0210716
0.0222068
0.0233527
0.0245081
0.0256718
0.0268418
0.028016
0.0291919
0.0303668
0.0315374
0.0327001
0.0338509
0.0349853
0.0360982
0.0371835
8.21962e-05
0.000375623
0.000678412
0.0009923
0.00131637
0.00165175
0.00199923
0.00235934
0.00273268
0.00311986
0.00352153
0.00393829
0.00437078
0.00481961
0.00528541
0.00576884
0.00627056
0.00679127
0.00733175
0.00789286
0.00847564
0.0090813
0.00971137
0.0103677
0.0110525
0.0117685
0.0125187
0.0133067
0.0141363
0.0150115
0.016015
0.0171303
0.0182581
0.0193993
0.0205542
0.0217227
0.0229043
0.0240982
0.0253034
0.0265183
0.0277412
0.02897
0.0302022
0.0314351
0.0326656
0.0338899
0.0351041
0.0363034
0.0374827
0.0386353
7.92517e-05
0.000383934
0.000698333
0.00102393
0.00135977
0.00170705
0.0020665
0.00243861
0.00282396
0.00322313
0.00363674
0.00406536
0.0045096
0.00497009
0.00544746
0.00594236
0.0064555
0.00698764
0.00753966
0.00811255
0.00870751
0.009326
0.00996977
0.010641
0.0113422
0.0120763
0.0128468
0.0136574
0.0145122
0.0154153
0.016452
0.0176057
0.0187736
0.0199566
0.0211548
0.0223682
0.0235963
0.0248383
0.0260932
0.0273596
0.0286357
0.0299196
0.031209
0.0325011
0.0337929
0.0350807
0.0363604
0.0376273
0.0388757
0.0400985
7.5289e-05
0.000390893
0.000716646
0.00105368
0.00140103
0.00175989
0.00213096
0.0025147
0.00291165
0.00332237
0.00374743
0.00418741
0.00464288
0.00511447
0.00560281
0.0061086
0.00663258
0.0071756
0.00773865
0.00832289
0.00892971
0.00956081
0.0102182
0.0109044
0.0116222
0.0123749
0.013166
0.0139997
0.0148801
0.0158115
0.0168818
0.0180741
0.0192822
0.0205069
0.0217484
0.0230066
0.0242811
0.0255712
0.0268758
0.0281937
0.0295235
0.0308632
0.0322106
0.0335632
0.034918
0.0362713
0.0376189
0.0389558
0.0402762
0.0415724
7.03483e-05
0.000396447
0.000733135
0.00108124
0.0014397
0.00180973
0.002192
0.00258692
0.002995
0.00341678
0.00385279
0.00430358
0.00476972
0.00525184
0.00575058
0.00626668
0.00680096
0.00735437
0.00792803
0.00852328
0.00914174
0.00978538
0.0104565
0.0111578
0.0118925
0.0126641
0.0134764
0.0143335
0.0152399
0.0161997
0.0173037
0.0185346
0.0197828
0.0210491
0.0223336
0.0236364
0.024957
0.0262949
0.0276492
0.0290189
0.0304026
0.0317988
0.0332054
0.0346199
0.0360395
0.0374604
0.0388782
0.0402879
0.0416832
0.0430559
6.43731e-05
0.000400496
0.000747615
0.0011063
0.00147538
0.00185608
0.00224903
0.00265461
0.0030733
0.00350558
0.00395198
0.00441301
0.00488925
0.00538132
0.00588991
0.00641579
0.00695989
0.00752326
0.00810719
0.00871323
0.00934325
0.00999944
0.0106844
0.0114012
0.0121531
0.0129439
0.0137777
0.0146586
0.0155911
0.0165795
0.0177171
0.0189863
0.0202743
0.0215817
0.0229088
0.0242557
0.025622
0.0270074
0.0284114
0.0298331
0.0312713
0.0327248
0.0341918
0.0356698
0.037156
0.0386466
0.0401373
0.0416223
0.0430955
0.0445477
5.72526e-05
0.000402863
0.000759846
0.00112854
0.00150767
0.00189846
0.00230151
0.00271716
0.00314585
0.00358804
0.00404421
0.00451489
0.00500064
0.0055021
0.00601999
0.00655518
0.00710866
0.00768167
0.00827565
0.00889237
0.00953394
0.0102028
0.0109019
0.0116344
0.0124039
0.0132143
0.0140698
0.0149747
0.0159333
0.0169502
0.018121
0.0194281
0.0207552
0.0221032
0.0234723
0.0248626
0.0262742
0.027707
0.0291605
0.0306344
0.0321278
0.0336396
0.0351682
0.0367113
0.0382661
0.0398288
0.0413945
0.0429577
0.0445114
0.0460462
4.88839e-05
0.000403363
0.000769564
0.00114762
0.00153615
0.00193637
0.00234887
0.00277394
0.00321197
0.00366341
0.00412873
0.00460844
0.00510311
0.0056134
0.00614011
0.00668417
0.00724671
0.00782911
0.00843302
0.00906042
0.00971365
0.0103954
0.0111089
0.0118574
0.0126448
0.0134751
0.0143525
0.0152813
0.016266
0.0173109
0.0185144
0.0198586
0.0212241
0.0226118
0.024022
0.0254552
0.0269116
0.0283915
0.0298947
0.0314212
0.0329705
0.0345416
0.0361332
0.0377431
0.0393684
0.0410052
0.0426484
0.0442921
0.0459292
0.0475497
3.91811e-05
0.000401822
0.000776513
0.00116319
0.00156039
0.00196933
0.00239055
0.00282432
0.003271
0.00373102
0.00420483
0.00469294
0.00519595
0.00571457
0.00624964
0.00680222
0.00737357
0.00796523
0.00857904
0.0092172
0.00988228
0.0105772
0.0113053
0.0120702
0.0128758
0.0137261
0.0146254
0.015578
0.0165883
0.0176606
0.0188961
0.0202764
0.0216793
0.0231057
0.0245563
0.0260316
0.0275324
0.0290591
0.0306122
0.0321917
0.0337976
0.0354292
0.0370852
0.0387635
0.0404611
0.042174
0.043897
0.0456238
0.0473471
0.0490564
2.80678e-05
0.000398086
0.000780454
0.00117494
0.00158001
0.00199687
0.00242603
0.00286773
0.00332233
0.00379021
0.00427185
0.00476776
0.00527856
0.00580503
0.0063481
0.00690892
0.00748891
0.00808978
0.00871355
0.00936264
0.0100398
0.0107482
0.0114913
0.0122727
0.0130966
0.0139669
0.0148879
0.0158639
0.0168993
0.0179983
0.0192646
0.0206799
0.022119
0.0235831
0.0250731
0.02659
0.0281347
0.0297082
0.0313112
0.0329444
0.0346078
0.0363009
0.0380225
0.0397707
0.0415423
0.0433332
0.0451381
0.0469504
0.0487626
0.050564
1.54745e-05
0.000392012
0.000781175
0.00118259
0.00159466
0.00201859
0.00245486
0.0029037
0.00336543
0.00384047
0.00432927
0.00483237
0.00535046
0.00588436
0.00643511
0.00700398
0.00759253
0.00820263
0.0088365
0.00949673
0.0101863
0.0109084
0.0116666
0.0124648
0.013307
0.0141972
0.0151396
0.0161384
0.017198
0.0183228
0.0196187
0.0210676
0.0225417
0.0240424
0.0255709
0.0271286
0.0287168
0.0303371
0.0319904
0.0336776
0.0353992
0.0371548
0.0389433
0.0407627
0.0426099
0.0444806
0.0463694
0.0482696
0.0501735
0.0520704
1.33959e-06
0.000383479
0.000778493
0.0011859
0.00160405
0.00203414
0.00247666
0.0029318
0.0033999
0.00388137
0.00437667
0.00488641
0.00541131
0.00595228
0.00651046
0.00708725
0.00768434
0.00830378
0.00894793
0.00961953
0.0103217
0.0110577
0.0118313
0.0126463
0.0135067
0.0144164
0.0153796
0.0164004
0.0174833
0.0186326
0.0199568
0.0214379
0.0229457
0.0244817
0.0260478
0.0276457
0.0292773
0.0309442
0.032648
0.0343898
0.0361702
0.0379891
0.0398454
0.0417372
0.0436613
0.0456134
0.0475881
0.0495787
0.0515773
0.0535732
-1.43913e-05
0.000372384
0.00077226
0.00118467
0.00160794
0.00204328
0.00249115
0.00295175
0.00342543
0.0039126
0.00441379
0.00492963
0.00546091
0.00600865
0.00657407
0.00715871
0.00776439
0.00839329
0.00904791
0.00973112
0.0104461
0.0111962
0.0119852
0.0128169
0.0136951
0.0146239
0.0156071
0.016649
0.0177539
0.0189264
0.0202775
0.0217893
0.0233293
0.0248997
0.0265025
0.0281401
0.0298145
0.0315281
0.0332825
0.0350791
0.0369189
0.0388017
0.0407267
0.0426918
0.0446939
0.0467289
0.0487914
0.0508748
0.0529712
0.05507
-3.17607e-05
0.000358653
0.000762371
0.00117877
0.00160619
0.00204582
0.00249814
0.00296336
0.00344184
0.00393403
0.0044405
0.00496195
0.00549924
0.00605348
0.00662601
0.00721846
0.0078328
0.0084713
0.00913658
0.00983158
0.0105595
0.0113238
0.0121281
0.0129762
0.0138718
0.0148188
0.0158211
0.0168829
0.0180085
0.0192029
0.0205794
0.0221203
0.0236913
0.0252949
0.0269336
0.0286102
0.0303272
0.0320872
0.0338922
0.0357439
0.0376433
0.0395904
0.0415844
0.0436236
0.0457048
0.0478241
0.0499762
0.0521549
0.0543524
0.0565578
-5.07921e-05
0.000342249
0.000748772
0.00116814
0.00159871
0.00204169
0.00249756
0.00296656
0.00344908
0.00394563
0.00445682
0.00498342
0.00552639
0.00608691
0.00666643
0.0072667
0.00788976
0.00853799
0.00921407
0.00992098
0.0106619
0.0114403
0.0122597
0.0131237
0.014036
0.0150004
0.0160207
0.017101
0.018246
0.0194608
0.020861
0.0224296
0.0240303
0.025666
0.0273398
0.0290548
0.0308139
0.03262
0.0344754
0.036382
0.038341
0.0403525
0.0424159
0.0445296
0.0466907
0.0488955
0.0511392
0.0534157
0.0557173
0.0580336
-7.14824e-05
0.000323186
0.000731477
0.00115279
0.00158553
0.0020309
0.00248944
0.0029614
0.00344724
0.00394751
0.00446289
0.00499423
0.00554256
0.00610917
0.0066956
0.00730367
0.00793551
0.00859356
0.00928051
0.00999935
0.0107532
0.0115455
0.0123796
0.0132589
0.0141871
0.0151677
0.0162046
0.0173021
0.018465
0.0196987
0.0211213
0.0227161
0.0243452
0.026012
0.02772
0.0294726
0.0312732
0.0331249
0.0350303
0.0369914
0.0390096
0.0410853
0.0432181
0.0454065
0.0476482
0.0499397
0.0522766
0.0546533
0.0570624
0.0594935
-9.37973e-05
0.000301535
0.000710563
0.0011328
0.00156673
0.00201358
0.00247392
0.00294806
0.00343651
0.0039399
0.00445898
0.00499467
0.0055481
0.00612062
0.00671386
0.00732971
0.00797035
0.00863822
0.00933603
0.0100667
0.0108333
0.011639
0.0124872
0.013381
0.014324
0.0153197
0.0163719
0.0174851
0.0186644
0.0199157
0.0213592
0.0229788
0.024635
0.0263318
0.0280729
0.0298623
0.0317036
0.0336001
0.0355547
0.0375696
0.0396464
0.0417859
0.0439877
0.0462509
0.0485735
0.0509527
0.0533844
0.0558636
0.0583833
0.0609331
-0.000117675
0.000277405
0.000686163
0.00110833
0.00154252
0.00198995
0.00245126
0.00292683
0.00341724
0.00392318
0.00444549
0.00498516
0.00554341
0.00612167
0.00672161
0.00734517
0.00799455
0.00867218
0.00938072
0.010123
0.0109019
0.0117206
0.012582
0.0134894
0.014446
0.0154554
0.0165215
0.0176489
0.0188432
0.0201106
0.0215736
0.0232166
0.0248987
0.0266243
0.0283976
0.0302227
0.0321036
0.0340438
0.0360465
0.0381142
0.0402486
0.0424509
0.0447212
0.0470589
0.0494627
0.0519302
0.0544581
0.0570418
0.0596749
0.0623473
-0.000143039
0.000250929
0.00065845
0.00107961
0.00151314
0.00196031
0.0024218
0.00289809
0.00338983
0.00389779
0.00442288
0.00496619
0.005529
0.00611279
0.00671928
0.00735043
0.00800842
0.00869563
0.00941463
0.0101681
0.0109588
0.0117896
0.0126634
0.0135831
0.0145521
0.0155738
0.0166523
0.0177925
0.0190003
0.0202826
0.0217637
0.0234287
0.0251355
0.0268886
0.0286928
0.0305523
0.0324715
0.034454
0.0365034
0.0386224
0.0408132
0.0430771
0.0454149
0.0478265
0.0503113
0.0528675
0.0554926
0.0581825
0.0609316
0.0637305
-0.000169826
0.000222225
0.000627612
0.00104687
0.00147892
0.00192503
0.00238598
0.00286232
0.0033548
0.00386427
0.00439173
0.00493833
0.00550541
0.0060945
0.00670734
0.00734588
0.00801225
0.00870874
0.00943779
0.0102019
0.0110037
0.0118457
0.0127307
0.0136616
0.0146415
0.015674
0.0167635
0.017915
0.019135
0.0204309
0.0219288
0.0236145
0.0253445
0.0271238
0.0289573
0.0308497
0.0328054
0.0348286
0.0369229
0.0390915
0.0413368
0.0436608
0.0460648
0.0485494
0.0511147
0.0537596
0.0564824
0.0592799
0.0621473
0.0650761
-0.000197995
0.000191383
0.000593834
0.0010104
0.00144021
0.00188455
0.00234428
0.00282007
0.00331274
0.00382325
0.00435266
0.00490219
0.00547324
0.00606735
0.00668628
0.00733191
0.00800631
0.00871164
0.00945017
0.0102242
0.0110361
0.0118883
0.0127833
0.013724
0.0147133
0.0157552
0.0168541
0.0180157
0.0192466
0.0205549
0.0220682
0.0237731
0.0255248
0.0273287
0.0291899
0.0311133
0.0331037
0.0351654
0.0373024
0.0395183
0.0418161
0.0441983
0.0466668
0.0492231
0.0518678
0.054601
0.0574216
0.0603277
0.0633154
0.0663776
-0.000227533
0.000158472
0.000557304
0.000970503
0.0013974
0.00183933
0.00229726
0.00277195
0.00326431
0.00377539
0.00430634
0.00485844
0.00543311
0.00603191
0.00665656
0.00730889
0.00799084
0.00870442
0.00945171
0.0102348
0.0110558
0.0119169