/*--------------------------------*- C++ -*----------------------------------*\
  =========                 |
  \\      /  F ield         | OpenFOAM: The Open Source CFD Toolbox
   \\    /   O peration     | Website:  https://openfoam.org
    \\  /    A nd           | Version:  9
     \\/     M anipulation  |
\*---------------------------------------------------------------------------*/
FoamFile
{
    format      ascii;
    class       surfaceScalarField;
    location    "0.02";
    object      phi;
}
// * * * * * * * * * * * * * * * * * * * * * * * * * * * * * * * * * * * * * //

dimensions      [0 3 -1 0 0 0 0];

internalField   nonuniform List<scalar> 
9850
(
9.06803e-07
1.1233e-06
9.06803e-07
1.17734e-06
9.06804e-07
1.23412e-06
9.06807e-07
1.29361e-06
9.06811e-07
1.35589e-06
9.06814e-07
1.42109e-06
9.06817e-07
1.48933e-06
9.0682e-07
1.56075e-06
9.06824e-07
1.63549e-06
9.06827e-07
1.71371e-06
9.06831e-07
1.79554e-06
9.06836e-07
1.88115e-06
9.0684e-07
1.97071e-06
9.06845e-07
2.06436e-06
9.0685e-07
2.1623e-06
9.06856e-07
2.26469e-06
9.06862e-07
2.37173e-06
9.06868e-07
2.4836e-06
9.06875e-07
2.60049e-06
9.06882e-07
2.72262e-06
9.0689e-07
2.85018e-06
9.06898e-07
2.98339e-06
9.06907e-07
3.12245e-06
9.06916e-07
3.2676e-06
9.06926e-07
3.41904e-06
9.06936e-07
3.57701e-06
9.06947e-07
3.74174e-06
9.06959e-07
3.91344e-06
9.06971e-07
4.09234e-06
9.06984e-07
4.27869e-06
9.06999e-07
5.21665e-06
9.07014e-07
5.19511e-06
9.0703e-07
5.17359e-06
9.07045e-07
5.1521e-06
9.0706e-07
5.13065e-06
9.07074e-07
5.10926e-06
9.07088e-07
5.08794e-06
9.07101e-07
5.06675e-06
9.07113e-07
5.04573e-06
9.07124e-07
5.02491e-06
9.07133e-07
5.00437e-06
9.0714e-07
4.98416e-06
9.07146e-07
4.96436e-06
9.07148e-07
4.94504e-06
9.07148e-07
4.92629e-06
9.07144e-07
4.9082e-06
9.07137e-07
4.89088e-06
9.07126e-07
4.87443e-06
9.07111e-07
4.85897e-06
4.84463e-06
9.06711e-07
1.12329e-06
9.06715e-07
1.17734e-06
9.0672e-07
1.23412e-06
9.06728e-07
1.2936e-06
9.06737e-07
1.35588e-06
9.06745e-07
1.42108e-06
9.06753e-07
1.48932e-06
9.06762e-07
1.56074e-06
9.0677e-07
1.63548e-06
9.0678e-07
1.7137e-06
9.0679e-07
1.79553e-06
9.06802e-07
1.88114e-06
9.06814e-07
1.97069e-06
9.06827e-07
2.06435e-06
9.0684e-07
2.16229e-06
9.06855e-07
2.26468e-06
9.06871e-07
2.37171e-06
9.06888e-07
2.48358e-06
9.06906e-07
2.60048e-06
9.06926e-07
2.7226e-06
9.06946e-07
2.85016e-06
9.06968e-07
2.98336e-06
9.06992e-07
3.12243e-06
9.07017e-07
3.26757e-06
9.07043e-07
3.41902e-06
9.07071e-07
3.57698e-06
9.07101e-07
3.74171e-06
9.07133e-07
3.91341e-06
9.07166e-07
4.09231e-06
9.07202e-07
4.27865e-06
9.07243e-07
5.21661e-06
9.07285e-07
5.19506e-06
9.07327e-07
5.17355e-06
9.07368e-07
5.15206e-06
9.07409e-07
5.13061e-06
9.07448e-07
5.10922e-06
9.07486e-07
5.08791e-06
9.07521e-07
5.06672e-06
9.07553e-07
5.04569e-06
9.07582e-07
5.02488e-06
9.07607e-07
5.00435e-06
9.07627e-07
4.98414e-06
9.07641e-07
4.96435e-06
9.07648e-07
4.94503e-06
9.07648e-07
4.92629e-06
9.07639e-07
4.90821e-06
9.07621e-07
4.8909e-06
9.07593e-07
4.87446e-06
9.07553e-07
4.85901e-06
4.84468e-06
9.06578e-07
1.12329e-06
9.06584e-07
1.17733e-06
9.06592e-07
1.23411e-06
9.06603e-07
1.29359e-06
9.06614e-07
1.35587e-06
9.06625e-07
1.42107e-06
9.06636e-07
1.48931e-06
9.06648e-07
1.56073e-06
9.0666e-07
1.63547e-06
9.06674e-07
1.71368e-06
9.06689e-07
1.79552e-06
9.06706e-07
1.88113e-06
9.06724e-07
1.97068e-06
9.06744e-07
2.06433e-06
9.06765e-07
2.16226e-06
9.06787e-07
2.26466e-06
9.06812e-07
2.37169e-06
9.06838e-07
2.48355e-06
9.06866e-07
2.60045e-06
9.06896e-07
2.72257e-06
9.06928e-07
2.85013e-06
9.06963e-07
2.98333e-06
9.06999e-07
3.12239e-06
9.07038e-07
3.26753e-06
9.07079e-07
3.41897e-06
9.07124e-07
3.57694e-06
9.0717e-07
3.74166e-06
9.0722e-07
3.91336e-06
9.07273e-07
4.09226e-06
9.07327e-07
4.2786e-06
9.07394e-07
5.21654e-06
9.0746e-07
5.195e-06
9.07526e-07
5.17348e-06
9.07591e-07
5.152e-06
9.07655e-07
5.13055e-06
9.07716e-07
5.10915e-06
9.07776e-07
5.08785e-06
9.07831e-07
5.06666e-06
9.07882e-07
5.04564e-06
9.07928e-07
5.02484e-06
9.07967e-07
5.00431e-06
9.07999e-07
4.98411e-06
9.08021e-07
4.96432e-06
9.08033e-07
4.94502e-06
9.08034e-07
4.92629e-06
9.08021e-07
4.90822e-06
9.07995e-07
4.89092e-06
9.07952e-07
4.8745e-06
9.07893e-07
4.85906e-06
4.84475e-06
9.06393e-07
1.12328e-06
9.06402e-07
1.17733e-06
9.06413e-07
1.2341e-06
9.06425e-07
1.29358e-06
9.06438e-07
1.35586e-06
9.0645e-07
1.42106e-06
9.06463e-07
1.48929e-06
9.06477e-07
1.56071e-06
9.06493e-07
1.63545e-06
9.0651e-07
1.71366e-06
9.0653e-07
1.7955e-06
9.06551e-07
1.88111e-06
9.06574e-07
1.97065e-06
9.06599e-07
2.06431e-06
9.06627e-07
2.16224e-06
9.06657e-07
2.26463e-06
9.06689e-07
2.37166e-06
9.06723e-07
2.48352e-06
9.06761e-07
2.60041e-06
9.068e-07
2.72253e-06
9.06843e-07
2.85008e-06
9.06889e-07
2.98328e-06
9.06937e-07
3.12234e-06
9.06989e-07
3.26748e-06
9.07045e-07
3.41892e-06
9.07104e-07
3.57688e-06
9.07167e-07
3.7416e-06
9.07233e-07
3.91329e-06
9.07303e-07
4.09219e-06
9.07377e-07
4.27852e-06
9.07467e-07
5.21645e-06
9.07556e-07
5.19491e-06
9.07644e-07
5.17339e-06
9.07732e-07
5.15191e-06
9.07817e-07
5.13046e-06
9.079e-07
5.10907e-06
9.07979e-07
5.08777e-06
9.08054e-07
5.06659e-06
9.08123e-07
5.04557e-06
9.08185e-07
5.02478e-06
9.08238e-07
5.00425e-06
9.08281e-07
4.98407e-06
9.08312e-07
4.96429e-06
9.08329e-07
4.945e-06
9.08332e-07
4.92629e-06
9.08317e-07
4.90824e-06
9.08284e-07
4.89096e-06
9.08231e-07
4.87455e-06
9.08156e-07
4.85914e-06
4.84485e-06
9.0614e-07
1.12328e-06
9.06152e-07
1.17732e-06
9.06166e-07
1.23408e-06
9.06181e-07
1.29356e-06
9.06195e-07
1.35585e-06
9.0621e-07
1.42104e-06
9.06225e-07
1.48928e-06
9.06242e-07
1.5607e-06
9.0626e-07
1.63544e-06
9.06281e-07
1.71364e-06
9.06304e-07
1.79547e-06
9.06329e-07
1.88108e-06
9.06357e-07
1.97062e-06
9.06388e-07
2.06427e-06
9.06421e-07
2.1622e-06
9.06457e-07
2.26459e-06
9.06496e-07
2.37162e-06
9.06539e-07
2.48348e-06
9.06584e-07
2.60036e-06
9.06633e-07
2.72248e-06
9.06686e-07
2.85003e-06
9.06742e-07
2.98323e-06
9.06802e-07
3.12228e-06
9.06866e-07
3.26742e-06
9.06935e-07
3.41885e-06
9.07008e-07
3.57681e-06
9.07085e-07
3.74152e-06
9.07167e-07
3.91321e-06
9.07254e-07
4.0921e-06
9.07345e-07
4.27843e-06
9.07456e-07
5.21634e-06
9.07567e-07
5.1948e-06
9.07676e-07
5.17328e-06
9.07785e-07
5.1518e-06
9.07891e-07
5.13036e-06
9.07993e-07
5.10897e-06
9.08092e-07
5.08767e-06
9.08185e-07
5.06649e-06
9.0827e-07
5.04549e-06
9.08347e-07
5.0247e-06
9.08414e-07
5.00419e-06
9.08468e-07
4.98402e-06
9.08509e-07
4.96425e-06
9.08532e-07
4.94498e-06
9.08538e-07
4.92628e-06
9.08524e-07
4.90825e-06
9.08487e-07
4.89099e-06
9.08426e-07
4.87461e-06
9.0834e-07
4.85923e-06
4.84497e-06
9.05822e-07
1.12327e-06
9.05835e-07
1.1773e-06
9.05851e-07
1.23407e-06
9.05868e-07
1.29354e-06
9.05884e-07
1.35583e-06
9.05901e-07
1.42103e-06
9.05918e-07
1.48926e-06
9.05936e-07
1.56068e-06
9.05957e-07
1.63541e-06
9.05981e-07
1.71362e-06
9.06007e-07
1.79545e-06
9.06036e-07
1.88105e-06
9.06068e-07
1.97059e-06
9.06103e-07
2.06424e-06
9.06142e-07
2.16216e-06
9.06184e-07
2.26455e-06
9.0623e-07
2.37157e-06
9.06279e-07
2.48343e-06
9.06332e-07
2.60031e-06
9.06389e-07
2.72242e-06
9.0645e-07
2.84997e-06
9.06516e-07
2.98316e-06
9.06587e-07
3.12221e-06
9.06662e-07
3.26734e-06
9.06743e-07
3.41877e-06
9.06828e-07
3.57672e-06
9.06919e-07
3.74143e-06
9.07016e-07
3.91311e-06
9.07118e-07
4.092e-06
9.07225e-07
4.27833e-06
9.07355e-07
5.21621e-06
9.07485e-07
5.19467e-06
9.07614e-07
5.17316e-06
9.07742e-07
5.15167e-06
9.07867e-07
5.13023e-06
9.07988e-07
5.10885e-06
9.08104e-07
5.08755e-06
9.08214e-07
5.06638e-06
9.08316e-07
5.04539e-06
9.08407e-07
5.02461e-06
9.08487e-07
5.00411e-06
9.08553e-07
4.98395e-06
9.08603e-07
4.9642e-06
9.08634e-07
4.94495e-06
9.08645e-07
4.92627e-06
9.08633e-07
4.90827e-06
9.08595e-07
4.89103e-06
9.08531e-07
4.87468e-06
9.08438e-07
4.85932e-06
4.84509e-06
9.0544e-07
1.12327e-06
9.05453e-07
1.17729e-06
9.0547e-07
1.23405e-06
9.05487e-07
1.29353e-06
9.05505e-07
1.35581e-06
9.05523e-07
1.42101e-06
9.05541e-07
1.48924e-06
9.05561e-07
1.56066e-06
9.05584e-07
1.63539e-06
9.0561e-07
1.7136e-06
9.05639e-07
1.79542e-06
9.05671e-07
1.88102e-06
9.05707e-07
1.97056e-06
9.05746e-07
2.0642e-06
9.05789e-07
2.16212e-06
9.05836e-07
2.2645e-06
9.05887e-07
2.37152e-06
9.05942e-07
2.48337e-06
9.06002e-07
2.60025e-06
9.06067e-07
2.72236e-06
9.06136e-07
2.8499e-06
9.0621e-07
2.98309e-06
9.0629e-07
3.12213e-06
9.06375e-07
3.26726e-06
9.06466e-07
3.41868e-06
9.06563e-07
3.57663e-06
9.06666e-07
3.74133e-06
9.06776e-07
3.913e-06
9.06892e-07
4.09188e-06
9.07013e-07
4.27821e-06
9.07161e-07
5.21606e-06
9.07309e-07
5.19452e-06
9.07456e-07
5.17301e-06
9.07601e-07
5.15153e-06
9.07743e-07
5.13009e-06
9.07881e-07
5.10871e-06
9.08014e-07
5.08742e-06
9.0814e-07
5.06626e-06
9.08256e-07
5.04527e-06
9.08362e-07
5.0245e-06
9.08455e-07
5.00402e-06
9.08533e-07
4.98387e-06
9.08592e-07
4.96414e-06
9.08632e-07
4.94491e-06
9.0865e-07
4.92625e-06
9.08642e-07
4.90827e-06
9.08608e-07
4.89107e-06
9.08544e-07
4.87474e-06
9.08449e-07
4.85941e-06
4.84522e-06
9.0499e-07
1.12326e-06
9.05002e-07
1.17728e-06
9.05019e-07
1.23403e-06
9.05037e-07
1.29351e-06
9.05055e-07
1.35579e-06
9.05073e-07
1.42099e-06
9.05093e-07
1.48922e-06
9.05115e-07
1.56064e-06
9.05139e-07
1.63537e-06
9.05167e-07
1.71357e-06
9.05198e-07
1.79539e-06
9.05233e-07
1.88098e-06
9.05271e-07
1.97052e-06
9.05314e-07
2.06416e-06
9.05361e-07
2.16207e-06
9.05412e-07
2.26445e-06
9.05468e-07
2.37146e-06
9.05529e-07
2.48331e-06
9.05595e-07
2.60019e-06
9.05665e-07
2.72229e-06
9.05742e-07
2.84982e-06
9.05824e-07
2.983e-06
9.05911e-07
3.12204e-06
9.06005e-07
3.26716e-06
9.06106e-07
3.41858e-06
9.06213e-07
3.57652e-06
9.06327e-07
3.74121e-06
9.06448e-07
3.91288e-06
9.06576e-07
4.09176e-06
9.0671e-07
4.27807e-06
9.06875e-07
5.2159e-06
9.07038e-07
5.19436e-06
9.07201e-07
5.17285e-06
9.07362e-07
5.15137e-06
9.0752e-07
5.12993e-06
9.07674e-07
5.10855e-06
9.07822e-07
5.08727e-06
9.07963e-07
5.06612e-06
9.08094e-07
5.04514e-06
9.08213e-07
5.02438e-06
9.08319e-07
5.00391e-06
9.08408e-07
4.98378e-06
9.08479e-07
4.96407e-06
9.08529e-07
4.94486e-06
9.08556e-07
4.92623e-06
9.08556e-07
4.90827e-06
9.08527e-07
4.89109e-06
9.08468e-07
4.8748e-06
9.08377e-07
4.85951e-06
4.84534e-06
9.04465e-07
1.12325e-06
9.04477e-07
1.17726e-06
9.04493e-07
1.23402e-06
9.04511e-07
1.29349e-06
9.0453e-07
1.35577e-06
9.0455e-07
1.42097e-06
9.04571e-07
1.4892e-06
9.04594e-07
1.56061e-06
9.0462e-07
1.63534e-06
9.0465e-07
1.71354e-06
9.04683e-07
1.79535e-06
9.0472e-07
1.88095e-06
9.04761e-07
1.97048e-06
9.04807e-07
2.06411e-06
9.04857e-07
2.16202e-06
9.04912e-07
2.26439e-06
9.04972e-07
2.3714e-06
9.05038e-07
2.48325e-06
9.05108e-07
2.60012e-06
9.05185e-07
2.72221e-06
9.05267e-07
2.84974e-06
9.05356e-07
2.98292e-06
9.05451e-07
3.12195e-06
9.05553e-07
3.26706e-06
9.05661e-07
3.41847e-06
9.05777e-07
3.5764e-06
9.05901e-07
3.74109e-06
9.06032e-07
3.91275e-06
9.06171e-07
4.09162e-06
9.06317e-07
4.27792e-06
9.06495e-07
5.21572e-06
9.06673e-07
5.19418e-06
9.0685e-07
5.17267e-06
9.07026e-07
5.15119e-06
9.07199e-07
5.12976e-06
9.07367e-07
5.10839e-06
9.07529e-07
5.08711e-06
9.07684e-07
5.06596e-06
9.07828e-07
5.04499e-06
9.07961e-07
5.02425e-06
9.0808e-07
5.00379e-06
9.08182e-07
4.98368e-06
9.08265e-07
4.96399e-06
9.08326e-07
4.9448e-06
9.08364e-07
4.92619e-06
9.08374e-07
4.90826e-06
9.08355e-07
4.89111e-06
9.08306e-07
4.87485e-06
9.08223e-07
4.85959e-06
4.84546e-06
9.03862e-07
1.12325e-06
9.03874e-07
1.17725e-06
9.0389e-07
1.234e-06
9.03908e-07
1.29347e-06
9.03928e-07
1.35575e-06
9.03949e-07
1.42095e-06
9.03972e-07
1.48918e-06
9.03997e-07
1.56059e-06
9.04024e-07
1.63531e-06
9.04056e-07
1.71351e-06
9.04091e-07
1.79532e-06
9.0413e-07
1.88091e-06
9.04174e-07
1.97043e-06
9.04222e-07
2.06406e-06
9.04275e-07
2.16197e-06
9.04334e-07
2.26434e-06
9.04397e-07
2.37134e-06
9.04467e-07
2.48318e-06
9.04542e-07
2.60004e-06
9.04623e-07
2.72213e-06
9.04711e-07
2.84965e-06
9.04805e-07
2.98282e-06
9.04906e-07
3.12185e-06
9.05015e-07
3.26695e-06
9.05131e-07
3.41835e-06
9.05255e-07
3.57628e-06
9.05387e-07
3.74096e-06
9.05527e-07
3.91261e-06
9.05675e-07
4.09147e-06
9.05831e-07
4.27777e-06
9.06022e-07
5.21553e-06
9.06213e-07
5.19399e-06
9.06403e-07
5.17248e-06
9.06591e-07
5.151e-06
9.06777e-07
5.12957e-06
9.06958e-07
5.10821e-06
9.07134e-07
5.08693e-06
9.07302e-07
5.0658e-06
9.0746e-07
5.04484e-06
9.07606e-07
5.0241e-06
9.07738e-07
5.00366e-06
9.07853e-07
4.98357e-06
9.07949e-07
4.96389e-06
9.08024e-07
4.94472e-06
9.08074e-07
4.92614e-06
9.08098e-07
4.90824e-06
9.08093e-07
4.89112e-06
9.08057e-07
4.87488e-06
9.07988e-07
4.85966e-06
4.84556e-06
9.03181e-07
1.12324e-06
9.03193e-07
1.17724e-06
9.03209e-07
1.23399e-06
9.03227e-07
1.29345e-06
9.03248e-07
1.35573e-06
9.0327e-07
1.42093e-06
9.03294e-07
1.48916e-06
9.0332e-07
1.56056e-06
9.03349e-07
1.63528e-06
9.03382e-07
1.71347e-06
9.03419e-07
1.79528e-06
9.0346e-07
1.88087e-06
9.03506e-07
1.97039e-06
9.03557e-07
2.06401e-06
9.03613e-07
2.16192e-06
9.03674e-07
2.26427e-06
9.03741e-07
2.37127e-06
9.03814e-07
2.4831e-06
9.03893e-07
2.59996e-06
9.03979e-07
2.72204e-06
9.04071e-07
2.84956e-06
9.0417e-07
2.98272e-06
9.04277e-07
3.12174e-06
9.04391e-07
3.26684e-06
9.04513e-07
3.41823e-06
9.04644e-07
3.57615e-06
9.04783e-07
3.74082e-06
9.0493e-07
3.91246e-06
9.05086e-07
4.09131e-06
9.05251e-07
4.2776e-06
9.05453e-07
5.21533e-06
9.05655e-07
5.19379e-06
9.05857e-07
5.17228e-06
9.06057e-07
5.1508e-06
9.06255e-07
5.12937e-06
9.06448e-07
5.10801e-06
9.06636e-07
5.08675e-06
9.06816e-07
5.06562e-06
9.06987e-07
5.04467e-06
9.07146e-07
5.02395e-06
9.07292e-07
5.00351e-06
9.07421e-07
4.98344e-06
9.07532e-07
4.96378e-06
9.07621e-07
4.94463e-06
9.07687e-07
4.92607e-06
9.07727e-07
4.9082e-06
9.07739e-07
4.89111e-06
9.07721e-07
4.8749e-06
9.07672e-07
4.85971e-06
4.84564e-06
9.02422e-07
1.12324e-06
9.02433e-07
1.17723e-06
9.02448e-07
1.23397e-06
9.02466e-07
1.29344e-06
9.02487e-07
1.35571e-06
9.0251e-07
1.4209e-06
9.02535e-07
1.48913e-06
9.02562e-07
1.56053e-06
9.02593e-07
1.63525e-06
9.02628e-07
1.71344e-06
9.02666e-07
1.79524e-06
9.0271e-07
1.88082e-06
9.02757e-07
1.97034e-06
9.0281e-07
2.06396e-06
9.02869e-07
2.16186e-06
9.02932e-07
2.26421e-06
9.03002e-07
2.3712e-06
9.03078e-07
2.48303e-06
9.0316e-07
2.59988e-06
9.03249e-07
2.72196e-06
9.03345e-07
2.84947e-06
9.03449e-07
2.98262e-06
9.0356e-07
3.12163e-06
9.03679e-07
3.26672e-06
9.03807e-07
3.4181e-06
9.03943e-07
3.57601e-06
9.04088e-07
3.74067e-06
9.04242e-07
3.91231e-06
9.04405e-07
4.09115e-06
9.04577e-07
4.27743e-06
9.04789e-07
5.21512e-06
9.05001e-07
5.19357e-06
9.05212e-07
5.17207e-06
9.05423e-07
5.15059e-06
9.05631e-07
5.12917e-06
9.05835e-07
5.10781e-06
9.06034e-07
5.08655e-06
9.06227e-07
5.06542e-06
9.0641e-07
5.04448e-06
9.06583e-07
5.02377e-06
9.06742e-07
5.00335e-06
9.06887e-07
4.98329e-06
9.07013e-07
4.96366e-06
9.0712e-07
4.94453e-06
9.07204e-07
4.92599e-06
9.07263e-07
4.90814e-06
9.07296e-07
4.89107e-06
9.07301e-07
4.8749e-06
9.07276e-07
4.85973e-06
4.8457e-06
9.01582e-07
1.12323e-06
9.01592e-07
1.17722e-06
9.01607e-07
1.23396e-06
9.01624e-07
1.29342e-06
9.01645e-07
1.35569e-06
9.01668e-07
1.42088e-06
9.01694e-07
1.48911e-06
9.01723e-07
1.56051e-06
9.01755e-07
1.63522e-06
9.01791e-07
1.7134e-06
9.01831e-07
1.7952e-06
9.01876e-07
1.88078e-06
9.01926e-07
1.97029e-06
9.0198e-07
2.06391e-06
9.02041e-07
2.1618e-06
9.02107e-07
2.26414e-06
9.02179e-07
2.37113e-06
9.02257e-07
2.48295e-06
9.02342e-07
2.59979e-06
9.02434e-07
2.72186e-06
9.02533e-07
2.84937e-06
9.0264e-07
2.98251e-06
9.02755e-07
3.12152e-06
9.02878e-07
3.26659e-06
9.0301e-07
3.41797e-06
9.03151e-07
3.57587e-06
9.03301e-07
3.74052e-06
9.0346e-07
3.91215e-06
9.03629e-07
4.09098e-06
9.03808e-07
4.27725e-06
9.04027e-07
5.2149e-06
9.04247e-07
5.19335e-06
9.04468e-07
5.17185e-06
9.04687e-07
5.15037e-06
9.04905e-07
5.12895e-06
9.0512e-07
5.10759e-06
9.0533e-07
5.08634e-06
9.05534e-07
5.06522e-06
9.05729e-07
5.04429e-06
9.05916e-07
5.02359e-06
9.0609e-07
5.00318e-06
9.0625e-07
4.98313e-06
9.06393e-07
4.96351e-06
9.06519e-07
4.9444e-06
9.06623e-07
4.92588e-06
9.06706e-07
4.90806e-06
9.06763e-07
4.89101e-06
9.06795e-07
4.87487e-06
9.068e-07
4.85973e-06
4.84572e-06
9.00659e-07
1.12323e-06
9.00669e-07
1.17721e-06
9.00683e-07
1.23394e-06
9.007e-07
1.2934e-06
9.00721e-07
1.35567e-06
9.00744e-07
1.42086e-06
9.00771e-07
1.48908e-06
9.008e-07
1.56048e-06
9.00834e-07
1.63519e-06
9.00871e-07
1.71337e-06
9.00913e-07
1.79516e-06
9.00959e-07
1.88073e-06
9.0101e-07
1.97024e-06
9.01066e-07
2.06385e-06
9.01128e-07
2.16174e-06
9.01196e-07
2.26408e-06
9.0127e-07
2.37106e-06
9.0135e-07
2.48287e-06
9.01438e-07
2.59971e-06
9.01532e-07
2.72177e-06
9.01634e-07
2.84926e-06
9.01744e-07
2.9824e-06
9.01861e-07
3.1214e-06
9.01988e-07
3.26647e-06
9.02123e-07
3.41784e-06
9.02267e-07
3.57573e-06
9.02421e-07
3.74037e-06
9.02585e-07
3.91199e-06
9.02759e-07
4.09081e-06
9.02943e-07
4.27707e-06
9.03169e-07
5.21467e-06
9.03396e-07
5.19313e-06
9.03624e-07
5.17162e-06
9.03851e-07
5.15015e-06
9.04077e-07
5.12872e-06
9.04301e-07
5.10737e-06
9.04522e-07
5.08612e-06
9.04737e-07
5.065e-06
9.04945e-07
5.04408e-06
9.05145e-07
5.02339e-06
9.05334e-07
5.00299e-06
9.05511e-07
4.98295e-06
9.05673e-07
4.96335e-06
9.0582e-07
4.94425e-06
9.05948e-07
4.92576e-06
9.06055e-07
4.90795e-06
9.06142e-07
4.89093e-06
9.06205e-07
4.8748e-06
9.06245e-07
4.85969e-06
4.84571e-06
8.99652e-07
1.12322e-06
8.99662e-07
1.1772e-06
8.99675e-07
1.23393e-06
8.99692e-07
1.29338e-06
8.99713e-07
1.35565e-06
8.99736e-07
1.42083e-06
8.99763e-07
1.48905e-06
8.99794e-07
1.56044e-06
8.99828e-07
1.63515e-06
8.99867e-07
1.71333e-06
8.99909e-07
1.79512e-06
8.99957e-07
1.88069e-06
9.00009e-07
1.97019e-06
9.00067e-07
2.06379e-06
9.0013e-07
2.16167e-06
9.00199e-07
2.26401e-06
9.00275e-07
2.37098e-06
9.00357e-07
2.48279e-06
9.00446e-07
2.59962e-06
9.00542e-07
2.72167e-06
9.00646e-07
2.84916e-06
9.00758e-07
2.98229e-06
9.00878e-07
3.12128e-06
9.01007e-07
3.26634e-06
9.01145e-07
3.4177e-06
9.01292e-07
3.57558e-06
9.01449e-07
3.74021e-06
9.01616e-07
3.91182e-06
9.01793e-07
4.09063e-06
9.01981e-07
4.27688e-06
9.02213e-07
5.21444e-06
9.02446e-07
5.19289e-06
9.0268e-07
5.17138e-06
9.02914e-07
5.14991e-06
9.03148e-07
5.12849e-06
9.0338e-07
5.10714e-06
9.0361e-07
5.08589e-06
9.03836e-07
5.06478e-06
9.04057e-07
5.04386e-06
9.04271e-07
5.02317e-06
9.04476e-07
5.00279e-06
9.0467e-07
4.98276e-06
9.04853e-07
4.96317e-06
9.05022e-07
4.94409e-06
9.05176e-07
4.9256e-06
9.05313e-07
4.90781e-06
9.05431e-07
4.89081e-06
9.05531e-07
4.8747e-06
9.05611e-07
4.85961e-06
4.84565e-06
8.98559e-07
1.12322e-06
8.98569e-07
1.17719e-06
8.98582e-07
1.23392e-06
8.98599e-07
1.29337e-06
8.9862e-07
1.35563e-06
8.98644e-07
1.42081e-06
8.98672e-07
1.48902e-06
8.98703e-07
1.56041e-06
8.98738e-07
1.63512e-06
8.98777e-07
1.71329e-06
8.98821e-07
1.79508e-06
8.98869e-07
1.88064e-06
8.98923e-07
1.97013e-06
8.98981e-07
2.06373e-06
8.99046e-07
2.16161e-06
8.99116e-07
2.26394e-06
8.99193e-07
2.37091e-06
8.99276e-07
2.4827e-06
8.99367e-07
2.59953e-06
8.99464e-07
2.72158e-06
8.9957e-07
2.84906e-06
8.99683e-07
2.98218e-06
8.99805e-07
3.12116e-06
8.99935e-07
3.26621e-06
9.00075e-07
3.41756e-06
9.00224e-07
3.57543e-06
9.00383e-07
3.74005e-06
9.00553e-07
3.91165e-06
9.00733e-07
4.09045e-06
9.00923e-07
4.27669e-06
9.01159e-07
5.2142e-06
9.01396e-07
5.19266e-06
9.01635e-07
5.17114e-06
9.01875e-07
5.14967e-06
9.02116e-07
5.12825e-06
9.02356e-07
5.1069e-06
9.02595e-07
5.08565e-06
9.02832e-07
5.06454e-06
9.03065e-07
5.04362e-06
9.03293e-07
5.02295e-06
9.03514e-07
5.00256e-06
9.03728e-07
4.98255e-06
9.03932e-07
4.96296e-06
9.04126e-07
4.94389e-06
9.04308e-07
4.92542e-06
9.04477e-07
4.90764e-06
9.04632e-07
4.89065e-06
9.04772e-07
4.87456e-06
9.04897e-07
4.85948e-06
4.84553e-06
8.9738e-07
1.12322e-06
8.97389e-07
1.17718e-06
8.97403e-07
1.2339e-06
8.9742e-07
1.29335e-06
8.97441e-07
1.35561e-06
8.97466e-07
1.42078e-06
8.97494e-07
1.489e-06
8.97526e-07
1.56038e-06
8.97562e-07
1.63508e-06
8.97602e-07
1.71325e-06
8.97646e-07
1.79503e-06
8.97696e-07
1.88059e-06
8.9775e-07
1.97008e-06
8.97809e-07
2.06367e-06
8.97874e-07
2.16154e-06
8.97946e-07
2.26387e-06
8.98023e-07
2.37083e-06
8.98107e-07
2.48262e-06
8.98199e-07
2.59944e-06
8.98297e-07
2.72148e-06
8.98404e-07
2.84895e-06
8.98518e-07
2.98206e-06
8.98641e-07
3.12103e-06
8.98772e-07
3.26608e-06
8.98913e-07
3.41742e-06
8.99063e-07
3.57528e-06
8.99224e-07
3.73989e-06
8.99394e-07
3.91148e-06
8.99576e-07
4.09027e-06
8.99769e-07
4.2765e-06
9.00007e-07
5.21397e-06
9.00247e-07
5.19242e-06
9.0049e-07
5.1709e-06
9.00735e-07
5.14943e-06
9.00982e-07
5.128e-06
9.01229e-07
5.10665e-06
9.01476e-07
5.0854e-06
9.01723e-07
5.0643e-06
9.01968e-07
5.04338e-06
9.0221e-07
5.0227e-06
9.02449e-07
5.00233e-06
9.02682e-07
4.98231e-06
9.0291e-07
4.96273e-06
9.03131e-07
4.94367e-06
9.03343e-07
4.92521e-06
9.03547e-07
4.90744e-06
9.03741e-07
4.89046e-06
9.03926e-07
4.87438e-06
9.04101e-07
4.85931e-06
4.84537e-06
8.96113e-07
1.12321e-06
8.96122e-07
1.17717e-06
8.96136e-07
1.23389e-06
8.96154e-07
1.29333e-06
8.96176e-07
1.35559e-06
8.96201e-07
1.42076e-06
8.9623e-07
1.48897e-06
8.96263e-07
1.56035e-06
8.96299e-07
1.63505e-06
8.9634e-07
1.71321e-06
8.96385e-07
1.79499e-06
8.96435e-07
1.88054e-06
8.96489e-07
1.97002e-06
8.96549e-07
2.06361e-06
8.96615e-07
2.16148e-06
8.96687e-07
2.26379e-06
8.96765e-07
2.37075e-06
8.9685e-07
2.48254e-06
8.96942e-07
2.59934e-06
8.97041e-07
2.72138e-06
8.97147e-07
2.84884e-06
8.97262e-07
2.98195e-06
8.97385e-07
3.12091e-06
8.97517e-07
3.26595e-06
8.97658e-07
3.41728e-06
8.97808e-07
3.57513e-06
8.97969e-07
3.73973e-06
8.9814e-07
3.91131e-06
8.98322e-07
4.09009e-06
8.98516e-07
4.2763e-06
8.98755e-07
5.21373e-06
8.98998e-07
5.19217e-06
8.99243e-07
5.17066e-06
8.99492e-07
5.14918e-06
8.99743e-07
5.12775e-06
8.99996e-07
5.1064e-06
9.00251e-07
5.08515e-06
9.00508e-07
5.06404e-06
9.00765e-07
5.04312e-06
9.01021e-07
5.02245e-06
9.01277e-07
5.00207e-06
9.01532e-07
4.98206e-06
9.01784e-07
4.96248e-06
9.02033e-07
4.94342e-06
9.02279e-07
4.92496e-06
9.0252e-07
4.9072e-06
9.02758e-07
4.89022e-06
9.02991e-07
4.87414e-06
9.03222e-07
4.85908e-06
4.84514e-06
8.94757e-07
1.12321e-06
8.94767e-07
1.17716e-06
8.94781e-07
1.23387e-06
8.948e-07
1.29331e-06
8.94822e-07
1.35557e-06
8.94848e-07
1.42073e-06
8.94877e-07
1.48894e-06
8.94911e-07
1.56032e-06
8.94948e-07
1.63501e-06
8.94989e-07
1.71317e-06
8.95035e-07
1.79494e-06
8.95085e-07
1.88049e-06
8.9514e-07
1.96997e-06
8.95201e-07
2.06355e-06
8.95267e-07
2.16141e-06
8.95339e-07
2.26372e-06
8.95417e-07
2.37067e-06
8.95502e-07
2.48245e-06
8.95594e-07
2.59925e-06
8.95693e-07
2.72128e-06
8.95799e-07
2.84874e-06
8.95914e-07
2.98183e-06
8.96037e-07
3.12079e-06
8.96168e-07
3.26581e-06
8.96308e-07
3.41714e-06
8.96458e-07
3.57498e-06
8.96618e-07
3.73957e-06
8.96789e-07
3.91114e-06
8.9697e-07
4.08991e-06
8.97163e-07
4.27611e-06
8.97403e-07
5.21349e-06
8.97646e-07
5.19193e-06
8.97893e-07
5.17041e-06
8.98143e-07
5.14893e-06
8.98398e-07
5.1275e-06
8.98657e-07
5.10614e-06
8.98919e-07
5.08488e-06
8.99184e-07
5.06377e-06
8.99453e-07
5.04285e-06
8.99724e-07
5.02217e-06
8.99998e-07
5.0018e-06
9.00274e-07
4.98178e-06
9.00552e-07
4.9622e-06
9.00831e-07
4.94314e-06
9.01112e-07
4.92468e-06
9.01395e-07
4.90691e-06
9.01679e-07
4.88994e-06
9.01965e-07
4.87386e-06
9.02255e-07
4.85879e-06
4.84485e-06
8.93312e-07
1.1232e-06
8.93323e-07
1.17715e-06
8.93337e-07
1.23386e-06
8.93356e-07
1.29329e-06
8.93379e-07
1.35554e-06
8.93406e-07
1.42071e-06
8.93436e-07
1.48891e-06
8.9347e-07
1.56028e-06
8.93507e-07
1.63497e-06
8.93549e-07
1.71313e-06
8.93595e-07
1.7949e-06
8.93646e-07
1.88044e-06
8.93701e-07
1.96991e-06
8.93762e-07
2.06349e-06
8.93828e-07
2.16134e-06
8.939e-07
2.26365e-06
8.93979e-07
2.37059e-06
8.94063e-07
2.48237e-06
8.94155e-07
2.59916e-06
8.94253e-07
2.72118e-06
8.94359e-07
2.84863e-06
8.94472e-07
2.98172e-06
8.94594e-07
3.12067e-06
8.94724e-07
3.26568e-06
8.94863e-07
3.417e-06
8.95012e-07
3.57483e-06
8.9517e-07
3.73941e-06
8.95339e-07
3.91097e-06
8.95519e-07
4.08973e-06
8.9571e-07
4.27592e-06
8.95948e-07
5.21325e-06
8.9619e-07
5.19169e-06
8.96437e-07
5.17016e-06
8.96688e-07
5.14868e-06
8.96946e-07
5.12724e-06
8.97208e-07
5.10587e-06
8.97476e-07
5.08462e-06
8.9775e-07
5.0635e-06
8.9803e-07
5.04257e-06
8.98316e-07
5.02189e-06
8.98608e-07
5.0015e-06
8.98907e-07
4.98148e-06
8.99211e-07
4.9619e-06
8.99523e-07
4.94283e-06
8.99841e-07
4.92436e-06
9.00167e-07
4.90659e-06
9.00501e-07
4.8896e-06
9.00844e-07
4.87351e-06
9.01199e-07
4.85843e-06
4.84448e-06
8.91778e-07
1.1232e-06
8.91789e-07
1.17714e-06
8.91804e-07
1.23384e-06
8.91823e-07
1.29327e-06
8.91846e-07
1.35552e-06
8.91873e-07
1.42068e-06
8.91904e-07
1.48888e-06
8.91938e-07
1.56025e-06
8.91976e-07
1.63493e-06
8.92018e-07
1.71308e-06
8.92065e-07
1.79485e-06
8.92116e-07
1.88039e-06
8.92171e-07
1.96986e-06
8.92232e-07
2.06343e-06
8.92298e-07
2.16128e-06
8.9237e-07
2.26358e-06
8.92448e-07
2.37052e-06
8.92532e-07
2.48228e-06
8.92622e-07
2.59907e-06
8.92719e-07
2.72108e-06
8.92824e-07
2.84853e-06
8.92936e-07
2.98161e-06
8.93056e-07
3.12055e-06
8.93184e-07
3.26556e-06
8.93321e-07
3.41686e-06
8.93467e-07
3.57469e-06
8.93623e-07
3.73926e-06
8.93789e-07
3.9108e-06
8.93966e-07
4.08955e-06
8.94154e-07
4.27573e-06
8.94389e-07
5.21301e-06
8.94628e-07
5.19145e-06
8.94874e-07
5.16992e-06
8.95125e-07
5.14842e-06
8.95383e-07
5.12698e-06
8.95649e-07
5.10561e-06
8.95922e-07
5.08434e-06
8.96204e-07
5.06322e-06
8.96495e-07
5.04228e-06
8.96795e-07
5.02159e-06
8.97106e-07
5.00119e-06
8.97427e-07
4.98116e-06
8.97759e-07
4.96157e-06
8.98104e-07
4.94249e-06
8.98462e-07
4.92401e-06
8.98833e-07
4.90622e-06
8.99221e-07
4.88922e-06
8.99625e-07
4.87311e-06
9.00049e-07
4.85801e-06
4.84403e-06
8.90154e-07
1.12319e-06
8.90165e-07
1.17713e-06
8.9018e-07
1.23383e-06
8.90199e-07
1.29326e-06
8.90223e-07
1.3555e-06
8.9025e-07
1.42065e-06
8.90281e-07
1.48885e-06
8.90315e-07
1.56021e-06
8.90354e-07
1.63489e-06
8.90396e-07
1.71304e-06
8.90442e-07
1.7948e-06
8.90493e-07
1.88034e-06
8.90549e-07
1.9698e-06
8.90609e-07
2.06337e-06
8.90675e-07
2.16121e-06
8.90746e-07
2.26351e-06
8.90823e-07
2.37044e-06
8.90906e-07
2.4822e-06
8.90995e-07
2.59898e-06
8.91091e-07
2.72099e-06
8.91194e-07
2.84842e-06
8.91304e-07
2.9815e-06
8.91421e-07
3.12043e-06
8.91547e-07
3.26543e-06
8.9168e-07
3.41673e-06
8.91823e-07
3.57454e-06
8.91975e-07
3.7391e-06
8.92137e-07
3.91064e-06
8.9231e-07
4.08938e-06
8.92494e-07
4.27555e-06
8.92724e-07
5.21278e-06
8.9296e-07
5.19121e-06
8.93202e-07
5.16968e-06
8.93451e-07
5.14817e-06
8.93709e-07
5.12672e-06
8.93976e-07
5.10534e-06
8.94254e-07
5.08406e-06
8.94543e-07
5.06293e-06
8.94844e-07
5.04198e-06
8.95158e-07
5.02127e-06
8.95487e-07
5.00086e-06
8.95832e-07
4.98082e-06
8.96193e-07
4.96121e-06
8.96572e-07
4.94211e-06
8.96971e-07
4.92361e-06
8.97392e-07
4.9058e-06
8.97836e-07
4.88877e-06
8.98305e-07
4.87264e-06
8.98802e-07
4.85751e-06
4.8435e-06
8.88439e-07
1.12319e-06
8.8845e-07
1.17712e-06
8.88465e-07
1.23381e-06
8.88485e-07
1.29324e-06
8.88508e-07
1.35547e-06
8.88535e-07
1.42063e-06
8.88566e-07
1.48881e-06
8.88601e-07
1.56018e-06
8.88639e-07
1.63486e-06
8.88681e-07
1.713e-06
8.88728e-07
1.79476e-06
8.88778e-07
1.88029e-06
8.88833e-07
1.96975e-06
8.88893e-07
2.06331e-06
8.88958e-07
2.16115e-06
8.89028e-07
2.26344e-06
8.89104e-07
2.37036e-06
8.89186e-07
2.48212e-06
8.89273e-07
2.59889e-06
8.89367e-07
2.72089e-06
8.89467e-07
2.84832e-06
8.89574e-07
2.98139e-06
8.89689e-07
3.12031e-06
8.8981e-07
3.26531e-06
8.8994e-07
3.4166e-06
8.90078e-07
3.5744e-06
8.90225e-07
3.73896e-06
8.90382e-07
3.91048e-06
8.9055e-07
4.08921e-06
8.90729e-07
4.27537e-06
8.90952e-07
5.21256e-06
8.91182e-07
5.19098e-06
8.9142e-07
5.16944e-06
8.91666e-07
5.14793e-06
8.91922e-07
5.12647e-06
8.9219e-07
5.10507e-06
8.9247e-07
5.08378e-06
8.92765e-07
5.06263e-06
8.93076e-07
5.04167e-06
8.93404e-07
5.02095e-06
8.93751e-07
5.00052e-06
8.94119e-07
4.98045e-06
8.9451e-07
4.96082e-06
8.94925e-07
4.94169e-06
8.95368e-07
4.92317e-06
8.95839e-07
4.90533e-06
8.96342e-07
4.88827e-06
8.96879e-07
4.8721e-06
8.97454e-07
4.85694e-06
4.84289e-06
8.86634e-07
1.12318e-06
8.86645e-07
1.17711e-06
8.8666e-07
1.2338e-06
8.86679e-07
1.29322e-06
8.86702e-07
1.35545e-06
8.86729e-07
1.4206e-06
8.86759e-07
1.48878e-06
8.86794e-07
1.56014e-06
8.86832e-07
1.63482e-06
8.86874e-07
1.71296e-06
8.8692e-07
1.79471e-06
8.8697e-07
1.88024e-06
8.87024e-07
1.96969e-06
8.87084e-07
2.06325e-06
8.87147e-07
2.16108e-06
8.87216e-07
2.26337e-06
8.8729e-07
2.37029e-06
8.8737e-07
2.48204e-06
8.87455e-07
2.59881e-06
8.87546e-07
2.7208e-06
8.87644e-07
2.84823e-06
8.87747e-07
2.98129e-06
8.87858e-07
3.1202e-06
8.87975e-07
3.26519e-06
8.881e-07
3.41647e-06
8.88232e-07
3.57427e-06
8.88374e-07
3.73882e-06
8.88524e-07
3.91033e-06
8.88685e-07
4.08905e-06
8.88857e-07
4.2752e-06
8.89073e-07
5.21234e-06
8.89296e-07
5.19076e-06
8.89526e-07
5.16921e-06
8.89768e-07
5.14769e-06
8.9002e-07
5.12621e-06
8.90287e-07
5.10481e-06
8.90569e-07
5.0835e-06
8.90869e-07
5.06233e-06
8.91188e-07
5.04135e-06
8.9153e-07
5.0206e-06
8.91895e-07
5.00015e-06
8.92287e-07
4.98006e-06
8.92708e-07
4.96039e-06
8.9316e-07
4.94124e-06
8.93647e-07
4.92268e-06
8.94172e-07
4.9048e-06
8.94737e-07
4.88771e-06
8.95346e-07
4.87149e-06
8.96003e-07
4.85628e-06
4.84218e-06
8.84738e-07
1.12318e-06
8.84748e-07
1.1771e-06
8.84763e-07
1.23378e-06
8.84782e-07
1.2932e-06
8.84805e-07
1.35543e-06
8.84831e-07
1.42057e-06
8.84861e-07
1.48875e-06
8.84895e-07
1.56011e-06
8.84933e-07
1.63478e-06
8.84974e-07
1.71292e-06
8.85019e-07
1.79466e-06
8.85069e-07
1.88019e-06
8.85122e-07
1.96964e-06
8.8518e-07
2.06319e-06
8.85242e-07
2.16102e-06
8.8531e-07
2.2633e-06
8.85382e-07
2.37022e-06
8.85459e-07
2.48196e-06
8.85541e-07
2.59873e-06
8.85629e-07
2.72072e-06
8.85723e-07
2.84813e-06
8.85822e-07
2.98119e-06
8.85928e-07
3.1201e-06
8.8604e-07
3.26508e-06
8.86159e-07
3.41635e-06
8.86285e-07
3.57415e-06
8.8642e-07
3.73868e-06
8.86563e-07
3.91019e-06
8.86716e-07
4.08889e-06
8.86879e-07
4.27503e-06
8.87085e-07
5.21214e-06
8.87299e-07
5.19055e-06
8.87521e-07
5.16898e-06
8.87756e-07
5.14745e-06
8.88004e-07
5.12597e-06
8.88268e-07
5.10454e-06
8.8855e-07
5.08322e-06
8.88854e-07
5.06203e-06
8.89181e-07
5.04102e-06
8.89535e-07
5.02025e-06
8.89918e-07
4.99977e-06
8.90333e-07
4.97964e-06
8.90784e-07
4.95994e-06
8.91275e-07
4.94075e-06
8.91808e-07
4.92215e-06