/*--------------------------------*- C++ -*----------------------------------*\
  =========                 |
  \\      /  F ield         | OpenFOAM: The Open Source CFD Toolbox
   \\    /   O peration     | Website:  https://openfoam.org
    \\  /    A nd           | Version:  9
     \\/     M anipulation  |
\*---------------------------------------------------------------------------*/
FoamFile
{
    format      ascii;
    class       volScalarField;
    location    "0.02";
    object      rAU;
}
// * * * * * * * * * * * * * * * * * * * * * * * * * * * * * * * * * * * * * //

dimensions      [-1 3 1 0 0 0 0];

internalField   nonuniform List<scalar> 
5000
(
1.63617e-05
2.05543e-05
2.09094e-05
2.12467e-05
2.15668e-05
2.18701e-05
2.21572e-05
2.24287e-05
2.26851e-05
2.29272e-05
2.31556e-05
2.3371e-05
2.35742e-05
2.37658e-05
2.39465e-05
2.41171e-05
2.42781e-05
2.44303e-05
2.45742e-05
2.47105e-05
2.48397e-05
2.49623e-05
2.5079e-05
2.51902e-05
2.52964e-05
2.53981e-05
2.54957e-05
2.55897e-05
2.56804e-05
2.57809e-05
2.60094e-05
2.6053e-05
2.60854e-05
2.61179e-05
2.61504e-05
2.61828e-05
2.62153e-05
2.62476e-05
2.62797e-05
2.63116e-05
2.63432e-05
2.63743e-05
2.64048e-05
2.64347e-05
2.64637e-05
2.64918e-05
2.65187e-05
2.65444e-05
2.65685e-05
2.65909e-05
1.87413e-05
2.44514e-05
2.49522e-05
2.54305e-05
2.58864e-05
2.63201e-05
2.67321e-05
2.71228e-05
2.74928e-05
2.78428e-05
2.81734e-05
2.84854e-05
2.87796e-05
2.9057e-05
2.93182e-05
2.95642e-05
2.97957e-05
3.00136e-05
3.02187e-05
3.04118e-05
3.05937e-05
3.0765e-05
3.09265e-05
3.10788e-05
3.12227e-05
3.13587e-05
3.14874e-05
3.16093e-05
3.17251e-05
3.18543e-05
3.21758e-05
3.22115e-05
3.223e-05
3.22486e-05
3.22671e-05
3.22856e-05
3.2304e-05
3.23224e-05
3.23406e-05
3.23587e-05
3.23766e-05
3.23942e-05
3.24114e-05
3.24283e-05
3.24446e-05
3.24604e-05
3.24756e-05
3.249e-05
3.25036e-05
3.25162e-05
1.87416e-05
2.44517e-05
2.49525e-05
2.54308e-05
2.58867e-05
2.63204e-05
2.67324e-05
2.71231e-05
2.74931e-05
2.7843e-05
2.81736e-05
2.84856e-05
2.87798e-05
2.90572e-05
2.93184e-05
2.95643e-05
2.97958e-05
3.00137e-05
3.02188e-05
3.04119e-05
3.05937e-05
3.0765e-05
3.09265e-05
3.10789e-05
3.12227e-05
3.13587e-05
3.14873e-05
3.16093e-05
3.1725e-05
3.18542e-05
3.21757e-05
3.22114e-05
3.22299e-05
3.22484e-05
3.22669e-05
3.22854e-05
3.23038e-05
3.23222e-05
3.23404e-05
3.23584e-05
3.23763e-05
3.23939e-05
3.24111e-05
3.24279e-05
3.24443e-05
3.24601e-05
3.24753e-05
3.24897e-05
3.25032e-05
3.25158e-05
1.8742e-05
2.44521e-05
2.49529e-05
2.54312e-05
2.58871e-05
2.63208e-05
2.67328e-05
2.71235e-05
2.74935e-05
2.78434e-05
2.81739e-05
2.84859e-05
2.87802e-05
2.90575e-05
2.93187e-05
2.95646e-05
2.97961e-05
3.0014e-05
3.02191e-05
3.04121e-05
3.05939e-05
3.07652e-05
3.09267e-05
3.1079e-05
3.12228e-05
3.13587e-05
3.14874e-05
3.16093e-05
3.1725e-05
3.18542e-05
3.21757e-05
3.22114e-05
3.22299e-05
3.22484e-05
3.22669e-05
3.22853e-05
3.23037e-05
3.2322e-05
3.23402e-05
3.23583e-05
3.23761e-05
3.23936e-05
3.24109e-05
3.24277e-05
3.2444e-05
3.24598e-05
3.2475e-05
3.24894e-05
3.25029e-05
3.25155e-05
1.87426e-05
2.44527e-05
2.49535e-05
2.54318e-05
2.58876e-05
2.63214e-05
2.67333e-05
2.7124e-05
2.7494e-05
2.78439e-05
2.81744e-05
2.84864e-05
2.87806e-05
2.90579e-05
2.93191e-05
2.9565e-05
2.97965e-05
3.00143e-05
3.02194e-05
3.04124e-05
3.05942e-05
3.07655e-05
3.09269e-05
3.10792e-05
3.1223e-05
3.13589e-05
3.14876e-05
3.16095e-05
3.17252e-05
3.18543e-05
3.21758e-05
3.22115e-05
3.22299e-05
3.22484e-05
3.22669e-05
3.22853e-05
3.23037e-05
3.2322e-05
3.23402e-05
3.23582e-05
3.2376e-05
3.23935e-05
3.24107e-05
3.24275e-05
3.24439e-05
3.24596e-05
3.24748e-05
3.24891e-05
3.25027e-05
3.25153e-05
1.87433e-05
2.44535e-05
2.49543e-05
2.54325e-05
2.58884e-05
2.63221e-05
2.6734e-05
2.71247e-05
2.74947e-05
2.78445e-05
2.81751e-05
2.8487e-05
2.87812e-05
2.90585e-05
2.93196e-05
2.95655e-05
2.9797e-05
3.00148e-05
3.02199e-05
3.04129e-05
3.05947e-05
3.07659e-05
3.09273e-05
3.10796e-05
3.12234e-05
3.13593e-05
3.14879e-05
3.16097e-05
3.17254e-05
3.18546e-05
3.2176e-05
3.22116e-05
3.22301e-05
3.22486e-05
3.2267e-05
3.22854e-05
3.23038e-05
3.23221e-05
3.23402e-05
3.23582e-05
3.2376e-05
3.23935e-05
3.24107e-05
3.24275e-05
3.24438e-05
3.24595e-05
3.24746e-05
3.2489e-05
3.25025e-05
3.25151e-05
1.87443e-05
2.44544e-05
2.49552e-05
2.54334e-05
2.58893e-05
2.6323e-05
2.67349e-05
2.71255e-05
2.74955e-05
2.78453e-05
2.81759e-05
2.84878e-05
2.8782e-05
2.90592e-05
2.93204e-05
2.95662e-05
2.97976e-05
3.00155e-05
3.02205e-05
3.04135e-05
3.05952e-05
3.07664e-05
3.09278e-05
3.10801e-05
3.12238e-05
3.13597e-05
3.14883e-05
3.16101e-05
3.17258e-05
3.18549e-05
3.21763e-05
3.22119e-05
3.22304e-05
3.22488e-05
3.22672e-05
3.22856e-05
3.2304e-05
3.23222e-05
3.23404e-05
3.23583e-05
3.23761e-05
3.23936e-05
3.24107e-05
3.24275e-05
3.24438e-05
3.24595e-05
3.24746e-05
3.24889e-05
3.25024e-05
3.2515e-05
1.87453e-05
2.44555e-05
2.49563e-05
2.54345e-05
2.58903e-05
2.6324e-05
2.67359e-05
2.71265e-05
2.74965e-05
2.78463e-05
2.81768e-05
2.84887e-05
2.87829e-05
2.90601e-05
2.93212e-05
2.9567e-05
2.97984e-05
3.00162e-05
3.02212e-05
3.04142e-05
3.05959e-05
3.07671e-05
3.09285e-05
3.10807e-05
3.12244e-05
3.13602e-05
3.14888e-05
3.16106e-05
3.17263e-05
3.18554e-05
3.21767e-05
3.22123e-05
3.22307e-05
3.22491e-05
3.22675e-05
3.22859e-05
3.23043e-05
3.23225e-05
3.23406e-05
3.23586e-05
3.23763e-05
3.23938e-05
3.24109e-05
3.24276e-05
3.24439e-05
3.24596e-05
3.24746e-05
3.24889e-05
3.25024e-05
3.25149e-05
1.87466e-05
2.44567e-05
2.49575e-05
2.54357e-05
2.58915e-05
2.63252e-05
2.67371e-05
2.71277e-05
2.74976e-05
2.78474e-05
2.81779e-05
2.84898e-05
2.87839e-05
2.90611e-05
2.93222e-05
2.9568e-05
2.97994e-05
3.00171e-05
3.02221e-05
3.0415e-05
3.05967e-05
3.07679e-05
3.09292e-05
3.10814e-05
3.12251e-05
3.13609e-05
3.14894e-05
3.16112e-05
3.17268e-05
3.18559e-05
3.21772e-05
3.22127e-05
3.22312e-05
3.22496e-05
3.2268e-05
3.22863e-05
3.23047e-05
3.23229e-05
3.2341e-05
3.23589e-05
3.23766e-05
3.2394e-05
3.24111e-05
3.24278e-05
3.24441e-05
3.24597e-05
3.24748e-05
3.2489e-05
3.25025e-05
3.25149e-05
1.8748e-05
2.44581e-05
2.49589e-05
2.54371e-05
2.58929e-05
2.63266e-05
2.67385e-05
2.7129e-05
2.74989e-05
2.78487e-05
2.81792e-05
2.8491e-05
2.87851e-05
2.90623e-05
2.93233e-05
2.95691e-05
2.98004e-05
3.00182e-05
3.02231e-05
3.0416e-05
3.05977e-05
3.07688e-05
3.09301e-05
3.10822e-05
3.12259e-05
3.13617e-05
3.14902e-05
3.1612e-05
3.17275e-05
3.18566e-05
3.21777e-05
3.22133e-05
3.22317e-05
3.22501e-05
3.22685e-05
3.22868e-05
3.23051e-05
3.23233e-05
3.23414e-05
3.23593e-05
3.2377e-05
3.23944e-05
3.24115e-05
3.24282e-05
3.24444e-05
3.246e-05
3.2475e-05
3.24892e-05
3.25026e-05
3.2515e-05
1.87497e-05
2.44597e-05
2.49605e-05
2.54387e-05
2.58945e-05
2.63281e-05
2.674e-05
2.71305e-05
2.75004e-05
2.78502e-05
2.81806e-05
2.84924e-05
2.87865e-05
2.90636e-05
2.93246e-05
2.95704e-05
2.98017e-05
3.00194e-05
3.02242e-05
3.04171e-05
3.05987e-05
3.07698e-05
3.09311e-05
3.10832e-05
3.12268e-05
3.13626e-05
3.14911e-05
3.16128e-05
3.17283e-05
3.18573e-05
3.21784e-05
3.2214e-05
3.22324e-05
3.22507e-05
3.22691e-05
3.22875e-05
3.23057e-05
3.23239e-05
3.2342e-05
3.23599e-05
3.23775e-05
3.23949e-05
3.2412e-05
3.24286e-05
3.24448e-05
3.24604e-05
3.24753e-05
3.24895e-05
3.25028e-05
3.25152e-05
1.87515e-05
2.44615e-05
2.49623e-05
2.54405e-05
2.58963e-05
2.63299e-05
2.67417e-05
2.71322e-05
2.7502e-05
2.78518e-05
2.81822e-05
2.8494e-05
2.8788e-05
2.90651e-05
2.9326e-05
2.95718e-05
2.9803e-05
3.00207e-05
3.02255e-05
3.04184e-05
3.05999e-05
3.0771e-05
3.09322e-05
3.10843e-05
3.12279e-05
3.13636e-05
3.1492e-05
3.16137e-05
3.17292e-05
3.18582e-05
3.21792e-05
3.22147e-05
3.22331e-05
3.22515e-05
3.22698e-05
3.22882e-05
3.23064e-05
3.23246e-05
3.23426e-05
3.23605e-05
3.23781e-05
3.23955e-05
3.24125e-05
3.24291e-05
3.24453e-05
3.24608e-05
3.24757e-05
3.24899e-05
3.25032e-05
3.25155e-05
1.87535e-05
2.44635e-05
2.49643e-05
2.54425e-05
2.58982e-05
2.63318e-05
2.67436e-05
2.71341e-05
2.75039e-05
2.78536e-05
2.81839e-05
2.84957e-05
2.87897e-05
2.90667e-05
2.93276e-05
2.95733e-05
2.98045e-05
3.00221e-05
3.02269e-05
3.04197e-05
3.06013e-05
3.07723e-05
3.09335e-05
3.10855e-05
3.12291e-05
3.13647e-05
3.14931e-05
3.16148e-05
3.17303e-05
3.18592e-05
3.218e-05
3.22155e-05
3.22339e-05
3.22523e-05
3.22707e-05
3.2289e-05
3.23072e-05
3.23254e-05
3.23434e-05
3.23612e-05
3.23789e-05
3.23962e-05
3.24132e-05
3.24298e-05
3.24458e-05
3.24614e-05
3.24762e-05
3.24903e-05
3.25036e-05
3.25159e-05
1.87557e-05
2.44657e-05
2.49665e-05
2.54446e-05
2.59003e-05
2.63339e-05
2.67457e-05
2.71361e-05
2.75059e-05
2.78555e-05
2.81858e-05
2.84976e-05
2.87915e-05
2.90685e-05
2.93294e-05
2.9575e-05
2.98062e-05
3.00237e-05
3.02285e-05
3.04212e-05
3.06027e-05
3.07737e-05
3.09348e-05
3.10868e-05
3.12303e-05
3.1366e-05
3.14943e-05
3.16159e-05
3.17314e-05
3.18603e-05
3.21809e-05
3.22165e-05
3.22348e-05
3.22532e-05
3.22716e-05
3.22899e-05
3.23081e-05
3.23263e-05
3.23443e-05
3.23621e-05
3.23797e-05
3.2397e-05
3.2414e-05
3.24305e-05
3.24466e-05
3.2462e-05
3.24768e-05
3.24909e-05
3.25041e-05
3.25163e-05
1.87581e-05
2.4468e-05
2.49688e-05
2.5447e-05
2.59027e-05
2.63362e-05
2.67479e-05
2.71384e-05
2.75081e-05
2.78577e-05
2.81879e-05
2.84996e-05
2.87935e-05
2.90705e-05
2.93313e-05
2.95769e-05
2.9808e-05
3.00255e-05
3.02302e-05
3.04229e-05
3.06043e-05
3.07752e-05
3.09363e-05
3.10883e-05
3.12317e-05
3.13673e-05
3.14956e-05
3.16172e-05
3.17326e-05
3.18615e-05
3.2182e-05
3.22175e-05
3.22359e-05
3.22542e-05
3.22726e-05
3.22909e-05
3.23091e-05
3.23272e-05
3.23452e-05
3.2363e-05
3.23806e-05
3.23979e-05
3.24148e-05
3.24313e-05
3.24474e-05
3.24628e-05
3.24776e-05
3.24916e-05
3.25047e-05
3.25169e-05
1.87607e-05
2.44706e-05
2.49714e-05
2.54495e-05
2.59052e-05
2.63387e-05
2.67504e-05
2.71408e-05
2.75104e-05
2.786e-05
2.81902e-05
2.85018e-05
2.87957e-05
2.90726e-05
2.93334e-05
2.95789e-05
2.98099e-05
3.00274e-05
3.0232e-05
3.04247e-05
3.06061e-05
3.07769e-05
3.0938e-05
3.10899e-05
3.12333e-05
3.13688e-05
3.14971e-05
3.16186e-05
3.17339e-05
3.18628e-05
3.21831e-05
3.22186e-05
3.2237e-05
3.22553e-05
3.22737e-05
3.2292e-05
3.23102e-05
3.23283e-05
3.23463e-05
3.23641e-05
3.23816e-05
3.23989e-05
3.24158e-05
3.24323e-05
3.24483e-05
3.24637e-05
3.24784e-05
3.24924e-05
3.25055e-05
3.25176e-05
1.87636e-05
2.44734e-05
2.49741e-05
2.54522e-05
2.59079e-05
2.63413e-05
2.6753e-05
2.71434e-05
2.7513e-05
2.78625e-05
2.81927e-05
2.85042e-05
2.8798e-05
2.90749e-05
2.93356e-05
2.9581e-05
2.9812e-05
3.00294e-05
3.0234e-05
3.04266e-05
3.06079e-05
3.07787e-05
3.09397e-05
3.10916e-05
3.12349e-05
3.13704e-05
3.14986e-05
3.16201e-05
3.17354e-05
3.18641e-05
3.21843e-05
3.22198e-05
3.22382e-05
3.22565e-05
3.22749e-05
3.22932e-05
3.23114e-05
3.23295e-05
3.23475e-05
3.23652e-05
3.23828e-05
3.24e-05
3.24169e-05
3.24334e-05
3.24493e-05
3.24647e-05
3.24794e-05
3.24933e-05
3.25063e-05
3.25184e-05
1.87666e-05
2.44763e-05
2.49771e-05
2.54552e-05
2.59108e-05
2.63442e-05
2.67558e-05
2.71461e-05
2.75157e-05
2.78652e-05
2.81953e-05
2.85068e-05
2.88005e-05
2.90773e-05
2.9338e-05
2.95833e-05
2.98143e-05
3.00316e-05
3.02362e-05
3.04287e-05
3.06099e-05
3.07807e-05
3.09416e-05
3.10934e-05
3.12367e-05
3.13721e-05
3.15003e-05
3.16217e-05
3.17369e-05
3.18656e-05
3.21855e-05
3.22211e-05
3.22395e-05
3.22578e-05
3.22762e-05
3.22944e-05
3.23127e-05
3.23308e-05
3.23487e-05
3.23665e-05
3.2384e-05
3.24012e-05
3.24181e-05
3.24345e-05
3.24505e-05
3.24658e-05
3.24804e-05
3.24943e-05
3.25073e-05
3.25193e-05
1.87698e-05
2.44795e-05
2.49802e-05
2.54583e-05
2.59139e-05
2.63473e-05
2.67589e-05
2.71491e-05
2.75186e-05
2.7868e-05
2.81981e-05
2.85095e-05
2.88032e-05
2.90799e-05
2.93405e-05
2.95858e-05
2.98167e-05
3.0034e-05
3.02384e-05
3.04309e-05
3.06121e-05
3.07827e-05
3.09436e-05
3.10953e-05
3.12386e-05
3.13739e-05
3.1502e-05
3.16234e-05
3.17386e-05
3.18672e-05
3.21869e-05
3.22225e-05
3.22408e-05
3.22592e-05
3.22775e-05
3.22958e-05
3.2314e-05
3.23321e-05
3.23501e-05
3.23679e-05
3.23854e-05
3.24026e-05
3.24194e-05
3.24358e-05
3.24517e-05
3.2467e-05
3.24816e-05
3.24954e-05
3.25084e-05
3.25204e-05
1.87733e-05
2.44829e-05
2.49836e-05
2.54617e-05
2.59172e-05
2.63506e-05
2.67621e-05
2.71523e-05
2.75217e-05
2.78711e-05
2.82011e-05
2.85124e-05
2.8806e-05
2.90827e-05
2.93432e-05
2.95884e-05
2.98192e-05
3.00364e-05
3.02408e-05
3.04332e-05
3.06143e-05
3.07849e-05
3.09457e-05
3.10974e-05
3.12406e-05
3.13759e-05
3.15039e-05
3.16252e-05
3.17403e-05
3.18689e-05
3.21884e-05
3.22239e-05
3.22423e-05
3.22607e-05
3.2279e-05
3.22973e-05
3.23155e-05
3.23336e-05
3.23516e-05
3.23693e-05
3.23868e-05
3.2404e-05
3.24209e-05
3.24372e-05
3.24531e-05
3.24684e-05
3.24829e-05
3.24967e-05
3.25096e-05
3.25215e-05
1.8777e-05
2.44865e-05
2.49872e-05
2.54652e-05
2.59207e-05
2.6354e-05
2.67655e-05
2.71557e-05
2.7525e-05
2.78743e-05
2.82042e-05
2.85155e-05
2.88091e-05
2.90856e-05
2.93461e-05
2.95912e-05
2.9822e-05
3.00391e-05
3.02434e-05
3.04357e-05
3.06167e-05
3.07873e-05
3.0948e-05
3.10996e-05
3.12427e-05
3.13779e-05
3.15059e-05
3.16271e-05
3.17422e-05
3.18707e-05
3.21899e-05
3.22255e-05
3.22439e-05
3.22623e-05
3.22806e-05
3.22989e-05
3.23171e-05
3.23352e-05
3.23532e-05
3.23709e-05
3.23884e-05
3.24056e-05
3.24224e-05
3.24388e-05
3.24546e-05
3.24699e-05
3.24844e-05
3.24982e-05
3.2511e-05
3.25229e-05
1.87809e-05
2.44903e-05
2.4991e-05
2.5469e-05
2.59245e-05
2.63577e-05
2.67692e-05
2.71592e-05
2.75285e-05
2.78778e-05
2.82076e-05
2.85188e-05
2.88123e-05
2.90887e-05
2.93491e-05
2.95942e-05
2.98248e-05
3.00419e-05
3.02461e-05
3.04383e-05
3.06193e-05
3.07897e-05
3.09504e-05
3.11019e-05
3.12449e-05
3.13801e-05
3.1508e-05
3.16292e-05
3.17442e-05
3.18727e-05
3.21916e-05
3.22271e-05
3.22455e-05
3.22639e-05
3.22823e-05
3.23006e-05
3.23188e-05
3.23369e-05
3.23549e-05
3.23726e-05
3.23901e-05
3.24073e-05
3.24241e-05
3.24405e-05
3.24563e-05
3.24715e-05
3.2486e-05
3.24997e-05
3.25125e-05
3.25244e-05
1.8785e-05
2.44944e-05
2.4995e-05
2.5473e-05
2.59284e-05
2.63616e-05
2.6773e-05
2.7163e-05
2.75322e-05
2.78814e-05
2.82111e-05
2.85223e-05
2.88156e-05
2.9092e-05
2.93523e-05
2.95973e-05
2.98279e-05
3.00448e-05
3.0249e-05
3.04411e-05
3.0622e-05
3.07923e-05
3.09529e-05
3.11043e-05
3.12473e-05
3.13824e-05
3.15102e-05
3.16313e-05
3.17462e-05
3.18747e-05
3.21933e-05
3.22289e-05
3.22473e-05
3.22657e-05
3.22841e-05
3.23024e-05
3.23206e-05
3.23387e-05
3.23567e-05
3.23744e-05
3.23919e-05
3.24091e-05
3.24259e-05
3.24423e-05
3.24581e-05
3.24733e-05
3.24878e-05
3.25015e-05
3.25142e-05
3.2526e-05
1.87894e-05
2.44986e-05
2.49992e-05
2.54771e-05
2.59325e-05
2.63657e-05
2.6777e-05
2.7167e-05
2.75361e-05
2.78852e-05
2.82149e-05
2.85259e-05
2.88192e-05
2.90955e-05
2.93557e-05
2.96006e-05
2.98311e-05
3.00479e-05
3.0252e-05
3.0444e-05
3.06248e-05
3.07951e-05
3.09556e-05
3.11069e-05
3.12498e-05
3.13848e-05
3.15125e-05
3.16336e-05
3.17484e-05
3.18768e-05
3.21951e-05
3.22307e-05
3.22491e-05
3.22675e-05
3.22859e-05
3.23043e-05
3.23225e-05
3.23406e-05
3.23586e-05
3.23764e-05
3.23939e-05
3.24111e-05
3.24279e-05
3.24442e-05
3.246e-05
3.24752e-05
3.24897e-05
3.25033e-05
3.25161e-05
3.25278e-05
1.87939e-05
2.4503e-05
2.50037e-05
2.54815e-05
2.59369e-05
2.637e-05
2.67813e-05
2.71711e-05
2.75402e-05
2.78892e-05
2.82188e-05
2.85298e-05
2.88229e-05
2.90991e-05
2.93592e-05
2.9604e-05
2.98344e-05
3.00512e-05
3.02551e-05
3.04471e-05
3.06278e-05
3.07979e-05
3.09583e-05
3.11096e-05
3.12524e-05
3.13873e-05
3.1515e-05
3.16359e-05
3.17507e-05
3.1879e-05
3.2197e-05
3.22326e-05
3.22511e-05
3.22695e-05
3.22879e-05
3.23062e-05
3.23245e-05
3.23427e-05
3.23607e-05
3.23784e-05
3.2396e-05
3.24131e-05
3.243e-05
3.24463e-05
3.24621e-05
3.24773e-05
3.24917e-05
3.25054e-05
3.25181e-05
3.25298e-05
1.87987e-05
2.45077e-05
2.50083e-05
2.54862e-05
2.59415e-05
2.63745e-05
2.67857e-05
2.71755e-05
2.75445e-05
2.78934e-05
2.82229e-05
2.85338e-05
2.88268e-05
2.9103e-05
2.93629e-05
2.96076e-05
2.98379e-05
3.00546e-05
3.02584e-05
3.04503e-05
3.06309e-05
3.0801e-05
3.09612e-05
3.11124e-05
3.12551e-05
3.13899e-05
3.15175e-05
3.16384e-05
3.17531e-05
3.18813e-05
3.2199e-05
3.22346e-05
3.22531e-05
3.22715e-05
3.229e-05
3.23083e-05
3.23266e-05
3.23448e-05
3.23628e-05
3.23806e-05
3.23981e-05
3.24153e-05
3.24322e-05
3.24485e-05
3.24643e-05
3.24795e-05
3.2494e-05
3.25076e-05
3.25203e-05
3.2532e-05
1.88037e-05
2.45126e-05
2.50132e-05
2.5491e-05
2.59462e-05
2.63792e-05
2.67903e-05
2.71801e-05
2.7549e-05
2.78978e-05
2.82272e-05
2.8538e-05
2.88309e-05
2.91069e-05
2.93668e-05
2.96114e-05
2.98416e-05
3.00581e-05
3.02619e-05
3.04536e-05
3.06341e-05
3.08041e-05
3.09643e-05
3.11153e-05
3.12579e-05
3.13927e-05
3.15202e-05
3.1641e-05
3.17556e-05
3.18837e-05
3.2201e-05
3.22367e-05
3.22552e-05
3.22737e-05
3.22921e-05
3.23105e-05
3.23288e-05
3.2347e-05
3.23651e-05
3.23829e-05
3.24004e-05
3.24177e-05
3.24345e-05
3.24509e-05
3.24667e-05
3.24819e-05
3.24964e-05
3.251e-05
3.25227e-05
3.25344e-05
1.88089e-05
2.45177e-05
2.50182e-05
2.5496e-05
2.59512e-05
2.63841e-05
2.67952e-05
2.71848e-05
2.75537e-05
2.79024e-05
2.82317e-05
2.85423e-05
2.88352e-05
2.91111e-05
2.93709e-05
2.96153e-05
2.98454e-05
3.00618e-05
3.02655e-05
3.04571e-05
3.06375e-05
3.08073e-05
3.09674e-05
3.11184e-05
3.12609e-05
3.13956e-05
3.1523e-05
3.16437e-05
3.17582e-05
3.18863e-05
3.22032e-05
3.22389e-05
3.22574e-05
3.22759e-05
3.22944e-05
3.23128e-05
3.23311e-05
3.23494e-05
3.23674e-05
3.23853e-05
3.24029e-05
3.24202e-05
3.2437e-05
3.24534e-05
3.24693e-05
3.24845e-05
3.24989e-05
3.25126e-05
3.25253e-05
3.2537e-05
1.88144e-05
2.4523e-05
2.50235e-05
2.55013e-05
2.59564e-05
2.63892e-05
2.68002e-05
2.71898e-05
2.75585e-05
2.79071e-05
2.82363e-05
2.85469e-05
2.88396e-05
2.91154e-05
2.93751e-05
2.96194e-05
2.98494e-05
3.00657e-05
3.02692e-05
3.04607e-05
3.0641e-05
3.08107e-05
3.09707e-05
3.11216e-05
3.1264e-05
3.13985e-05
3.15258e-05
3.16464e-05
3.17609e-05
3.18889e-05
3.22054e-05
3.22411e-05
3.22597e-05
3.22782e-05
3.22967e-05
3.23152e-05
3.23336e-05
3.23518e-05
3.23699e-05
3.23878e-05
3.24055e-05
3.24228e-05
3.24397e-05
3.24561e-05
3.2472e-05
3.24872e-05
3.25017e-05
3.25154e-05
3.25281e-05
3.25397e-05
1.88201e-05
2.45286e-05
2.5029e-05
2.55067e-05
2.59618e-05
2.63946e-05
2.68055e-05
2.71949e-05
2.75636e-05
2.79121e-05
2.82412e-05
2.85516e-05
2.88442e-05
2.91199e-05
2.93794e-05
2.96237e-05
2.98535e-05
3.00697e-05
3.02731e-05
3.04645e-05
3.06446e-05
3.08143e-05
3.09741e-05
3.11249e-05
3.12672e-05
3.14016e-05
3.15288e-05
3.16493e-05
3.17637e-05
3.18916e-05
3.22077e-05
3.22434e-05
3.2262e-05
3.22806e-05
3.22991e-05
3.23176e-05
3.23361e-05
3.23544e-05
3.23725e-05
3.23905e-05
3.24081e-05
3.24255e-05
3.24424e-05
3.24589e-05
3.24748e-05
3.24901e-05
3.25046e-05
3.25183e-05
3.25311e-05
3.25428e-05
1.8826e-05
2.45343e-05
2.50348e-05
2.55124e-05
2.59674e-05
2.64001e-05
2.68109e-05
2.72003e-05
2.75688e-05
2.79172e-05
2.82462e-05
2.85565e-05
2.8849e-05
2.91246e-05
2.9384e-05
2.96281e-05
2.98577e-05
3.00738e-05
3.02771e-05
3.04683e-05
3.06484e-05
3.08179e-05
3.09776e-05
3.11283e-05
3.12705e-05
3.14048e-05
3.15319e-05
3.16523e-05
3.17666e-05
3.18944e-05
3.22101e-05
3.22459e-05
3.22645e-05
3.22831e-05
3.23017e-05
3.23202e-05
3.23387e-05
3.2357e-05
3.23752e-05
3.23932e-05
3.2411e-05
3.24284e-05
3.24454e-05
3.24619e-05
3.24779e-05
3.24932e-05
3.25078e-05
3.25215e-05
3.25343e-05
3.2546e-05
1.88322e-05
2.45403e-05
2.50407e-05
2.55183e-05
2.59733e-05
2.64059e-05
2.68166e-05
2.72058e-05
2.75743e-05
2.79225e-05
2.82514e-05
2.85616e-05
2.8854e-05
2.91294e-05
2.93886e-05
2.96326e-05
2.98622e-05
3.00781e-05
3.02812e-05
3.04724e-05
3.06523e-05
3.08217e-05
3.09813e-05
3.11318e-05
3.12739e-05
3.14081e-05
3.15351e-05
3.16554e-05
3.17696e-05
3.18973e-05
3.22125e-05
3.22483e-05
3.2267e-05
3.22856e-05
3.23043e-05
3.23229e-05
3.23414e-05
3.23598e-05
3.23781e-05
3.23961e-05
3.24139e-05
3.24314e-05
3.24484e-05
3.2465e-05
3.24811e-05
3.24964e-05
3.25111e-05
3.25249e-05
3.25377e-05
3.25495e-05
1.88386e-05
2.45466e-05
2.50469e-05
2.55244e-05
2.59793e-05
2.64118e-05
2.68224e-05
2.72116e-05
2.75799e-05
2.79281e-05
2.82568e-05
2.85669e-05
2.88591e-05
2.91344e-05
2.93935e-05
2.96373e-05
2.98667e-05
3.00825e-05
3.02855e-05
3.04765e-05
3.06563e-05
3.08256e-05
3.0985e-05
3.11354e-05
3.12774e-05
3.14115e-05
3.15384e-05
3.16586e-05
3.17726e-05
3.19003e-05
3.2215e-05
3.22509e-05
3.22696e-05
3.22883e-05
3.2307e-05
3.23256e-05
3.23442e-05
3.23627e-05
3.2381e-05
3.23991e-05
3.2417e-05
3.24345e-05
3.24517e-05
3.24683e-05
3.24844e-05
3.24999e-05
3.25146e-05
3.25285e-05
3.25413e-05
3.25532e-05
1.88452e-05
2.4553e-05
2.50533e-05
2.55307e-05
2.59855e-05
2.6418e-05
2.68285e-05
2.72175e-05
2.75857e-05
2.79338e-05
2.82623e-05
2.85723e-05
2.88644e-05
2.91395e-05
2.93985e-05
2.96422e-05
2.98714e-05
3.00871e-05
3.02899e-05
3.04808e-05
3.06604e-05
3.08296e-05
3.09889e-05
3.11392e-05
3.1281e-05
3.1415e-05
3.15417e-05
3.16618e-05
3.17758e-05
3.19033e-05
3.22176e-05
3.22535e-05
3.22723e-05
3.2291e-05
3.23098e-05
3.23285e-05
3.23471e-05
3.23657e-05
3.23841e-05
3.24023e-05
3.24202e-05
3.24378e-05
3.24551e-05
3.24718e-05
3.2488e-05
3.25035e-05
3.25183e-05
3.25323e-05
3.25452e-05
3.25571e-05
1.8852e-05
2.45597e-05
2.50599e-05
2.55372e-05
2.59919e-05
2.64243e-05
2.68347e-05
2.72237e-05
2.75917e-05
2.79396e-05
2.82681e-05
2.85779e-05
2.88698e-05
2.91448e-05
2.94036e-05
2.96472e-05
2.98763e-05
3.00918e-05
3.02945e-05
3.04852e-05
3.06647e-05
3.08337e-05
3.09929e-05
3.1143e-05
3.12847e-05
3.14186e-05
3.15452e-05
3.16652e-05
3.1779e-05
3.19065e-05
3.22203e-05
3.22562e-05
3.2275e-05
3.22938e-05
3.23126e-05
3.23314e-05
3.23501e-05
3.23687e-05
3.23872e-05
3.24055e-05
3.24235e-05
3.24413e-05
3.24586e-05
3.24754e-05
3.24917e-05
3.25074e-05
3.25223e-05
3.25363e-05
3.25494e-05
3.25614e-05
1.8859e-05
2.45665e-05
2.50666e-05
2.55439e-05
2.59986e-05
2.64308e-05
2.68411e-05
2.723e-05
2.75979e-05
2.79457e-05
2.8274e-05
2.85837e-05
2.88755e-05
2.91503e-05
2.9409e-05
2.96523e-05
2.98813e-05
3.00966e-05
3.02992e-05
3.04897e-05
3.06691e-05
3.08379e-05
3.0997e-05
3.1147e-05
3.12885e-05
3.14223e-05
3.15488e-05
3.16686e-05
3.17824e-05
3.19097e-05
3.2223e-05
3.2259e-05
3.22778e-05
3.22967e-05
3.23156e-05
3.23344e-05
3.23532e-05
3.23719e-05
3.23905e-05
3.24089e-05
3.2427e-05
3.24448e-05
3.24623e-05
3.24792e-05
3.24956e-05
3.25114e-05
3.25264e-05
3.25406e-05
3.25538e-05
3.25658e-05
1.88662e-05
2.45735e-05
2.50736e-05
2.55509e-05
2.60054e-05
2.64376e-05
2.68478e-05
2.72365e-05
2.76043e-05
2.79519e-05
2.82801e-05
2.85896e-05
2.88812e-05
2.91559e-05
2.94144e-05
2.96576e-05
2.98864e-05
3.01016e-05
3.0304e-05
3.04944e-05
3.06736e-05
3.08423e-05
3.10012e-05
3.1151e-05
3.12924e-05
3.1426e-05
3.15524e-05
3.16722e-05
3.17858e-05
3.1913e-05
3.22258e-05
3.22618e-05
3.22807e-05
3.22996e-05
3.23186e-05
3.23375e-05
3.23564e-05
3.23752e-05
3.23939e-05
3.24124e-05
3.24306e-05
3.24485e-05
3.24661e-05
3.24832e-05
3.24997e-05
3.25156e-05
3.25308e-05
3.25451e-05
3.25584e-05
3.25706e-05
1.88736e-05
2.45807e-05
2.50808e-05
2.5558e-05
2.60124e-05
2.64445e-05
2.68546e-05
2.72432e-05
2.76108e-05
2.79583e-05
2.82863e-05
2.85957e-05
2.88872e-05
2.91617e-05
2.942e-05
2.96631e-05
2.98917e-05
3.01067e-05
3.03089e-05
3.04992e-05
3.06782e-05
3.08467e-05
3.10055e-05
3.11552e-05
3.12964e-05
3.14299e-05
3.15562e-05
3.16758e-05
3.17893e-05
3.19164e-05
3.22286e-05
3.22647e-05
3.22837e-05
3.23027e-05
3.23217e-05
3.23407e-05
3.23596e-05
3.23786e-05
3.23973e-05
3.24159e-05
3.24343e-05
3.24524e-05
3.24701e-05
3.24873e-05
3.2504e-05
3.25201e-05
3.25354e-05
3.25498e-05
3.25633e-05
3.25757e-05
1.88812e-05
2.45881e-05
2.50882e-05
2.55653e-05
2.60196e-05
2.64516e-05
2.68616e-05
2.725e-05
2.76176e-05
2.79649e-05
2.82927e-05
2.86019e-05
2.88932e-05
2.91676e-05
2.94257e-05
2.96686e-05
2.98971e-05
3.01119e-05
3.0314e-05
3.0504e-05
3.06829e-05
3.08513e-05
3.10099e-05
3.11594e-05
3.13005e-05
3.14339e-05
3.156e-05
3.16795e-05
3.17928e-05
3.19198e-05
3.22315e-05
3.22677e-05
3.22867e-05
3.23057e-05
3.23248e-05
3.23439e-05
3.2363e-05
3.2382e-05
3.24009e-05
3.24196e-05
3.24382e-05
3.24564e-05
3.24742e-05
3.24916e-05
3.25085e-05
3.25247e-05
3.25402e-05
3.25548e-05
3.25685e-05
3.2581e-05
1.8889e-05
2.45957e-05
2.50957e-05
2.55727e-05
2.6027e-05
2.64589e-05
2.68687e-05
2.7257e-05
2.76244e-05
2.79716e-05
2.82993e-05
2.86083e-05
2.88995e-05
2.91736e-05
2.94316e-05
2.96743e-05
2.99026e-05
3.01172e-05
3.03191e-05
3.0509e-05
3.06877e-05
3.08559e-05
3.10144e-05
3.11637e-05
3.13047e-05
3.14379e-05
3.15639e-05
3.16832e-05
3.17964e-05
3.19234e-05
3.22344e-05
3.22706e-05
3.22897e-05
3.23089e-05
3.2328e-05
3.23472e-05
3.23664e-05
3.23855e-05
3.24046e-05
3.24234e-05
3.24421e-05
3.24605e-05
3.24785e-05
3.24961e-05
3.25131e-05
3.25296e-05
3.25452e-05
3.25601e-05
3.25739e-05
3.25867e-05
1.8897e-05
2.46035e-05
2.51034e-05
2.55804e-05
2.60346e-05
2.64663e-05
2.6876e-05
2.72642e-05
2.76315e-05
2.79785e-05
2.8306e-05
2.86148e-05
2.89058e-05
2.91798e-05
2.94376e-05
2.96801e-05
2.99082e-05
3.01227e-05
3.03244e-05
3.05141e-05
3.06926e-05
3.08606e-05
3.10189e-05
3.11681e-05
3.13089e-05
3.1442e-05
3.15678e-05
3.1687e-05
3.18001e-05
3.19269e-05
3.22374e-05
3.22737e-05
3.22928e-05
3.2312e-05
3.23313e-05
3.23506e-05
3.23699e-05
3.23891e-05
3.24083e-05
3.24273e-05
3.24462e-05
3.24647e-05
3.24829e-05
3.25007e-05
3.2518e-05
3.25346e-05
3.25505e-05
3.25656e-05
3.25796e-05
3.25926e-05
1.89051e-05
2.46114e-05
2.51113e-05
2.55882e-05
2.60423e-05
2.64739e-05
2.68835e-05
2.72715e-05
2.76386e-05
2.79855e-05
2.83128e-05
2.86215e-05
2.89123e-05
2.91861e-05
2.94437e-05
2.9686e-05
2.99139e-05
3.01282e-05
3.03297e-05
3.05193e-05
3.06976e-05
3.08654e-05
3.10236e-05
3.11726e-05
3.13133e-05
3.14461e-05
3.15718e-05
3.16909e-05
3.18039e-05
3.19305e-05
3.22404e-05
3.22767e-05
3.2296e-05
3.23152e-05
3.23346e-05
3.2354e-05
3.23734e-05
3.23928e-05
3.24121e-05
3.24313e-05
3.24503e-05
3.24691e-05
3.24875e-05
3.25055e-05
3.2523e-05
3.25398e-05
3.2556e-05
3.25713e-05
3.25857e-05
3.25989e-05
1.89135e-05
2.46195e-05
2.51193e-05
2.55961e-05
2.60501e-05
2.64817e-05
2.68911e-05
2.7279e-05
2.7646e-05
2.79926e-05
2.83198e-05
2.86283e-05
2.89189e-05
2.91925e-05
2.94499e-05
2.96921e-05
2.99198e-05
3.01339e-05
3.03352e-05
3.05245e-05
3.07027e-05
3.08703e-05
3.10283e-05
3.11772e-05
3.13176e-05
3.14503e-05
3.15759e-05
3.16948e-05
3.18076e-05
3.19342e-05
3.22434e-05
3.22798e-05
3.22991e-05
3.23185e-05
3.2338e-05
3.23575e-05
3.2377e-05
3.23966e-05
3.24161e-05
3.24354e-05
3.24546e-05
3.24736e-05
3.24922e-05
3.25104e-05
3.25282e-05
3.25453e-05
3.25617e-05
3.25773e-05
3.2592e-05
3.26055e-05
1.8922e-05
2.46278e-05
2.51275e-05
2.56043e-05
2.60582e-05
2.64896e-05
2.68989e-05
2.72866e-05
2.76534e-05
2.79999e-05
2.83269e-05
2.86352e-05
2.89256e-05
2.9199e-05
2.94563e-05
2.96982e-05
2.99257e-05
3.01396e-05
3.03407e-05
3.05299e-05
3.07078e-05
3.08753e-05
3.10331e-05
3.11818e-05
3.13221e-05
3.14546e-05
3.158e-05
3.16988e-05
3.18115e-05
3.19379e-05
3.22465e-05
3.2283e-05
3.23023e-05
3.23218e-05
3.23414e-05
3.2361e-05
3.23807e-05
3.24004e-05
3.242e-05
3.24396e-05
3.2459e-05
3.24782e-05
3.2497e-05
3.25155e-05
3.25335e-05
3.2551e-05
3.25677e-05
3.25836e-05
3.25985e-05
3.26124e-05
1.89306e-05
2.46362e-05
2.51359e-05
2.56125e-05
2.60663e-05
2.64976e-05
2.69068e-05
2.72944e-05
2.7661e-05
2.80073e-05
2.83342e-05
2.86423e-05
2.89325e-05
2.92057e-05
2.94627e-05
2.97044e-05
2.99317e-05
3.01454e-05
3.03464e-05
3.05353e-05
3.07131e-05
3.08803e-05
3.10379e-05
3.11864e-05
3.13266e-05
3.14589e-05
3.15842e-05
3.17028e-05
3.18153e-05
3.19416e-05
3.22495e-05
3.22861e-05
3.23055e-05
3.23251e-05
3.23448e-05
3.23646e-05
3.23844e-05
3.24042e-05
3.24241e-05
3.24438e-05
3.24634e-05
3.24829e-05
3.2502e-05
3.25208e-05
3.25391e-05
3.25568e-05
3.25739e-05
3.25901e-05
3.26054e-05
3.26197e-05
1.89394e-05
2.46447e-05
2.51444e-05
2.56209e-05
2.60746e-05
2.65058e-05
2.69148e-05
2.73023e-05
2.76687e-05
2.80149e-05
2.83415e-05
2.86494e-05
2.89394e-05
2.92124e-05
2.94692e-05
2.97108e-05
2.99379e-05
3.01513e-05
3.03521e-05
3.05408e-05
3.07183e-05
3.08854e-05
3.10428e-05
3.11911e-05
3.13311e-05
3.14633e-05
3.15883e-05
3.17068e-05
3.18192e-05
3.19454e-05
3.22526e-05
3.22892e-05
3.23088e-05
3.23284e-05
3.23482e-05
3.23681e-05
3.23881e-05
3.24081e-05
3.24282e-05
3.24481e-05
3.2468e-05
3.24877e-05
3.25071e-05
3.25261e-05
3.25448e-05
3.25629e-05
3.25803e-05
3.25969e-05
3.26126e-05
3.26272e-05
1.89484e-05
2.46534e-05
2.5153e-05
2.56295e-05
2.60831e-05
2.65141e-05
2.6923e-05
2.73103e-05
2.76766e-05
2.80225e-05
2.8349e-05
2.86567e-05
2.89465e-05
2.92193e-05
2.94759e-05
2.97172e-05
2.9944e-05
3.01573e-05
3.03578e-05
3.05463e-05
3.07237e-05
3.08906e-05
3.10478e-05
3.11959e-05
3.13357e-05
3.14677e-05
3.15926e-05
3.17109e-05
3.18231e-05
3.19492e-05
3.22557e-05
3.22924e-05
3.2312e-05
3.23318e-05
3.23517e-05
3.23717e-05
3.23919e-05
3.24121e-05
3.24323e-05
3.24525e-05
3.24726e-05
3.24926e-05
3.25123e-05
3.25317e-05
3.25506e-05
3.25691e-05
3.25869e-05
3.26039e-05
3.26201e-05
3.26351e-05
1.89575e-05
2.46623e-05
2.51618e-05
2.56382e-05
2.60916e-05
2.65225e-05
2.69313e-05
2.73184e-05
2.76845e-05
2.80303e-05
2.83565e-05
2.8664e-05
2.89536e-05
2.92262e-05
2.94826e-05
2.97237e-05
2.99503e-05
3.01634e-05
3.03636e-05
3.0552e-05
3.07291e-05
3.08958e-05
3.10528e-05
3.12007e-05
3.13403e-05
3.14721e-05
3.15968e-05
3.1715e-05
3.18271e-05
3.19529e-05
3.22588e-05
3.22955e-05
3.23152e-05
3.23351e-05
3.23552e-05
3.23753e-05
3.23957e-05
3.24161e-05
3.24365e-05
3.24569e-05
3.24773e-05
3.24975e-05
3.25176e-05
3.25373e-05
3.25566e-05
3.25755e-05
3.25937e-05
3.26112e-05
3.26278e-05
3.26434e-05
1.89667e-05
2.46712e-05
2.51707e-05
2.5647e-05
2.61003e-05
2.65311e-05
2.69397e-05
2.73266e-05
2.76925e-05
2.80381e-05
2.83641e-05
2.86714e-05
2.89608e-05
2.92332e-05
2.94893e-05
2.97302e-05
2.99566e-05
3.01695e-05
3.03695e-05
3.05576e-05
3.07345e-05
3.0901e-05
3.10578e-05
3.12055e-05
3.13449e-05
3.14766e-05
3.16011e-05
3.17191e-05
3.1831e-05
3.19567e-05
3.22619e-05
3.22987e-05
3.23185e-05
3.23384e-05
3.23586e-05
3.2379e-05
3.23994e-05
3.242e-05
3.24407e-05
3.24614e-05
3.2482e-05
3.25026e-05
3.2523e-05
3.25431e-05
3.25628e-05
3.25821e-05
3.26008e-05
3.26188e-05
3.26359e-05
3.2652e-05
1.89761e-05
2.46803e-05
2.51797e-05
2.56559e-05
2.61091e-05
2.65397e-05
2.69482e-05
2.73349e-05
2.77006e-05
2.8046e-05
2.83719e-05
2.86789e-05
2.89681e-05
2.92402e-05
2.94962e-05
2.97368e-05