/*--------------------------------*- C++ -*----------------------------------*\
  =========                 |
  \\      /  F ield         | OpenFOAM: The Open Source CFD Toolbox
   \\    /   O peration     | Website:  https://openfoam.org
    \\  /    A nd           | Version:  9
     \\/     M anipulation  |
\*---------------------------------------------------------------------------*/
FoamFile
{
    format      ascii;
    class       volVectorField;
    location    "0.02";
    object      U;
}
// * * * * * * * * * * * * * * * * * * * * * * * * * * * * * * * * * * * * * //

dimensions      [0 1 -1 0 0 0 0];

internalField   nonuniform List<vector> 
5000
(
(-5.16505e-06 0 -0.000567077)
(-3.34352e-06 0 -0.00131223)
(-3.59227e-06 0 -0.00195838)
(-3.17228e-06 0 -0.00262169)
(-2.28486e-06 0 -0.00333304)
(-1.45202e-06 0 -0.00410111)
(-6.77055e-07 0 -0.0049248)
(9.5378e-08 0 -0.00580281)
(9.15192e-07 0 -0.00673568)
(1.80437e-06 0 -0.00772535)
(2.76894e-06 0 -0.00877432)
(3.80987e-06 0 -0.00988529)
(4.92798e-06 0 -0.0110609)
(6.1251e-06 0 -0.012304)
(7.40386e-06 0 -0.0136173)
(8.76744e-06 0 -0.0150037)
(1.02195e-05 0 -0.0164664)
(1.17644e-05 0 -0.0180086)
(1.34069e-05 0 -0.0196338)
(1.51524e-05 0 -0.0213459)
(1.70068e-05 0 -0.0231489)
(1.89766e-05 0 -0.0250474)
(2.10692e-05 0 -0.0270459)
(2.32921e-05 0 -0.0291495)
(2.56538e-05 0 -0.0313637)
(2.81635e-05 0 -0.0336942)
(3.08312e-05 0 -0.0361473)
(3.36658e-05 0 -0.0387297)
(3.66749e-05 0 -0.0414486)
(3.98781e-05 0 -0.0443106)
(4.33953e-05 0 -0.0475757)
(4.71659e-05 0 -0.0511657)
(5.09839e-05 0 -0.0547507)
(5.47961e-05 0 -0.0583309)
(5.85638e-05 0 -0.0619051)
(6.2246e-05 0 -0.0654701)
(6.57974e-05 0 -0.0690211)
(6.91693e-05 0 -0.072552)
(7.23082e-05 0 -0.0760555)
(7.51553e-05 0 -0.0795233)
(7.76455e-05 0 -0.0829461)
(7.97074e-05 0 -0.0863133)
(8.12637e-05 0 -0.089613)
(8.22321e-05 0 -0.0928322)
(8.25271e-05 0 -0.0959566)
(8.20617e-05 0 -0.0989705)
(8.07485e-05 0 -0.101857)
(7.84961e-05 0 -0.104599)
(7.52119e-05 0 -0.107175)
(7.08016e-05 0 -0.109565)
(-2.93081e-05 0 -0.000569385)
(-2.52184e-05 0 -0.00131042)
(-2.50526e-05 0 -0.00195737)
(-2.36316e-05 0 -0.00262373)
(-2.1331e-05 0 -0.00333538)
(-1.91583e-05 0 -0.00410311)
(-1.71459e-05 0 -0.00492671)
(-1.51442e-05 0 -0.00580499)
(-1.30286e-05 0 -0.00673837)
(-1.07391e-05 0 -0.00772865)
(-8.25272e-06 0 -0.00877831)
(-5.56e-06 0 -0.00989)
(-2.65394e-06 0 -0.0110664)
(4.73545e-07 0 -0.0123104)
(3.83177e-06 0 -0.0136246)
(7.43107e-06 0 -0.015012)
(1.12829e-05 0 -0.0164757)
(1.53998e-05 0 -0.0180189)
(1.97952e-05 0 -0.0196454)
(2.44837e-05 0 -0.0213587)
(2.94813e-05 0 -0.0231632)
(3.48051e-05 0 -0.025063)
(4.04737e-05 0 -0.0270631)
(4.65067e-05 0 -0.0291684)
(5.29248e-05 0 -0.0313843)
(5.97496e-05 0 -0.0337166)
(6.70038e-05 0 -0.0361717)
(7.4705e-05 0 -0.0387562)
(8.2869e-05 0 -0.0414774)
(9.15464e-05 0 -0.0443417)
(0.00010116 0 -0.0476096)
(0.000111519 0 -0.0512026)
(0.000121953 0 -0.0547906)
(0.000132339 0 -0.0583737)
(0.000142581 0 -0.0619509)
(0.000152575 0 -0.0655189)
(0.000162206 0 -0.0690729)
(0.000171343 0 -0.0726067)
(0.000179848 0 -0.0761132)
(0.000187563 0 -0.0795839)
(0.000194317 0 -0.0830096)
(0.000199925 0 -0.0863796)
(0.000204183 0 -0.089682)
(0.000206879 0 -0.0929039)
(0.000207793 0 -0.0960308)
(0.0002067 0 -0.0990472)
(0.000203376 0 -0.101936)
(0.000197593 0 -0.10468)
(0.00018912 0 -0.107258)
(0.000177722 0 -0.109649)
(-6.18416e-05 0 -0.000575649)
(-5.87808e-05 0 -0.00131596)
(-5.75834e-05 0 -0.0019643)
(-5.52788e-05 0 -0.00263186)
(-5.23811e-05 0 -0.0033434)
(-4.95814e-05 0 -0.0041104)
(-4.68738e-05 0 -0.00493344)
(-4.40809e-05 0 -0.00581152)
(-4.10655e-05 0 -0.0067449)
(-3.77549e-05 0 -0.00773524)
(-3.4117e-05 0 -0.00878496)
(-3.01368e-05 0 -0.00989669)
(-2.58029e-05 0 -0.0110732)
(-2.11026e-05 0 -0.0123171)
(-1.60211e-05 0 -0.0136312)
(-1.0542e-05 0 -0.0150186)
(-4.6477e-06 0 -0.0164822)
(1.68138e-06 0 -0.0180254)
(8.46603e-06 0 -0.0196517)
(1.57285e-05 0 -0.0213649)
(2.34934e-05 0 -0.0231692)
(3.17867e-05 0 -0.0250689)
(4.06361e-05 0 -0.0270688)
(5.00707e-05 0 -0.0291738)
(6.01206e-05 0 -0.0313895)
(7.08165e-05 0 -0.0337216)
(8.21891e-05 0 -0.0361764)
(9.4259e-05 0 -0.0387606)
(0.000107022 0 -0.0414814)
(0.000120505 0 -0.0443453)
(0.000135697 0 -0.0476126)
(0.000152246 0 -0.051205)
(0.000168749 0 -0.0547922)
(0.000185114 0 -0.0583746)
(0.000201233 0 -0.0619509)
(0.000216951 0 -0.0655179)
(0.000232093 0 -0.0690708)
(0.000246462 0 -0.0726034)
(0.000259841 0 -0.0761085)
(0.000271991 0 -0.0795777)
(0.000282649 0 -0.0830016)
(0.000291531 0 -0.0863697)
(0.000298331 0 -0.0896701)
(0.000302726 0 -0.0928897)
(0.000304384 0 -0.0960142)
(0.000302967 0 -0.099028)
(0.000298142 0 -0.101914)
(0.000289578 0 -0.104655)
(0.000276927 0 -0.10723)
(0.000259867 0 -0.109618)
(-0.000107468 0 -0.000578498)
(-0.000104964 0 -0.00132099)
(-0.000102823 0 -0.00197078)
(-9.99182e-05 0 -0.00263915)
(-9.66541e-05 0 -0.00335045)
(-9.34823e-05 0 -0.00411682)
(-9.03205e-05 0 -0.00493942)
(-8.69721e-05 0 -0.0058174)
(-8.32843e-05 0 -0.00675089)
(-7.9171e-05 0 -0.0077414)
(-7.45929e-05 0 -0.00879126)
(-6.95314e-05 0 -0.00990308)
(-6.39726e-05 0 -0.0110796)
(-5.79005e-05 0 -0.0123235)
(-5.12962e-05 0 -0.0136376)
(-4.41386e-05 0 -0.0150248)
(-3.64044e-05 0 -0.0164882)
(-2.80679e-05 0 -0.0180312)
(-1.91019e-05 0 -0.0196572)
(-9.47671e-06 0 -0.0213701)
(8.39472e-07 0 -0.023174)
(1.18807e-05 0 -0.0250732)
(2.36826e-05 0 -0.0270726)
(3.62827e-05 0 -0.029177)
(4.97191e-05 0 -0.0313921)
(6.40299e-05 0 -0.0337235)
(7.92523e-05 0 -0.0361775)
(9.54116e-05 0 -0.0387609)
(0.000112492 0 -0.0414807)
(0.000130486 0 -0.0443434)
(0.000150906 0 -0.0476091)
(0.000173265 0 -0.0511999)
(0.000195477 0 -0.0547857)
(0.00021748 0 -0.0583666)
(0.00023914 0 -0.0619412)
(0.000260257 0 -0.0655064)
(0.000280602 0 -0.0690573)
(0.000299919 0 -0.0725877)
(0.000317923 0 -0.0760904)
(0.000334302 0 -0.0795571)
(0.000348712 0 -0.0829783)
(0.000360783 0 -0.0863433)
(0.000370118 0 -0.0896404)
(0.000376301 0 -0.0928565)
(0.000378904 0 -0.0959772)
(0.000377494 0 -0.098987)
(0.000371647 0 -0.101869)
(0.000360952 0 -0.104605)
(0.000344957 0 -0.107176)
(0.000323311 0 -0.109559)
(-0.000170869 0 -0.000582372)
(-0.000168079 0 -0.00132867)
(-0.000164922 0 -0.00198021)
(-0.000161288 0 -0.00264901)
(-0.000157493 0 -0.00335995)
(-0.000153829 0 -0.00412584)
(-0.000150155 0 -0.00494833)
(-0.00014624 0 -0.00582661)
(-0.000141905 0 -0.00676065)
(-0.000137041 0 -0.00775179)
(-0.000131596 0 -0.00880225)
(-0.000125545 0 -0.00991462)
(-0.000118866 0 -0.0110916)
(-0.000111539 0 -0.012336)
(-0.000103539 0 -0.0136505)
(-9.48408e-05 0 -0.015038)
(-8.54139e-05 0 -0.0165018)
(-7.5227e-05 0 -0.0180451)
(-6.42459e-05 0 -0.0196713)
(-5.24343e-05 0 -0.0213844)
(-3.97529e-05 0 -0.0231885)
(-2.61605e-05 0 -0.0250879)
(-1.16139e-05 0 -0.0270873)
(3.93185e-06 0 -0.0291919)
(2.05222e-05 0 -0.031407)
(3.82018e-05 0 -0.0337384)
(5.70138e-05 0 -0.0361923)
(7.69915e-05 0 -0.0387756)
(9.8128e-05 0 -0.0414951)
(0.000120399 0 -0.0443575)
(0.000145666 0 -0.0476226)
(0.000173343 0 -0.0512129)
(0.000200861 0 -0.0547982)
(0.000228135 0 -0.0583786)
(0.000254984 0 -0.0619525)
(0.000281167 0 -0.0655169)
(0.000306406 0 -0.0690668)
(0.000330394 0 -0.072596)
(0.000352788 0 -0.0760972)
(0.000373211 0 -0.0795622)
(0.000391252 0 -0.0829814)
(0.000406467 0 -0.0863442)
(0.000418385 0 -0.0896388)
(0.000426509 0 -0.092852)
(0.000430336 0 -0.0959695)
(0.000429353 0 -0.0989758)
(0.000423067 0 -0.101854)
(0.000411009 0 -0.104586)
(0.000392638 0 -0.107152)
(0.000367597 0 -0.109531)
(-0.000250565 0 -0.000587326)
(-0.000247651 0 -0.00133837)
(-0.000243843 0 -0.00199167)
(-0.000239688 0 -0.00266051)
(-0.000235456 0 -0.00337072)
(-0.000231363 0 -0.00413601)
(-0.000227239 0 -0.00495842)
(-0.000222827 0 -0.00583712)
(-0.000217923 0 -0.00677189)
(-0.000212402 0 -0.00776386)
(-0.0002062 0 -0.00881516)
(-0.000199279 0 -0.00992834)
(-0.000191614 0 -0.0111061)
(-0.000183177 0 -0.0123511)
(-0.000173939 0 -0.0136663)
(-0.000163867 0 -0.0150546)
(-0.000152926 0 -0.016519)
(-0.000141077 0 -0.0180628)
(-0.00012828 0 -0.0196897)
(-0.000114493 0 -0.0214033)
(-9.96698e-05 0 -0.0232079)
(-8.37629e-05 0 -0.0251078)
(-6.67221e-05 0 -0.0271077)
(-4.84962e-05 0 -0.0292128)
(-2.90329e-05 0 -0.0314283)
(-8.28147e-06 0 -0.0337602)
(1.38067e-05 0 -0.0362146)
(3.72712e-05 0 -0.0387982)
(6.21158e-05 0 -0.0415181)
(8.83145e-05 0 -0.0443808)
(0.000118021 0 -0.0476459)
(0.00015055 0 -0.0512365)
(0.000182936 0 -0.054822)
(0.000215057 0 -0.0584023)
(0.000246687 0 -0.0619762)
(0.00027755 0 -0.0655403)
(0.00030733 0 -0.0690897)
(0.000335675 0 -0.0726182)
(0.000362195 0 -0.0761184)
(0.00038646 0 -0.0795822)
(0.000408006 0 -0.0829998)
(0.000426328 0 -0.0863607)
(0.000440896 0 -0.089653)
(0.000451154 0 -0.0928637)
(0.000456536 0 -0.0959783)
(0.000456476 0 -0.0989812)
(0.000450419 0 -0.101856)
(0.000437865 0 -0.104584)
(0.000418213 0 -0.107146)
(0.000391114 0 -0.10952)
(-0.000345956 0 -0.00059257)
(-0.000343251 0 -0.0013487)
(-0.000339231 0 -0.00200394)
(-0.00033489 0 -0.00267282)
(-0.000330437 0 -0.00338228)
(-0.000326064 0 -0.00414694)
(-0.000321613 0 -0.00496928)
(-0.000316822 0 -0.00584845)
(-0.000311475 0 -0.00678401)
(-0.00030543 0 -0.0077769)
(-0.00029861 0 -0.00882914)
(-0.000290971 0 -0.00994321)
(-0.000282479 0 -0.0111218)
(-0.000273101 0 -0.0123677)
(-0.000262803 0 -0.0136836)
(-0.000251545 0 -0.0150726)
(-0.000239287 0 -0.0165377)
(-0.000225985 0 -0.0180822)
(-0.000211593 0 -0.0197097)
(-0.000196062 0 -0.0214239)
(-0.00017934 0 -0.0232291)
(-0.000161374 0 -0.0251295)
(-0.000142109 0 -0.02713)
(-0.000121487 0 -0.0292356)
(-9.94512e-05 0 -0.0314516)
(-7.59448e-05 0 -0.0337839)
(-5.09156e-05 0 -0.0362388)
(-2.43218e-05 0 -0.0388228)
(3.84529e-06 0 -0.0415431)
(3.35632e-05 0 -0.0444059)
(6.72995e-05 0 -0.0476713)
(0.000104266 0 -0.0512619)
(0.000141092 0 -0.0548475)
(0.00017763 0 -0.0584278)
(0.000213629 0 -0.0620014)
(0.000248786 0 -0.065565)
(0.000282756 0 -0.0691137)
(0.000315153 0 -0.0726413)
(0.000345547 0 -0.0761404)
(0.000373472 0 -0.0796025)
(0.000398419 0 -0.0830183)
(0.00041984 0 -0.0863769)
(0.000437161 0 -0.0896667)
(0.000449783 0 -0.0928743)
(0.000457096 0 -0.0959855)
(0.000458495 0 -0.0989846)
(0.000453395 0 -0.101855)
(0.000441265 0 -0.104578)
(0.000421475 0 -0.107135)
(0.000393709 0 -0.109504)
(-0.00045842 0 -0.0005976)
(-0.00045602 0 -0.00135875)
(-0.000452007 0 -0.00201614)
(-0.000447652 0 -0.00268536)
(-0.000443078 0 -0.00339431)
(-0.000438482 0 -0.00415851)
(-0.000433744 0 -0.00498087)
(-0.000428622 0 -0.00586058)
(-0.000422894 0 -0.00679703)
(-0.000416408 0 -0.00779095)
(-0.000409071 0 -0.00884422)
(-0.000400828 0 -0.0099593)
(-0.000391638 0 -0.0111388)
(-0.000381461 0 -0.0123856)
(-0.000370256 0 -0.0137024)
(-0.000357978 0 -0.0150921)
(-0.000344581 0 -0.0165579)
(-0.000330015 0 -0.0181031)
(-0.00031423 0 -0.0197312)
(-0.000297169 0 -0.0214461)
(-0.000278779 0 -0.0232518)
(-0.000258998 0 -0.0251528)
(-0.000237768 0 -0.0271538)
(-0.000215026 0 -0.0292598)
(-0.000190711 0 -0.0314763)
(-0.000164759 0 -0.033809)
(-0.000137115 0 -0.0362642)
(-0.000107736 0 -0.0388485)
(-7.66101e-05 0 -0.0415689)
(-4.37606e-05 0 -0.0444319)
(-6.39794e-06 0 -0.0476972)
(3.45892e-05 0 -0.0512877)
(7.54383e-05 0 -0.0548731)
(0.000115985 0 -0.0584531)
(0.000155965 0 -0.0620262)
(0.000195058 0 -0.0655891)
(0.000232897 0 -0.0691369)
(0.000269071 0 -0.0726632)
(0.000303125 0 -0.0761607)
(0.000334564 0 -0.0796209)
(0.000362848 0 -0.0830344)
(0.000387402 0 -0.0863904)
(0.000407622 0 -0.0896771)
(0.00042288 0 -0.0928812)
(0.000432543 0 -0.0959885)
(0.000435984 0 -0.0989834)
(0.000432596 0 -0.101849)
(0.000421843 0 -0.104567)
(0.00040308 0 -0.107119)
(0.000376042 0 -0.109482)
(-0.00058956 0 -0.000602378)
(-0.000587418 0 -0.00136841)
(-0.000583428 0 -0.00202813)
(-0.000579062 0 -0.00269805)
(-0.00057435 0 -0.00340681)
(-0.000569499 0 -0.00417076)
(-0.00056444 0 -0.00499325)
(-0.000558961 0 -0.00587357)
(-0.000552848 0 -0.00681096)
(-0.000545939 0 -0.007806)
(-0.000538125 0 -0.00886041)
(-0.00052934 0 -0.00997659)
(-0.000519531 0 -0.0111572)
(-0.000508651 0 -0.0124049)
(-0.000496653 0 -0.0137226)
(-0.000483485 0 -0.0151133)
(-0.000469094 0 -0.0165799)
(-0.000453425 0 -0.0181259)
(-0.000436421 0 -0.0197547)
(-0.000418024 0 -0.0214702)
(-0.000398171 0 -0.0232766)
(-0.000376799 0 -0.0251781)
(-0.000353844 0 -0.0271797)
(-0.000329239 0 -0.0292862)
(-0.000302916 0 -0.0315031)
(-0.000274811 0 -0.0338362)
(-0.000244863 0 -0.0362918)
(-0.000213023 0 -0.0388764)
(-0.000179277 0 -0.041597)
(-0.000143649 0 -0.0444599)
(-0.000103059 0 -0.0477251)
(-5.84801e-05 0 -0.0513155)
(-1.40209e-05 0 -0.0549007)
(3.0142e-05 0 -0.0584803)
(7.3735e-05 0 -0.0620529)
(0.000116428 0 -0.0656151)
(0.000157841 0 -0.0691617)
(0.000197547 0 -0.0726867)
(0.000235077 0 -0.0761825)
(0.000269917 0 -0.0796407)
(0.000301513 0 -0.0830518)
(0.000329272 0 -0.086405)
(0.000352575 0 -0.0896884)
(0.000370783 0 -0.0928889)
(0.00038325 0 -0.0959921)
(0.000389348 0 -0.0989825)
(0.000388467 0 -0.101843)
(0.000380074 0 -0.104556)
(0.000363521 0 -0.107102)
(0.000338618 0 -0.10946)
(-0.000740096 0 -0.000606987)
(-0.00073818 0 -0.00137784)
(-0.000734201 0 -0.00204006)
(-0.000729812 0 -0.002711)
(-0.00072495 0 -0.00341992)
(-0.000719829 0 -0.00418383)
(-0.000714423 0 -0.00500654)
(-0.000708558 0 -0.00588749)
(-0.000702039 0 -0.00682584)
(-0.0006947 0 -0.00782202)
(-0.000686423 0 -0.00887764)
(-0.000677128 0 -0.00999501)
(-0.000666752 0 -0.0111767)
(-0.00065524 0 -0.0124256)
(-0.000642535 0 -0.0137443)
(-0.00062858 0 -0.0151359)
(-0.000613316 0 -0.0166035)
(-0.000596682 0 -0.0181503)
(-0.000578615 0 -0.01978)
(-0.000559052 0 -0.0214963)
(-0.000537926 0 -0.0233033)
(-0.00051517 0 -0.0252056)
(-0.000490714 0 -0.0272077)
(-0.000464488 0 -0.0293148)
(-0.00043642 0 -0.0315322)
(-0.00040644 0 -0.0338658)
(-0.000374483 0 -0.0363218)
(-0.000340496 0 -0.0389068)
(-0.000304457 0 -0.0416276)
(-0.000266387 0 -0.0444907)
(-0.000222955 0 -0.0477558)
(-0.000175207 0 -0.0513462)
(-0.000127539 0 -0.0549312)
(-8.01402e-05 0 -0.0585105)
(-3.32855e-05 0 -0.0620826)
(1.26905e-05 0 -0.065644)
(5.74021e-05 0 -0.0691897)
(0.000100418 0 -0.0727133)
(0.000141263 0 -0.0762075)
(0.000179421 0 -0.0796637)
(0.00021433 0 -0.0830724)
(0.000245397 0 -0.0864228)
(0.000272002 0 -0.089703)
(0.000293507 0 -0.0928999)
(0.000309273 0 -0.095999)
(0.00031868 0 -0.0989849)
(0.00032113 0 -0.101841)
(0.00031611 0 -0.104549)
(0.000302976 0 -0.107089)
(0.000281633 0 -0.109441)
(-0.000910141 0 -0.000611421)
(-0.000908473 0 -0.00138701)
(-0.000904542 0 -0.00205188)
(-0.000900188 0 -0.00272415)
(-0.00089524 0 -0.00343356)
(-0.000889903 0 -0.00419768)
(-0.000884183 0 -0.00502074)
(-0.000877946 0 -0.00590235)
(-0.000871024 0 -0.00684167)
(-0.000863261 0 -0.007839)
(-0.000854536 0 -0.00889584)
(-0.00084476 0 -0.0100144)
(-0.000833861 0 -0.0111973)
(-0.000821777 0 -0.0124473)
(-0.000808443 0 -0.0137672)
(-0.000793795 0 -0.0151598)
(-0.000777767 0 -0.0166284)
(-0.000760294 0 -0.0181761)
(-0.000741308 0 -0.0198067)
(-0.00072074 0 -0.0215238)
(-0.000698519 0 -0.0233317)
(-0.000674574 0 -0.0252346)
(-0.00064883 0 -0.0272375)
(-0.000621213 0 -0.0293452)
(-0.000591648 0 -0.0315632)
(-0.00056006 0 -0.0338974)
(-0.000526378 0 -0.0363538)
(-0.000490544 0 -0.0389392)
(-0.000452528 0 -0.0416603)
(-0.000412347 0 -0.0445236)
(-0.000366442 0 -0.0477888)
(-0.000315922 0 -0.0513791)
(-0.000265429 0 -0.054964)
(-0.000215155 0 -0.0585431)
(-0.000165373 0 -0.0621148)
(-0.000116413 0 -0.0656755)
(-6.86558e-05 0 -0.0692202)
(-2.25293e-05 0 -0.0727426)
(2.14987e-05 0 -0.0762351)
(6.29167e-05 0 -0.0796894)
(0.000101172 0 -0.0830958)
(0.000135682 0 -0.0864435)
(0.000165839 0 -0.0897205)
(0.000191021 0 -0.0929138)
(0.000210608 0 -0.096009)
(0.000224002 0 -0.0989905)
(0.000230634 0 -0.101842)
(0.000230022 0 -0.104544)
(0.000221536 0 -0.10708)
(0.00020518 0 -0.109426)
(-0.00109987 0 -0.000615611)
(-0.00109847 0 -0.00139575)
(-0.00109465 0 -0.00206336)
(-0.00109042 0 -0.00273723)
(-0.00108548 0 -0.00344748)
(-0.00108002 0 -0.00421211)
(-0.00107406 0 -0.00503571)
(-0.0010675 0 -0.00591808)
(-0.00106021 0 -0.0068584)
(-0.00105205 0 -0.00785688)
(-0.00104291 0 -0.00891495)
(-0.00103269 0 -0.0100348)
(-0.00102132 0 -0.0112189)
(-0.00100872 0 -0.0124701)
(-0.000994836 0 -0.013791)
(-0.000979583 0 -0.0151847)
(-0.000962896 0 -0.0166543)
(-0.000944703 0 -0.0182031)
(-0.000924931 0 -0.0198346)
(-0.000903509 0 -0.0215526)
(-0.00088036 0 -0.0233613)
(-0.000855409 0 -0.025265)
(-0.000828579 0 -0.0272686)
(-0.00079979 0 -0.029377)
(-0.000768963 0 -0.0315957)
(-0.000736018 0 -0.0339304)
(-0.000700882 0 -0.0363874)
(-0.000663488 0 -0.0389732)
(-0.000623796 0 -0.0416947)
(-0.00058182 0 -0.0445581)
(-0.000533794 0 -0.0478234)
(-0.000480877 0 -0.0514138)
(-0.000427918 0 -0.0549986)
(-0.000375109 0 -0.0585775)
(-0.00032271 0 -0.0621487)
(-0.000271039 0 -0.0657088)
(-0.000220464 0 -0.0692526)
(-0.000171398 0 -0.0727738)
(-0.000124293 0 -0.0762648)
(-7.9643e-05 0 -0.0797173)
(-3.79798e-05 0 -0.0831214)
(1.35817e-07 0 -0.0864664)
(3.41224e-05 0 -0.0897404)
(6.33875e-05 0 -0.0929303)
(8.73416e-05 0 -0.0960216)
(0.000105422 0 -0.0989989)
(0.000117102 0 -0.101845)
(0.000121941 0 -0.104543)
(0.000119337 0 -0.107073)
(0.000109385 0 -0.109414)
(-0.00130972 0 -0.000619517)
(-0.00130859 0 -0.00140395)
(-0.0013049 0 -0.00207431)
(-0.00130084 0 -0.00275)
(-0.00129599 0 -0.00346142)
(-0.00129048 0 -0.0042269)
(-0.00128435 0 -0.0050513)
(-0.00127753 0 -0.00593457)
(-0.00126992 0 -0.00687594)
(-0.00126141 0 -0.0078756)
(-0.00125189 0 -0.0089349)
(-0.00124128 0 -0.010056)
(-0.00122949 0 -0.0112413)
(-0.00121644 0 -0.0124936)
(-0.00120207 0 -0.0138158)
(-0.0011863 0 -0.0152106)
(-0.00116905 0 -0.0166813)
(-0.00115025 0 -0.018231)
(-0.00112982 0 -0.0198635)
(-0.00110769 0 -0.0215824)
(-0.00108377 0 -0.023392)
(-0.00105798 0 -0.0252965)
(-0.00103026 0 -0.0273009)
(-0.0010005 0 -0.02941)
(-0.000968632 0 -0.0316293)
(-0.00093457 0 -0.0339646)
(-0.000898232 0 -0.0364221)
(-0.000859548 0 -0.0390084)
(-0.000818465 0 -0.0417303)
(-0.000774991 0 -0.044594)
(-0.000725176 0 -0.0478594)
(-0.000670218 0 -0.0514498)
(-0.00061513 0 -0.0550346)
(-0.000560101 0 -0.0586134)
(-0.000505372 0 -0.0621842)
(-0.000451239 0 -0.0657437)
(-0.000398048 0 -0.0692867)
(-0.000346189 0 -0.0728068)
(-0.000296087 0 -0.0762964)
(-0.000248208 0 -0.0797471)
(-0.00020305 0 -0.0831491)
(-0.000161142 0 -0.0864917)
(-0.000123026 0 -0.0897629)
(-8.92535e-05 0 -0.0929495)
(-6.03702e-05 0 -0.0960372)
(-3.68909e-05 0 -0.0990105)
(-1.92942e-05 0 -0.101853)
(-7.96315e-06 0 -0.104546)
(-3.45842e-06 0 -0.107071)
(-5.60383e-06 0 -0.109408)
(-0.00154025 0 -0.000623165)
(-0.00153935 0 -0.00141164)
(-0.00153577 0 -0.00208471)
(-0.00153187 0 -0.00276238)
(-0.0015271 0 -0.00347526)
(-0.00152157 0 -0.0042419)
(-0.00151532 0 -0.00506734)
(-0.00150829 0 -0.00595168)
(-0.00150041 0 -0.00689418)
(-0.00149159 0 -0.00789504)
(-0.00148175 0 -0.00895558)
(-0.00147079 0 -0.0100779)
(-0.00145864 0 -0.0112645)
(-0.00144521 0 -0.012518)
(-0.00143044 0 -0.0138413)
(-0.00141423 0 -0.0152373)
(-0.00139651 0 -0.016709)
(-0.00137721 0 -0.0182598)
(-0.00135624 0 -0.0198933)
(-0.00133352 0 -0.0216131)
(-0.00130898 0 -0.0234236)
(-0.00128252 0 -0.025329)
(-0.00125407 0 -0.0273341)
(-0.00122354 0 -0.0294439)
(-0.00119084 0 -0.0316639)
(-0.00115589 0 -0.0339999)
(-0.00111859 0 -0.036458)
(-0.00107887 0 -0.0390447)
(-0.00103666 0 -0.041767)
(-0.000991967 0 -0.044631)
(-0.00094068 0 -0.0478965)
(-0.000884021 0 -0.0514871)
(-0.000827123 0 -0.055072)
(-0.000770172 0 -0.0586506)
(-0.000713379 0 -0.0622212)
(-0.000657013 0 -0.0657803)
(-0.000601388 0 -0.0693225)
(-0.000546862 0 -0.0728417)
(-0.000493823 0 -0.0763301)
(-0.000442699 0 -0.0797792)
(-0.000393944 0 -0.0831794)
(-0.00034804 0 -0.0865197)
(-0.000305482 0 -0.0897883)
(-0.000266767 0 -0.092972)
(-0.000232386 0 -0.0960565)
(-0.000202796 0 -0.0990262)
(-0.000178416 0 -0.101865)
(-0.000159562 0 -0.104554)
(-0.000146741 0 -0.107075)
(-0.0001397 0 -0.109407)
(-0.00179194 0 -0.000626641)
(-0.0017912 0 -0.00141898)
(-0.00178766 0 -0.00209472)
(-0.00178386 0 -0.00277448)
(-0.00177913 0 -0.00348903)
(-0.00177357 0 -0.00425707)
(-0.00176721 0 -0.00508377)
(-0.00176 0 -0.00596931)
(-0.00175189 0 -0.00691302)
(-0.00174281 0 -0.00791512)
(-0.00173269 0 -0.0089769)
(-0.00172144 0 -0.0101004)
(-0.00170899 0 -0.0112883)
(-0.00169524 0 -0.012543)
(-0.00168013 0 -0.0138675)
(-0.00166357 0 -0.0152646)
(-0.00164547 0 -0.0167374)
(-0.00162577 0 -0.0182893)
(-0.00160437 0 -0.0199237)
(-0.0015812 0 -0.0216446)
(-0.00155617 0 -0.0234559)
(-0.00152919 0 -0.0253621)
(-0.00150019 0 -0.027368)
(-0.00146906 0 -0.0294787)
(-0.00143573 0 -0.0316994)
(-0.00140009 0 -0.034036)
(-0.00136206 0 -0.0364946)
(-0.00132154 0 -0.0390819)
(-0.00127847 0 -0.0418046)
(-0.00123283 0 -0.0446689)
(-0.00118037 0 -0.0479347)
(-0.00112234 0 -0.0515255)
(-0.00106394 0 -0.0551105)
(-0.00100535 0 -0.0586891)
(-0.000946751 0 -0.0622596)
(-0.000888368 0 -0.0658183)
(-0.000830481 0 -0.0693601)
(-0.000773403 0 -0.0728784)
(-0.00071748 0 -0.0763658)
(-0.000663086 0 -0.0798136)
(-0.000610622 0 -0.0832122)
(-0.000560516 0 -0.0865507)
(-0.000513199 0 -0.089817)
(-0.000469107 0 -0.0929982)
(-0.000428665 0 -0.0960798)
(-0.00039226 0 -0.0990464)
(-0.000360241 0 -0.101881)
(-0.000332848 0 -0.104567)
(-0.000310519 0 -0.107085)
(-0.000292936 0 -0.109413)
(-0.00206511 0 -0.000630061)
(-0.00206448 0 -0.00142618)
(-0.0020609 0 -0.00210458)
(-0.00205712 0 -0.0027865)
(-0.00205236 0 -0.00350285)
(-0.00204673 0 -0.00427245)
(-0.00204025 0 -0.00510055)
(-0.00203287 0 -0.0059874)
(-0.00202457 0 -0.00693237)
(-0.00201527 0 -0.00793572)
(-0.00200492 0 -0.00899874)
(-0.00199343 0 -0.0101235)
(-0.00198073 0 -0.0113126)
(-0.00196672 0 -0.0125685)
(-0.00195134 0 -0.0138941)
(-0.0019345 0 -0.0152924)
(-0.00191611 0 -0.0167663)
(-0.0018961 0 -0.0183192)
(-0.00187438 0 -0.0199547)
(-0.00185087 0 -0.0216765)
(-0.00182548 0 -0.0234887)
(-0.00179813 0 -0.0253959)
(-0.00176874 0 -0.0274026)
(-0.00173719 0 -0.0295139)
(-0.00170341 0 -0.0317354)
(-0.0016673 0 -0.0340726)
(-0.00162876 0 -0.0365319)
(-0.00158769 0 -0.0391197)
(-0.00154399 0 -0.0418429)
(-0.00149767 0 -0.0447076)
(-0.00144434 0 -0.0479737)
(-0.00138526 0 -0.0515647)
(-0.00132567 0 -0.05515)
(-0.00126572 0 -0.0587287)
(-0.00120557 0 -0.0622992)
(-0.00114538 0 -0.0658578)
(-0.0010854 0 -0.0693992)
(-0.00102589 0 -0.072917)
(-0.000967133 0 -0.0764036)
(-0.000909447 0 -0.0798504)
(-0.000853168 0 -0.0832477)
(-0.000798656 0 -0.0865847)
(-0.000746272 0 -0.0898493)
(-0.000696378 0 -0.0930284)
(-0.000649321 0 -0.0961077)
(-0.000605411 0 -0.0990718)
(-0.000564913 0 -0.101904)
(-0.000527984 0 -0.104587)
(-0.000494977 0 -0.107102)
(-0.00046552 0 -0.109427)
(-0.00236 0 -0.000633523)
(-0.00235943 0 -0.00143344)
(-0.00235574 0 -0.00211452)
(-0.00235191 0 -0.00279865)
(-0.00234707 0 -0.00351688)
(-0.00234132 0 -0.00428813)
(-0.0023347 0 -0.00511771)
(-0.00232716 0 -0.00600591)
(-0.00231867 0 -0.00695217)
(-0.00230919 0 -0.00795676)
(-0.00229864 0 -0.00902103)
(-0.00228696 0 -0.010147)
(-0.00227406 0 -0.0113373)
(-0.00225985 0 -0.0125944)
(-0.00224426 0 -0.0139212)
(-0.00222721 0 -0.0153206)
(-0.00220861 0 -0.0167956)
(-0.00218838 0 -0.0183496)
(-0.00216645 0 -0.019986)
(-0.00214271 0 -0.0217088)
(-0.0021171 0 -0.023522)
(-0.00208952 0 -0.0254299)
(-0.00205988 0 -0.0274375)
(-0.00202809 0 -0.0295496)
(-0.00199405 0 -0.0317718)
(-0.00195767 0 -0.0341097)
(-0.00191883 0 -0.0365696)
(-0.00187744 0 -0.039158)
(-0.00183338 0 -0.0418817)
(-0.00178664 0 -0.0447468)
(-0.00173275 0 -0.0480133)
(-0.00167294 0 -0.0516046)
(-0.00161246 0 -0.0551902)
(-0.00155145 0 -0.0587692)
(-0.00149 0 -0.0623398)
(-0.00142824 0 -0.0658984)
(-0.00136635 0 -0.0694397)
(-0.00130453 0 -0.0729572)
(-0.001243 0 -0.0764434)
(-0.00118201 0 -0.0798896)
(-0.00112182 0 -0.0832861)
(-0.00106272 0 -0.0866219)
(-0.00100497 0 -0.0898852)
(-0.000948867 0 -0.0930628)
(-0.000894658 0 -0.0961405)
(-0.000842567 0 -0.0991027)
(-0.000792769 0 -0.101933)
(-0.000745326 0 -0.104614)
(-0.000700491 0 -0.107126)
(-0.000657847 0 -0.10945)
(-0.0026768 0 -0.000637091)
(-0.00267625 0 -0.00144089)
(-0.00267242 0 -0.00212471)
(-0.0026685 0 -0.00281108)
(-0.00266352 0 -0.00353125)
(-0.00265763 0 -0.00430418)
(-0.00265085 0 -0.00513526)
(-0.00264315 0 -0.00602482)
(-0.00263449 0 -0.00697236)
(-0.00262483 0 -0.0079782)
(-0.00261412 0 -0.00904368)
(-0.00260228 0 -0.0101709)
(-0.00258922 0 -0.0113623)
(-0.00257487 0 -0.0126206)
(-0.00255913 0 -0.0139486)
(-0.00254194 0 -0.0153491)
(-0.0025232 0 -0.0168252)
(-0.00250285 0 -0.0183802)
(-0.00248079 0 -0.0200176)
(-0.00245694 0 -0.0217413)
(-0.00243123 0 -0.0235554)
(-0.00240356 0 -0.0254642)
(-0.00237383 0 -0.0274725)
(-0.00234197 0 -0.0295854)
(-0.00230787 0 -0.0318083)
(-0.00227142 0 -0.0341469)
(-0.00223252 0 -0.0366074)
(-0.00219104 0 -0.0391964)
(-0.00214688 0 -0.0419206)
(-0.00209998 0 -0.0447863)
(-0.00204584 0 -0.0480532)
(-0.00198564 0 -0.051645)
(-0.0019246 0 -0.0552309)
(-0.00186283 0 -0.0588103)
(-0.00180036 0 -0.0623813)
(-0.00173727 0 -0.0659402)
(-0.00167366 0 -0.0694816)
(-0.00160968 0 -0.0729992)
(-0.00154546 0 -0.0764853)
(-0.00148117 0 -0.0799312)
(-0.001417 0 -0.0833273)
(-0.00135313 0 -0.0866626)
(-0.00128975 0 -0.0899252)
(-0.00122704 0 -0.0931019)
(-0.00116516 0 -0.0961785)
(-0.00110424 0 -0.0991397)
(-0.00104434 0 -0.101969)
(-0.000985421 0 -0.104649)
(-0.000927625 0 -0.10716)
(-0.000870493 0 -0.109483)
(-0.0030157 0 -0.000640794)
(-0.00301517 0 -0.00144861)
(-0.00301116 0 -0.00213523)
(-0.00300714 0 -0.0028239)
(-0.00300202 0 -0.00354602)
(-0.00299597 0 -0.00432065)
(-0.00298903 0 -0.00515323)
(-0.00298115 0 -0.00604414)
(-0.00297233 0 -0.00699293)
(-0.00296253 0 -0.00799997)
(-0.00295167 0 -0.00906663)
(-0.0029397 0 -0.010195)
(-0.00292652 0 -0.0113876)
(-0.00291206 0 -0.0126471)
(-0.00289624 0 -0.0139761)
(-0.00287897 0 -0.0153777)
(-0.00286017 0 -0.0168548)
(-0.00283977 0 -0.0184109)
(-0.00281769 0 -0.0200493)
(-0.00279385 0 -0.0217739)
(-0.00276816 0 -0.0235888)
(-0.00274054 0 -0.0254985)
(-0.00271089 0 -0.0275076)
(-0.00267913 0 -0.0296212)
(-0.00264516 0 -0.0318448)
(-0.00260885 0 -0.0341841)
(-0.00257011 0 -0.0366453)
(-0.00252881 0 -0.0392348)
(-0.00248479 0 -0.0419596)
(-0.00243803 0 -0.0448257)
(-0.00238395 0 -0.0480931)
(-0.00232373 0 -0.0516855)
(-0.00226246 0 -0.055272)
(-0.00220025 0 -0.058852)
(-0.00213706 0 -0.0624235)
(-0.00207289 0 -0.0659829)
(-0.00200779 0 -0.0695247)
(-0.00194181 0 -0.0730427)
(-0.001875 0 -0.0765291)
(-0.00180746 0 -0.0799752)
(-0.00173925 0 -0.0833714)
(-0.00167047 0 -0.0867067)
(-0.0016012 0 -0.0899693)
(-0.00153152 0 -0.0931458)
(-0.00146148 0 -0.0962223)
(-0.00139109 0 -0.0991832)
(-0.0013203 0 -0.102012)
(-0.00124897 0 -0.104692)
(-0.00117709 0 -0.107203)
(-0.00110418 0 -0.109526)
(-0.00337686 0 -0.000644635)
(-0.00337635 0 -0.0014566)
(-0.00337218 0 -0.0021461)
(-0.00336807 0 -0.00283711)
(-0.0033628 0 -0.0035612)
(-0.00335661 0 -0.00433754)
(-0.00334952 0 -0.00517159)
(-0.0033415 0 -0.00606383)
(-0.00333253 0 -0.00701384)
(-0.00332259 0 -0.00802203)
(-0.00331162 0 -0.00908984)
(-0.00329954 0 -0.0102194)
(-0.00328628 0 -0.0114131)
(-0.00327176 0 -0.0126736)
(-0.0032559 0 -0.0140038)
(-0.00323862 0 -0.0154064)
(-0.00321984 0 -0.0168845)
(-0.00319949 0 -0.0184415)
(-0.00317749 0 -0.0200809)
(-0.00315376 0 -0.0218064)
(-0.00312822 0 -0.0236221)
(-0.0031008 0 -0.0255326)
(-0.00307139 0 -0.0275425)
(-0.00303991 0 -0.0296568)
(-0.00300626 0 -0.0318811)
(-0.00297032 0 -0.034221)
(-0.00293198 0 -0.0366828)
(-0.0028911 0 -0.039273)
(-0.00284752 0 -0.0419983)
(-0.00280118 0 -0.044865)
(-0.0027475 0 -0.048133)
(-0.00268761 0 -0.051726)
(-0.00262648 0 -0.0553132)
(-0.00256417 0 -0.0588939)
(-0.00250058 0 -0.0624662)
(-0.00243562 0 -0.0660263)
(-0.00236927 0 -0.069569)
(-0.00230148 0 -0.0730877)
(-0.00223221 0 -0.0765748)
(-0.00216146 0 -0.0800217)
(-0.00208919 0 -0.0834186)
(-0.00201538 0 -0.0867546)
(-0.00194 0 -0.0900177)
(-0.00186301 0 -0.093195)
(-0.00178433 0 -0.0962721)
(-0.00170386 0 -0.0992337)
(-0.00162143 0 -0.102064)
(-0.00153675 0 -0.104744)
(-0.0014497 0 -0.107257)
(-0.00135974 0 -0.109581)
(-0.00376041 0 -0.000648597)
(-0.00375994 0 -0.00146481)
(-0.00375563 0 -0.00215725)
(-0.00375146 0 -0.00285063)
(-0.00374609 0 -0.00357671)
(-0.00373979 0 -0.00435476)
(-0.00373259 0 -0.0051903)
(-0.00372445 0 -0.00608384)
(-0.00371537 0 -0.00703503)
(-0.00370533 0 -0.00804435)
(-0.00369427 0 -0.00911325)
(-0.00368212 0 -0.0102439)
(-0.00366882 0 -0.0114387)
(-0.00365429 0 -0.0127003)
(-0.00363844 0 -0.0140314)
(-0.00362122 0 -0.015435)
(-0.00360253 0 -0.0169141)
(-0.00358232 0 -0.018472)
(-0.0035605 0 -0.0201123)
(-0.00353701 0 -0.0218386)
(-0.00351176 0 -0.0236551)
(-0.00348468 0 -0.0255663)
(-0.00345568 0 -0.0275769)
(-0.00342467 0 -0.029692)
(-0.00339155 0 -0.0319169)
(-0.0033562 0 -0.0342575)
(-0.0033185 0 -0.0367199)
(-0.0032783 0 -0.0393106)
(-0.00323544 0 -0.0420366)
(-0.00318983 0 -0.0449038)
(-0.00313691 0 -0.0481725)
(-0.00307774 0 -0.0517662)
(-0.00301712 0 -0.0553543)
(-0.00295507 0 -0.0589359)
(-0.00289141 0 -0.0625092)
(-0.00282597 0 -0.0660704)
(-0.00275863 0 -0.0696142)
(-0.00268924 0 -0.073134)
(-0.00261767 0 -0.0766224)
(-0.00254379 0 -0.0800706)
(-0.00246746 0 -0.0834688)
(-0.00238852 0 -0.0868061)
(-0.00230683 0 -0.0900708)
(-0.00222222 0 -0.0932495)
(-0.00213446 0 -0.0963283)
(-0.00204332 0 -0.0992917)
(-0.00194851 0 -0.102123)
(-0.0018496 0 -0.104806)
(-0.00174629 0 -0.107321)
(-0.00163803 0 -0.109648)
(-0.00416645 0 -0.000652636)
(-0.00416605 0 -0.00147316)
(-0.00416162 0 -0.00216857)
(-0.00415745 0 -0.00286435)
(-0.00415203 0 -0.00359244)
(-0.00414567 0 -0.00437221)
(-0.00413841 0 -0.00520923)
(-0.00413021 0 -0.00610407)
(-0.00412107 0 -0.00705643)
(-0.00411097 0 -0.00806684)
(-0.00409987 0 -0.00913679)
(-0.0040877 0 -0.0102684)
(-0.00407441 0 -0.0114642)
(-0.00405992 0 -0.0127268)
(-0.00404416 0 -0.014059)
(-0.00402706 0 -0.0154635)
(-0.00400855 0 -0.0169435)
(-0.00398857 0 -0.0185023)
(-0.00396704 0 -0.0201433)
(-0.0039439 0 -0.0218704)
(-0.00391908 0 -0.0236877)
(-0.0038925 0 -0.0255996)
(-0.00386408 0 -0.0276108)
(-0.00383372 0 -0.0297265)