/*--------------------------------*- C++ -*----------------------------------*\
  =========                 |
  \\      /  F ield         | OpenFOAM: The Open Source CFD Toolbox
   \\    /   O peration     | Website:  https://openfoam.org
    \\  /    A nd           | Version:  9
     \\/     M anipulation  |
\*---------------------------------------------------------------------------*/
FoamFile
{
    format      ascii;
    class       surfaceVectorField;
    location    "0.02";
    object      Uf;
}
// * * * * * * * * * * * * * * * * * * * * * * * * * * * * * * * * * * * * * //

dimensions      [0 1 -1 0 0 0 0];

internalField   nonuniform List<vector> 
9850
(
(-3.86967e-06 0 -0.000930748)
(-1.72366e-05 0 -0.000568109)
(-3.79043e-06 0 -0.00162758)
(-1.4281e-05 0 -0.001311)
(-3.52565e-06 0 -0.00228211)
(-1.43224e-05 0 -0.00195737)
(-2.72881e-06 0 -0.00296886)
(-1.34019e-05 0 -0.00262203)
(-1.86898e-06 0 -0.0037079)
(-1.18079e-05 0 -0.00333338)
(-1.0708e-06 0 -0.00450311)
(-1.03051e-05 0 -0.00410116)
(-3.03844e-07 0 -0.00535331)
(-8.91149e-06 0 -0.00492469)
(4.89161e-07 0 -0.0062581)
(-7.52442e-06 0 -0.00580272)
(1.34261e-06 0 -0.00721869)
(-6.05672e-06 0 -0.00673573)
(2.26918e-06 0 -0.0082373)
(-4.46738e-06 0 -0.00772557)
(3.27164e-06 0 -0.00931653)
(-2.74189e-06 0 -0.00877475)
(4.35066e-06 0 -0.0104591)
(-8.75065e-07 0 -0.00988594)
(5.50756e-06 0 -0.0116676)
(1.13702e-06 0 -0.0110618)
(6.74469e-06 0 -0.012945)
(3.29932e-06 0 -0.0123052)
(8.06499e-06 0 -0.014294)
(5.61781e-06 0 -0.0136188)
(9.47186e-06 0 -0.0157176)
(8.09925e-06 0 -0.0150055)
(1.09693e-05 0 -0.0172191)
(1.07512e-05 0 -0.0164685)
(1.25617e-05 0 -0.0188018)
(1.35821e-05 0 -0.018011)
(1.42544e-05 0 -0.0204694)
(1.6601e-05 0 -0.0196366)
(1.6053e-05 0 -0.0222259)
(1.9818e-05 0 -0.0213491)
(1.79636e-05 0 -0.0240755)
(2.3244e-05 0 -0.0231526)
(1.99931e-05 0 -0.0260227)
(2.68909e-05 0 -0.0250515)
(2.21491e-05 0 -0.0280725)
(3.07714e-05 0 -0.0270505)
(2.44396e-05 0 -0.0302301)
(3.48994e-05 0 -0.0291547)
(2.68733e-05 0 -0.0325011)
(3.92893e-05 0 -0.0313695)
(2.94598e-05 0 -0.0348914)
(4.39566e-05 0 -0.0337006)
(3.22093e-05 0 -0.0374076)
(4.89175e-05 0 -0.0361543)
(3.51301e-05 0 -0.0400567)
(5.41854e-05 0 -0.0387374)
(3.82271e-05 0 -0.0428454)
(5.9772e-05 0 -0.041457)
(4.15072e-05 0 -0.0457788)
(6.57123e-05 0 -0.0443198)
(4.5267e-05 0 -0.0493707)
(7.22775e-05 0 -0.0475857)
(4.90775e-05 0 -0.0529582)
(7.93422e-05 0 -0.0511767)
(5.28978e-05 0 -0.0565408)
(8.64686e-05 0 -0.0547626)
(5.66941e-05 0 -0.060118)
(9.35676e-05 0 -0.0583438)
(6.04262e-05 0 -0.0636876)
(0.000100572 0 -0.061919)
(6.40506e-05 0 -0.0672456)
(0.000107411 0 -0.0654849)
(6.75205e-05 0 -0.0707865)
(0.000114002 0 -0.0690369)
(7.0785e-05 0 -0.0743037)
(0.000120256 0 -0.0725687)
(7.3788e-05 0 -0.0777894)
(0.000126078 0 -0.0760731)
(7.64676e-05 0 -0.0812347)
(0.000131359 0 -0.0795419)
(7.87556e-05 0 -0.0846297)
(0.000135981 0 -0.0829655)
(8.05775e-05 0 -0.0879631)
(0.000139816 0 -0.0863335)
(8.18533e-05 0 -0.0912226)
(0.000142723 0 -0.089634)
(8.24987e-05 0 -0.0943944)
(0.000144556 0 -0.092854)
(8.24271e-05 0 -0.0974635)
(0.00014516 0 -0.0959791)
(8.15517e-05 0 -0.100414)
(0.000144381 0 -0.0989937)
(7.97839e-05 0 -0.103228)
(0.000142062 0 -0.101881)
(7.703e-05 0 -0.105887)
(0.000138045 0 -0.104623)
(7.31955e-05 0 -0.10837)
(0.000132166 0 -0.1072)
(0.000124262 0 -0.10959)
(-2.66875e-05 0 -0.00093105)
(-4.55749e-05 0 -0.000572625)
(-2.58457e-05 0 -0.00162617)
(-4.19996e-05 0 -0.00131361)
(-2.45604e-05 0 -0.00228259)
(-4.1318e-05 0 -0.00196118)
(-2.24675e-05 0 -0.00297105)
(-3.94552e-05 0 -0.00262794)
(-2.02584e-05 0 -0.00371007)
(-3.6856e-05 0 -0.00333932)
(-1.81801e-05 0 -0.00450507)
(-3.43698e-05 0 -0.00410648)
(-1.6178e-05 0 -0.00535535)
(-3.20099e-05 0 -0.00492957)
(-1.4122e-05 0 -0.00626053)
(-2.96126e-05 0 -0.0058075)
(-1.19219e-05 0 -0.00722168)
(-2.70471e-05 0 -0.0067406)
(-9.53604e-06 0 -0.00824094)
(-2.4247e-05 0 -0.00773061)
(-6.94869e-06 0 -0.00932087)
(-2.11849e-05 0 -0.00877997)
(-4.15176e-06 0 -0.0104642)
(-1.78484e-05 0 -0.00989132)
(-1.13766e-06 0 -0.0116735)
(-1.42284e-05 0 -0.0110674)
(2.10229e-06 0 -0.0129518)
(-1.03145e-05 0 -0.0123109)
(5.57801e-06 0 -0.0143017)
(-6.09466e-06 0 -0.0136246)
(9.30042e-06 0 -0.0157263)
(-1.55549e-06 0 -0.0150114)
(1.32814e-05 0 -0.0172289)
(3.3176e-06 0 -0.0164745)
(1.7534e-05 0 -0.0188127)
(8.54059e-06 0 -0.0180172)
(2.20722e-05 0 -0.0204816)
(1.41306e-05 0 -0.0196429)
(2.69112e-05 0 -0.0222394)
(2.01061e-05 0 -0.0213555)
(3.20678e-05 0 -0.0240904)
(2.64873e-05 0 -0.0231591)
(3.75597e-05 0 -0.0260392)
(3.32959e-05 0 -0.0250581)
(4.3406e-05 0 -0.0280906)
(4.05549e-05 0 -0.0270572)
(4.96269e-05 0 -0.0302498)
(4.82887e-05 0 -0.0291615)
(5.62438e-05 0 -0.0325226)
(5.65227e-05 0 -0.0313763)
(6.32786e-05 0 -0.0349148)
(6.5283e-05 0 -0.0337075)
(7.07534e-05 0 -0.0374331)
(7.45965e-05 0 -0.0361613)
(7.86856e-05 0 -0.0400843)
(8.4482e-05 0 -0.0387445)
(8.70786e-05 0 -0.0428753)
(9.49454e-05 0 -0.0414642)
(9.59258e-05 0 -0.0458112)
(0.000106026 0 -0.044327)
(0.000106322 0 -0.0494061)
(0.000118428 0 -0.0475926)
(0.000116753 0 -0.0529966)
(0.000131882 0 -0.0511836)
(0.000127168 0 -0.0565822)
(0.000145351 0 -0.0547696)
(0.000137492 0 -0.0601623)
(0.000158727 0 -0.0583507)
(0.000147623 0 -0.0637349)
(0.000171907 0 -0.0619257)
(0.000157449 0 -0.0672959)
(0.000184763 0 -0.0654915)
(0.000166848 0 -0.0708398)
(0.000197149 0 -0.0690431)
(0.000175687 0 -0.07436)
(0.000208903 0 -0.0725746)
(0.000183815 0 -0.0778486)
(0.000219844 0 -0.0760785)
(0.00019107 0 -0.0812968)
(0.000229777 0 -0.0795467)
(0.000197273 0 -0.0846946)
(0.000238483 0 -0.0829697)
(0.000202229 0 -0.0880308)
(0.000245728 0 -0.0863368)
(0.000205731 0 -0.091293)
(0.000251257 0 -0.0896364)
(0.000207561 0 -0.0944674)
(0.000254803 0 -0.0928552)
(0.000207496 0 -0.097539)
(0.000256089 0 -0.0959791)
(0.000205311 0 -0.100492)
(0.000254834 0 -0.0989923)
(0.000200782 0 -0.103308)
(0.000250759 0 -0.101878)
(0.000193675 0 -0.105969)
(0.000243585 0 -0.104618)
(0.000183758 0 -0.108454)
(0.000233024 0 -0.107193)
(0.000218795 0 -0.109581)
(-6.01679e-05 0 -0.000936957)
(-8.46548e-05 0 -0.000577057)
(-5.86244e-05 0 -0.00163238)
(-8.18726e-05 0 -0.00131841)
(-5.64968e-05 0 -0.00229011)
(-8.02033e-05 0 -0.00196747)
(-5.38336e-05 0 -0.00297913)
(-7.75985e-05 0 -0.00263545)
(-5.10279e-05 0 -0.00371774)
(-7.45176e-05 0 -0.00334686)
(-4.82792e-05 0 -0.00451209)
(-7.15318e-05 0 -0.00411351)
(-4.55253e-05 0 -0.00536199)
(-6.85972e-05 0 -0.00493628)
(-4.26223e-05 0 -0.00626705)
(-6.55265e-05 0 -0.00581424)
(-3.94625e-05 0 -0.00722824)
(-6.21749e-05 0 -0.0067476)
(-3.59916e-05 0 -0.00824756)
(-5.8463e-05 0 -0.00773794)
(-3.21862e-05 0 -0.00932754)
(-5.43549e-05 0 -0.00878763)
(-2.80332e-05 0 -0.0104709)
(-4.98341e-05 0 -0.0098993)
(-2.35204e-05 0 -0.0116802)
(-4.48878e-05 0 -0.0110757)
(-1.8634e-05 0 -0.0129584)
(-3.95015e-05 0 -0.0123194)
(-1.33585e-05 0 -0.0143083)
(-3.36587e-05 0 -0.0136334)
(-7.67679e-06 0 -0.0157329)
(-2.73403e-05 0 -0.0150205)
(-1.57041e-06 0 -0.0172354)
(-2.0526e-05 0 -0.0164838)
(4.98054e-06 0 -0.0188191)
(-1.31933e-05 0 -0.0180267)
(1.19979e-05 0 -0.0204879)
(-5.31791e-06 0 -0.0196526)
(1.95053e-05 0 -0.0222455)
(3.12591e-06 0 -0.0213654)
(2.75277e-05 0 -0.0240964)
(1.21664e-05 0 -0.0231692)
(3.60921e-05 0 -0.0260449)
(2.18337e-05 0 -0.0250684)
(4.52271e-05 0 -0.0280961)
(3.21594e-05 0 -0.0270677)
(5.49622e-05 0 -0.0302552)
(4.31767e-05 0 -0.0291721)
(6.53281e-05 0 -0.0325277)
(5.49198e-05 0 -0.0313871)
(7.63551e-05 0 -0.0349197)
(6.74232e-05 0 -0.0337184)
(8.8071e-05 0 -0.0374376)
(8.07207e-05 0 -0.0361724)
(0.000100493 0 -0.0400885)
(9.48353e-05 0 -0.0387557)
(0.0001136 0 -0.0428791)
(0.000109757 0 -0.0414754)
(0.000127288 0 -0.0458146)
(0.000125496 0 -0.0443381)
(0.000144005 0 -0.0494088)
(0.000143302 0 -0.0476037)
(0.000160526 0 -0.0529986)
(0.000162756 0 -0.0511946)
(0.000176953 0 -0.0565834)
(0.000182113 0 -0.0547805)
(0.000193204 0 -0.0601627)
(0.000201297 0 -0.0583615)
(0.000209133 0 -0.0637344)
(0.000220186 0 -0.0619363)
(0.000224576 0 -0.0672943)
(0.000238604 0 -0.0655018)
(0.000239345 0 -0.0708371)
(0.000256348 0 -0.069053)
(0.000253235 0 -0.0743559)
(0.000273191 0 -0.0725838)
(0.000266016 0 -0.0778431)
(0.000288882 0 -0.0760871)
(0.000277438 0 -0.0812897)
(0.000303146 0 -0.0795543)
(0.000287228 0 -0.0846857)
(0.00031568 0 -0.0829762)
(0.000295089 0 -0.0880199)
(0.000326157 0 -0.086342)
(0.000300708 0 -0.0912799)
(0.000334224 0 -0.0896401)
(0.000303756 0 -0.094452)
(0.000339513 0 -0.0928573)
(0.000303898 0 -0.0975211)
(0.000341644 0 -0.0959792)
(0.000300798 0 -0.100471)
(0.000340231 0 -0.0989902)
(0.00029412 0 -0.103284)
(0.000334895 0 -0.101874)
(0.000283531 0 -0.105942)
(0.000325265 0 -0.104611)
(0.000268692 0 -0.108424)
(0.000310942 0 -0.107183)
(0.000291589 0 -0.109568)
(-0.00010623 0 -0.000940871)
(-0.000139168 0 -0.000580453)
(-0.000104154 0 -0.00163812)
(-0.000136522 0 -0.00132486)
(-0.000101415 0 -0.00229698)
(-0.000133873 0 -0.00197558)
(-9.8302e-05 0 -0.0029863)
(-0.000130603 0 -0.00264422)
(-9.51177e-05 0 -0.00372448)
(-0.000127074 0 -0.0033554)
(-9.19537e-05 0 -0.00451829)
(-0.000123656 0 -0.00412159)
(-8.86985e-05 0 -0.00536792)
(-0.000120238 0 -0.0049442)
(-8.51848e-05 0 -0.00627299)
(-0.000116606 0 -0.00582239)
(-8.12896e-05 0 -0.00723431)
(-0.000112594 0 -0.00675622)
(-7.69491e-05 0 -0.00825379)
(-0.000108106 0 -0.00774711)
(-7.21346e-05 0 -0.00933389)
(-0.000103095 0 -0.00879733)
(-6.68302e-05 0 -0.0104773)
(-9.7538e-05 0 -0.0099095)
(-6.10207e-05 0 -0.0116867)
(-9.14192e-05 0 -0.0110863)
(-5.46888e-05 0 -0.0129648)
(-8.47196e-05 0 -0.0123305)
(-4.78145e-05 0 -0.0143146)
(-7.74178e-05 0 -0.0136449)
(-4.03756e-05 0 -0.015739)
(-6.94897e-05 0 -0.0150324)
(-3.23478e-05 0 -0.0172413)
(-6.09091e-05 0 -0.016496)
(-2.37046e-05 0 -0.0188248)
(-5.16475e-05 0 -0.0180392)
(-1.44173e-05 0 -0.0204932)
(-4.16739e-05 0 -0.0196655)
(-4.45538e-06 0 -0.0222505)
(-3.09555e-05 0 -0.0213786)
(6.2142e-06 0 -0.0241009)
(-1.94567e-05 0 -0.0231826)
(1.76263e-05 0 -0.026049)
(-7.13993e-06 0 -0.0250821)
(2.98176e-05 0 -0.0280997)
(6.03439e-06 0 -0.0270816)
(4.28261e-05 0 -0.0302581)
(2.01073e-05 0 -0.0291862)
(5.66902e-05 0 -0.03253)
(3.51206e-05 0 -0.0314014)
(7.1447e-05 0 -0.0349212)
(5.11158e-05 0 -0.033733)
(8.71274e-05 0 -0.0374383)
(6.81331e-05 0 -0.0361871)
(0.000103745 0 -0.0400883)
(8.62015e-05 0 -0.0387706)
(0.000121276 0 -0.0428778)
(0.00010531 0 -0.0414904)
(0.000139637 0 -0.0458119)
(0.000125443 0 -0.0443531)
(0.000162113 0 -0.0494045)
(0.000148286 0 -0.0476187)
(0.000184388 0 -0.0529928)
(0.000173304 0 -0.0512095)
(0.000206498 0 -0.0565762)
(0.000198169 0 -0.0547953)
(0.000228338 0 -0.0601539)
(0.000222808 0 -0.0583761)
(0.000249736 0 -0.0637238)
(0.000247062 0 -0.0619506)
(0.000270478 0 -0.0672818)
(0.000270712 0 -0.0655156)
(0.000290322 0 -0.0708225)
(0.000293504 0 -0.0690662)
(0.000308996 0 -0.0743391)
(0.000315157 0 -0.0725963)
(0.000326202 0 -0.0778238)
(0.000335356 0 -0.0760985)
(0.000341612 0 -0.0812677)
(0.000353756 0 -0.0795646)
(0.00035487 0 -0.0846608)
(0.000369982 0 -0.082985)
(0.000365591 0 -0.0879919)
(0.000383625 0 -0.0863492)
(0.000373368 0 -0.0912485)
(0.000394251 0 -0.0896453)
(0.00037778 0 -0.0944169)
(0.000401405 0 -0.0928602)
(0.000378395 0 -0.0974821)
(0.00040462 0 -0.0959796)
(0.000374786 0 -0.100428)
(0.000403424 0 -0.0989878)
(0.000366524 0 -0.103237)
(0.000397357 0 -0.101868)
(0.000353196 0 -0.10589)
(0.000385981 0 -0.104602)
(0.000334398 0 -0.108367)
(0.000368797 0 -0.107171)
(0.000345454 0 -0.109552)
(-0.000169457 0 -0.000946603)
(-0.000210717 0 -0.000584851)
(-0.000166669 0 -0.00164666)
(-0.000207865 0 -0.00133352)
(-0.000163164 0 -0.00230662)
(-0.000204383 0 -0.00198595)
(-0.000159421 0 -0.00299598)
(-0.000200488 0 -0.00265477)
(-0.000155712 0 -0.00373374)
(-0.000196475 0 -0.00336535)
(-0.000152046 0 -0.00452726)
(-0.000192596 0 -0.00413096)
(-0.000148254 0 -0.00537698)
(-0.000188697 0 -0.00495344)
(-0.000144134 0 -0.00628247)
(-0.000184534 0 -0.00583196)
(-0.000139541 0 -0.00724438)
(-0.000179914 0 -0.00676639)
(-0.000134394 0 -0.00826446)
(-0.000174722 0 -0.00775798)
(-0.000128654 0 -0.00934514)
(-0.000168898 0 -0.0088089)
(-0.000122296 0 -0.0104891)
(-0.000162412 0 -0.00992172)
(-0.000115301 0 -0.0116989)
(-0.00015524 0 -0.0110991)
(-0.000107646 0 -0.0129775)
(-0.000147358 0 -0.0123439)
(-9.93054e-05 0 -0.0143277)
(-0.000138739 0 -0.0136588)
(-9.02516e-05 0 -0.0157524)
(-0.000129354 0 -0.0150468)
(-8.04542e-05 0 -0.017255)
(-0.00011917 0 -0.016511)
(-6.98803e-05 0 -0.0188388)
(-0.000108152 0 -0.0180546)
(-5.84945e-05 0 -0.0205074)
(-9.62629e-05 0 -0.0196812)
(-4.6259e-05 0 -0.0222649)
(-8.34636e-05 0 -0.0213947)
(-3.31336e-05 0 -0.0241155)
(-6.97114e-05 0 -0.0231992)
(-1.90759e-05 0 -0.0260637)
(-5.49617e-05 0 -0.0250989)
(-4.04168e-06 0 -0.0281144)
(-3.9168e-05 0 -0.0270987)
(1.20141e-05 0 -0.0302729)
(-2.22822e-05 0 -0.0292037)
(2.91369e-05 0 -0.0325448)
(-4.25535e-06 0 -0.0314192)
(4.73703e-05 0 -0.034936)
(1.49602e-05 0 -0.033751)
(6.67508e-05 0 -0.0374531)
(3.54103e-05 0 -0.0362053)
(8.72959e-05 0 -0.0401029)
(5.71313e-05 0 -0.038789)
(0.000108992 0 -0.0428921)
(8.01219e-05 0 -0.0415089)
(0.000131778 0 -0.0458257)
(0.000104357 0 -0.0443717)
(0.000159507 0 -0.0494177)
(0.000131843 0 -0.0476371)
(0.000187106 0 -0.0530056)
(0.000161947 0 -0.0512279)
(0.000214514 0 -0.0565884)
(0.000191898 0 -0.0548135)
(0.000241584 0 -0.0601655)
(0.000221596 0 -0.0583941)
(0.000268108 0 -0.0637347)
(0.000250836 0 -0.0619683)
(0.000293829 0 -0.0672918)
(0.000279358 0 -0.0655328)
(0.000318454 0 -0.0708314)
(0.000306868 0 -0.0690827)
(0.000341656 0 -0.0743466)
(0.000333035 0 -0.0726118)
(0.000363077 0 -0.0778297)
(0.000357491 0 -0.0761128)
(0.000382323 0 -0.0812718)
(0.000379836 0 -0.0795774)
(0.000398966 0 -0.0846628)
(0.000399629 0 -0.0829961)
(0.000412548 0 -0.0879915)
(0.000416398 0 -0.0863582)
(0.000422584 0 -0.0912454)
(0.00042964 0 -0.089652)
(0.000428575 0 -0.0944108)
(0.000438832 0 -0.0928642)
(0.000430013 0 -0.0974727)
(0.000443436 0 -0.0959805)
(0.000426396 0 -0.100415)
(0.000442915 0 -0.0989853)
(0.000417226 0 -0.10322)
(0.000436743 0 -0.101862)
(0.000402026 0 -0.105869)
(0.000424437 0 -0.104592)
(0.00038035 0 -0.108342)
(0.000405426 0 -0.107156)
(0.000379356 0 -0.109533)
(-0.000249058 0 -0.000953872)
(-0.00029826 0 -0.000589948)
(-0.000245836 0 -0.00165721)
(-0.000295451 0 -0.00134353)
(-0.00024183 0 -0.0023181)
(-0.000291537 0 -0.0019978)
(-0.000237612 0 -0.00300713)
(-0.000287289 0 -0.00266665)
(-0.000233465 0 -0.00374422)
(-0.000282946 0 -0.00337648)
(-0.000229359 0 -0.00453739)
(-0.000278714 0 -0.00414145)
(-0.000225094 0 -0.00538727)
(-0.000274426 0 -0.00496382)
(-0.000220442 0 -0.00629334)
(-0.000269825 0 -0.00584275)
(-0.000215238 0 -0.00725602)
(-0.000264699 0 -0.00677791)
(-0.000209385 0 -0.00827694)
(-0.000258916 0 -0.00777034)
(-0.000202832 0 -0.00935844)
(-0.000252405 0 -0.0088221)
(-0.000195548 0 -0.0105031)
(-0.000245125 0 -0.00993573)
(-0.000187507 0 -0.0117137)
(-0.000237046 0 -0.0111139)
(-0.000178679 0 -0.012993)
(-0.000228139 0 -0.0123594)
(-0.000169035 0 -0.0143439)
(-0.000218371 0 -0.0136749)
(-0.000158539 0 -0.0157693)
(-0.000207706 0 -0.0150635)
(-0.000147155 0 -0.0172724)
(-0.000196107 0 -0.0165283)
(-0.000134844 0 -0.0188568)
(-0.000183531 0 -0.0180724)
(-0.000121565 0 -0.020526)
(-0.000169936 0 -0.0196996)
(-0.000107273 0 -0.022284)
(-0.000155277 0 -0.0214136)
(-9.19213e-05 0 -0.0241351)
(-0.000139505 0 -0.0232185)
(-7.54614e-05 0 -0.0260839)
(-0.000122568 0 -0.0251186)
(-5.78424e-05 0 -0.0281351)
(-0.000104415 0 -0.0271189)
(-3.90123e-05 0 -0.0302941)
(-8.49916e-05 0 -0.0292242)
(-1.89195e-05 0 -0.0325664)
(-6.4242e-05 0 -0.03144)
(2.4862e-06 0 -0.0349581)
(-4.21132e-05 0 -0.0337721)
(2.52464e-05 0 -0.0374756)
(-1.85545e-05 0 -0.0362268)
(4.93854e-05 0 -0.0401257)
(6.47471e-06 0 -0.0388106)
(7.48904e-05 0 -0.0429152)
(3.29805e-05 0 -0.0415307)
(0.000101693 0 -0.0458491)
(6.09388e-05 0 -0.0443935)
(0.000134281 0 -0.0494412)
(9.26601e-05 0 -0.0476588)
(0.000166747 0 -0.0530292)
(0.000127408 0 -0.0512495)
(0.00019901 0 -0.0566121)
(0.000162014 0 -0.054835)
(0.000230892 0 -0.0601893)
(0.000196343 0 -0.0584154)
(0.000262146 0 -0.0637582)
(0.000230158 0 -0.0619891)
(0.000292476 0 -0.067315)
(0.000263168 0 -0.065553)
(0.000321547 0 -0.0708539)
(0.000295043 0 -0.0691021)
(0.00034899 0 -0.0743683)
(0.000325414 0 -0.0726301)
(0.000374393 0 -0.0778503)
(0.000353871 0 -0.0761298)
(0.00039731 0 -0.081291)
(0.000379966 0 -0.0795927)
(0.000417256 0 -0.0846802)
(0.000403212 0 -0.0830094)
(0.000433715 0 -0.0880069)
(0.000423084 0 -0.0863692)
(0.00044614 0 -0.0912584)
(0.000439029 0 -0.0896602)
(0.000453972 0 -0.094421)
(0.000450469 0 -0.0928694)
(0.000456646 0 -0.0974797)
(0.000456816 0 -0.0959823)
(0.000453602 0 -0.100418)
(0.000457486 0 -0.0989833)
(0.000444296 0 -0.10322)
(0.000451907 0 -0.101856)
(0.000428205 0 -0.105865)
(0.000439565 0 -0.104581)
(0.00040486 0 -0.108333)
(0.000419844 0 -0.107141)
(0.000392412 0 -0.109512)
(-0.00034454 0 -0.000961599)
(-0.000402188 0 -0.000595083)
(-0.00034126 0 -0.00166849)
(-0.000399635 0 -0.00135372)
(-0.000337123 0 -0.00233039)
(-0.000395619 0 -0.00201004)
(-0.000332709 0 -0.00301908)
(-0.000391271 0 -0.00267909)
(-0.000328308 0 -0.00375547)
(-0.000386758 0 -0.00338829)
(-0.0003239 0 -0.00454829)
(-0.000382273 0 -0.00415272)
(-0.000319282 0 -0.00539836)
(-0.000377678 0 -0.00497507)
(-0.00031422 0 -0.00630505)
(-0.000372722 0 -0.00585451)
(-0.000308533 0 -0.00726859)
(-0.000367184 0 -0.0067905)
(-0.00030211 0 -0.00829045)
(-0.000360919 0 -0.00778391)
(-0.00029489 0 -0.00937286)
(-0.00035384 0 -0.00883665)
(-0.000286835 0 -0.0105184)
(-0.000345899 0 -0.00995122)
(-0.000277912 0 -0.0117299)
(-0.000337058 0 -0.0111303)
(-0.000268085 0 -0.0130099)
(-0.000327281 0 -0.0123766)
(-0.000257319 0 -0.0143615)
(-0.000316529 0 -0.0136929)
(-0.000245574 0 -0.0157876)
(-0.000304762 0 -0.0150823)
(-0.000232807 0 -0.0172915)
(-0.000291934 0 -0.0165477)
(-0.000218974 0 -0.0188765)
(-0.000278 0 -0.0180925)
(-0.000204027 0 -0.0205463)
(-0.000262911 0 -0.0197203)
(-0.000187915 0 -0.0223049)
(-0.000246615 0 -0.0214348)
(-0.000170587 0 -0.0241566)
(-0.000229059 0 -0.0232402)
(-0.000151987 0 -0.0261059)
(-0.000210186 0 -0.0251409)
(-0.00013206 0 -0.0281576)
(-0.000189938 0 -0.0271416)
(-0.000110748 0 -0.0303171)
(-0.000168257 0 -0.0292474)
(-8.79937e-05 0 -0.0325899)
(-0.000145081 0 -0.0314636)
(-6.37429e-05 0 -0.034982)
(-0.000120352 0 -0.0337961)
(-3.79481e-05 0 -0.0374999)
(-9.40155e-05 0 -0.036251)
(-1.05834e-05 0 -0.0401504)
(-6.60286e-05 0 -0.0388352)
(1.83361e-05 0 -0.0429403)
(-3.63824e-05 0 -0.0415554)
(4.87348e-05 0 -0.0458743)
(-5.09871e-06 0 -0.0444183)
(8.57811e-05 0 -0.0494666)
(3.04508e-05 0 -0.0476835)
(0.000122686 0 -0.0530547)
(6.94274e-05 0 -0.0512741)
(0.000159373 0 -0.0566376)
(0.000108265 0 -0.0548595)
(0.000195645 0 -0.0602146)
(0.000146808 0 -0.0584395)
(0.000231229 0 -0.0637832)
(0.000184797 0 -0.0620129)
(0.0002658 0 -0.0673394)
(0.000221922 0 -0.0655761)
(0.000298991 0 -0.0708775)
(0.000257827 0 -0.0691242)
(0.000330394 0 -0.0743908)
(0.000292112 0 -0.072651)
(0.000359563 0 -0.0778714)
(0.000324336 0 -0.0761492)
(0.000386008 0 -0.0813104)
(0.000354018 0 -0.0796104)
(0.000409202 0 -0.0846976)
(0.000380633 0 -0.0830249)
(0.000428584 0 -0.0880218)
(0.000403621 0 -0.0863821)
(0.000443566 0 -0.0912705)
(0.000422392 0 -0.0896702)
(0.000453542 0 -0.0944299)
(0.000436332 0 -0.092876)
(0.000457908 0 -0.0974851)
(0.000444819 0 -0.0959852)
(0.000456069 0 -0.10042)
(0.00044724 0 -0.0989821)
(0.000447451 0 -0.103217)
(0.000442996 0 -0.10185)
(0.000431506 0 -0.105857)
(0.000431554 0 -0.104571)
(0.000407754 0 -0.10832)
(0.000412278 0 -0.107125)
(0.000384876 0 -0.109491)
(-0.000457153 0 -0.00096908)
(-0.00052399 0 -0.000599988)
(-0.000453978 0 -0.00167959)
(-0.000521719 0 -0.00136358)
(-0.000449889 0 -0.00234276)
(-0.000517717 0 -0.00202214)
(-0.000445412 0 -0.00303137)
(-0.000513357 0 -0.00269171)
(-0.000440839 0 -0.00376728)
(-0.000508714 0 -0.00340057)
(-0.000436176 0 -0.00455986)
(-0.00050399 0 -0.00416464)
(-0.00043125 0 -0.00541022)
(-0.000499092 0 -0.00498707)
(-0.000425832 0 -0.00631762)
(-0.000493791 0 -0.00586709)
(-0.000419735 0 -0.00728211)
(-0.000487871 0 -0.00680401)
(-0.000412834 0 -0.008305)
(-0.000481173 0 -0.00779849)
(-0.000405055 0 -0.00938844)
(-0.000473598 0 -0.00885234)
(-0.000396351 0 -0.010535)
(-0.000465084 0 -0.00996797)
(-0.000386679 0 -0.0117473)
(-0.000455584 0 -0.011148)
(-0.000376001 0 -0.0130282)
(-0.000445056 0 -0.0123953)
(-0.000364273 0 -0.0143806)
(-0.000433454 0 -0.0137125)
(-0.00035145 0 -0.0158075)
(-0.000420731 0 -0.0151027)
(-0.000337484 0 -0.0173121)
(-0.000406837 0 -0.0165689)
(-0.000322324 0 -0.0188977)
(-0.00039172 0 -0.0181145)
(-0.000305917 0 -0.0205682)
(-0.000375326 0 -0.019743)
(-0.000288208 0 -0.0223274)
(-0.000357597 0 -0.0214582)
(-0.00026914 0 -0.0241796)
(-0.000338475 0 -0.0232642)
(-0.000248652 0 -0.0261294)
(-0.000317899 0 -0.0251654)
(-0.000226685 0 -0.0281816)
(-0.000295806 0 -0.0271667)
(-0.000203174 0 -0.0303415)
(-0.000272133 0 -0.0292729)
(-0.00017806 0 -0.0326147)
(-0.000246813 0 -0.0314896)
(-0.000151281 0 -0.0350072)
(-0.000219785 0 -0.0338225)
(-0.000122789 0 -0.0375255)
(-0.000190989 0 -0.0362778)
(-9.25535e-05 0 -0.0401762)
(-0.000160379 0 -0.0388623)
(-6.05896e-05 0 -0.0429662)
(-0.000127944 0 -0.0415828)
(-2.6968e-05 0 -0.0459002)
(-9.37049e-05 0 -0.0444457)
(1.40951e-05 0 -0.0494924)
(-5.47284e-05 0 -0.0477109)
(5.50203e-05 0 -0.0530804)
(-1.19455e-05 0 -0.0513013)
(9.572e-05 0 -0.0566631)
(3.07087e-05 0 -0.0548866)
(0.000135985 0 -0.0602397)
(7.30636e-05 0 -0.0584664)
(0.000175527 0 -0.0638077)
(0.00011485 0 -0.0620392)
(0.000213998 0 -0.067363)
(0.000155743 0 -0.0656017)
(0.000251011 0 -0.0709)
(0.000195369 0 -0.0691489)
(0.000286131 0 -0.0744119)
(0.000233309 0 -0.0726744)
(0.000318885 0 -0.0778908)
(0.000269101 0 -0.0761711)
(0.000348754 0 -0.0813277)
(0.00030224 0 -0.0796303)
(0.000375181 0 -0.0847124)
(0.00033218 0 -0.0830425)
(0.000397577 0 -0.0880337)
(0.000358337 0 -0.0863971)
(0.000415323 0 -0.0912791)
(0.000380099 0 -0.0896821)
(0.00042779 0 -0.0944349)
(0.000396832 0 -0.0928844)
(0.000434348 0 -0.0974859)
(0.000407897 0 -0.0959896)
(0.000434384 0 -0.100416)
(0.000412666 0 -0.0989821)
(0.000427309 0 -0.103208)
(0.000410532 0 -0.101845)
(0.000412572 0 -0.105843)
(0.000400958 0 -0.104561)
(0.000389693 0 -0.108301)
(0.000383301 0 -0.10711)
(0.00035733 0 -0.10947)
(-0.00058842 0 -0.000976243)
(-0.000664828 0 -0.000604683)
(-0.000585345 0 -0.00169039)
(-0.000662799 0 -0.00137313)
(-0.000581302 0 -0.00235508)
(-0.000658815 0 -0.0020341)
(-0.000576755 0 -0.00304396)
(-0.000654437 0 -0.00270453)
(-0.000571985 0 -0.00377966)
(-0.00064965 0 -0.00341337)
(-0.000567036 0 -0.00457218)
(-0.000644664 0 -0.0041773)
(-0.000561771 0 -0.00542289)
(-0.000639431 0 -0.00499991)
(-0.000555983 0 -0.00633107)
(-0.00063376 0 -0.00588054)
(-0.000549482 0 -0.00729659)
(-0.000627444 0 -0.00681842)
(-0.000542132 0 -0.0083206)
(-0.000620319 0 -0.00781403)
(-0.000533844 0 -0.00940516)
(-0.000612274 0 -0.00886905)
(-0.000524559 0 -0.0105528)
(-0.000603234 0 -0.00998583)
(-0.000514229 0 -0.0117661)
(-0.000593141 0 -0.011167)
(-0.000502804 0 -0.013048)
(-0.000581946 0 -0.0124153)
(-0.000490235 0 -0.0144013)
(-0.000569594 0 -0.0137335)
(-0.000476471 0 -0.015829)
(-0.000556033 0 -0.0151246)
(-0.000461457 0 -0.0173344)
(-0.000541205 0 -0.0165917)
(-0.000445138 0 -0.0189208)
(-0.000525054 0 -0.0181381)
(-0.000427455 0 -0.020592)
(-0.000507518 0 -0.0197674)
(-0.000408348 0 -0.0223518)
(-0.000488538 0 -0.0214833)
(-0.000387755 0 -0.0242046)
(-0.000468049 0 -0.02329)
(-0.000365611 0 -0.026155)
(-0.000445985 0 -0.025192)
(-0.00034185 0 -0.0282077)
(-0.000422279 0 -0.0271938)
(-0.000316407 0 -0.0303681)
(-0.000396863 0 -0.0293006)
(-0.000289214 0 -0.0326418)
(-0.000369668 0 -0.0315178)
(-0.000260208 0 -0.0350346)
(-0.000340625 0 -0.0338512)
(-0.000229336 0 -0.0375532)
(-0.000309673 0 -0.0363069)
(-0.000196564 0 -0.0402042)
(-0.000276759 0 -0.0388917)
(-0.0001619 0 -0.0429942)
(-0.000241867 0 -0.0416124)
(-0.000125404 0 -0.0459282)
(-0.000205018 0 -0.0444755)
(-8.0773e-05 0 -0.0495203)
(-0.000163007 0 -0.0477406)
(-3.62483e-05 0 -0.0531081)
(-0.000116843 0 -0.051331)
(8.06404e-06 0 -0.0566905)
(-7.07802e-05 0 -0.0549161)
(5.1944e-05 0 -0.0602666)
(-2.49991e-05 0 -0.0584956)
(9.5091e-05 0 -0.063834)
(2.02248e-05 0 -0.062068)
(0.000137148 0 -0.0673884)
(6.45594e-05 0 -0.0656297)
(0.000177712 0 -0.0709242)
(0.000107622 0 -0.0691759)
(0.000216335 0 -0.0744346)
(0.000148982 0 -0.0727002)
(0.000252525 0 -0.0779116)
(0.00018817 0 -0.0761952)
(0.000285748 0 -0.0813463)
(0.000224669 0 -0.0796524)
(0.000315432 0 -0.0847284)
(0.000257922 0 -0.0830623)
(0.000340969 0 -0.0880467)
(0.000287334 0 -0.0864141)
(0.000361729 0 -0.0912887)
(0.000312289 0 -0.0896959)
(0.000377071 0 -0.0944405)
(0.000332145 0 -0.0928946)
(0.000386357 0 -0.0974873)
(0.000346262 0 -0.0959958)
(0.000388971 0 -0.100413)
(0.000354014 0 -0.0989839)
(0.000384328 0 -0.1032)
(0.000354799 0 -0.101842)
(0.000371886 0 -0.105829)
(0.000348092 0 -0.104553)
(0.000351179 0 -0.108281)
(0.000333248 0 -0.107096)
(0.000310125 0 -0.109451)
(-0.000739066 0 -0.000983203)
(-0.000825118 0 -0.000609205)
(-0.000736073 0 -0.00170104)
(-0.000823327 0 -0.00138243)
(-0.00073206 0 -0.00236751)
(-0.000819372 0 -0.00204597)
(-0.000727431 0 -0.00305699)
(-0.000815 0 -0.00271757)
(-0.000722454 0 -0.00379275)
(-0.000810095 0 -0.00342674)
(-0.000717196 0 -0.00458535)
(-0.000804866 0 -0.00419076)
(-0.000711565 0 -0.00543649)
(-0.000799303 0 -0.00501365)
(-0.000705381 0 -0.00634545)
(-0.000793252 0 -0.00589493)
(-0.000698462 0 -0.00731203)
(-0.000786531 0 -0.00683377)
(-0.000690666 0 -0.00833722)
(-0.00077898 0 -0.00783053)
(-0.000681892 0 -0.00942297)
(-0.00077048 0 -0.00888676)
(-0.00067207 0 -0.0105717)
(-0.000760944 0 -0.0100047)
(-0.00066114 0 -0.0117862)
(-0.000750307 0 -0.0111871)
(-0.000649047 0 -0.0130692)
(-0.000738508 0 -0.0124365)
(-0.000635733 0 -0.0144235)
(-0.000725489 0 -0.0137558)
(-0.00062114 0 -0.0158521)
(-0.000711187 0 -0.0151479)
(-0.000605208 0 -0.0173584)
(-0.000695542 0 -0.016616)
(-0.000587876 0 -0.0189457)
(-0.000678488 0 -0.0181633)
(-0.000569079 0 -0.0206176)
(-0.000659962 0 -0.0197934)
(-0.000548754 0 -0.0223782)
(-0.000639896 0 -0.0215101)
(-0.000526833 0 -0.0242317)
(-0.000618223 0 -0.0233176)
(-0.000503248 0 -0.0261827)
(-0.000594872 0 -0.0252202)
(-0.000477929 0 -0.0282361)
(-0.000569772 0 -0.0272227)
(-0.000450803 0 -0.030397)
(-0.000542851 0 -0.0293301)
(-0.000421802 0 -0.0326711)
(-0.000514034 0 -0.0315478)
(-0.000390856 0 -0.0350645)
(-0.00048325 0 -0.0338817)
(-0.000357908 0 -0.0375834)
(-0.000450431 0 -0.0363379)
(-0.000322919 0 -0.0402347)
(-0.00041552 0 -0.0389231)
(-0.000285887 0 -0.0430249)
(-0.000378492 0 -0.0416441)
(-0.000246861 0 -0.0459589)
(-0.000339367 0 -0.0445073)
(-0.000199088 0 -0.049551)
(-0.000294699 0 -0.0477725)
(-0.000151375 0 -0.0531387)
(-0.000245564 0 -0.0513628)
(-0.00010384 0 -0.0567208)
(-0.000196484 0 -0.0549478)
(-5.67123e-05 0 -0.0602966)
(-0.000147648 0 -0.058527)
(-1.02949e-05 0 -0.0638633)
(-9.93293e-05 0 -0.0620989)
(3.50515e-05 0 -0.0674168)
(-5.18611e-05 0 -0.06566)
(7.89184e-05 0 -0.0709515)
(-5.62686e-06 0 -0.0692051)
(0.000120853 0 -0.0744604)
(3.89441e-05 0 -0.0727281)
(0.000160357 0 -0.0779356)
(8.13809e-05 0 -0.0762215)
(0.000196894 0 -0.081368)
(0.000121169 0 -0.0796768)
(0.000229886 0 -0.0847476)
(0.000157751 0 -0.0830843)
(0.000258726 0 -0.0880629)
(0.000190539 0 -0.0864333)
(0.000282783 0 -0.0913014)
(0.00021892 0 -0.089712)
(0.00030142 0 -0.0944494)
(0.000242264 0 -0.092907)
(0.000314008 0 -0.097492)
(0.000259941 0 -0.0960042)
(0.000319939 0 -0.100413)
(0.000271341 0 -0.0989879)
(0.000318645 0 -0.103195)
(0.000275882 0 -0.101841)
(0.00030961 0 -0.105819)
(0.000273066 0 -0.104547)
(0.000292397 0 -0.108265)
(0.000262256 0 -0.107085)
(0.000243406 0 -0.109434)
(-0.000909233 0 -0.000989946)
(-0.001005 0 -0.000613516)
(-0.000906351 0 -0.0017115)
(-0.00100347 0 -0.00139138)
(-0.000902415 0 -0.00237998)
(-0.000999596 0 -0.00205762)
(-0.000897764 0 -0.00307038)
(-0.000995302 0 -0.00273069)
(-0.000892638 0 -0.00380649)
(-0.00099036 0 -0.00344052)
(-0.000887117 0 -0.00459937)
(-0.000984961 0 -0.0042049)
(-0.000881143 0 -0.00545101)
(-0.000979122 0 -0.00502823)
(-0.000874571 0 -0.00636078)
(-0.000972725 0 -0.00591022)
(-0.000867239 0 -0.00732842)
(-0.000965618 0 -0.00685004)
(-0.000859007 0 -0.0083548)
(-0.000957657 0 -0.00784795)
(-0.000849769 0 -0.00944177)
(-0.000948723 0 -0.00890541)
(-0.000839446 0 -0.0105918)
(-0.000938726 0 -0.0100246)
(-0.00082797 0 -0.0118074)
(-0.000927591 0 -0.0112081)
(-0.000815276 0 -0.0130915)
(-0.000915251 0 -0.0124587)
(-0.000801301 0 -0.0144468)
(-0.000901639 0 -0.0137791)
(-0.000785981 0 -0.0158765)
(-0.000886689 0 -0.0151723)
(-0.000769249 0 -0.0173837)
(-0.000870331 0 -0.0166414)
(-0.000751038 0 -0.0189719)
(-0.000852498 0 -0.0181896)
(-0.00073128 0 -0.0206447)
(-0.00083312 0 -0.0198207)
(-0.000709906 0 -0.0224061)
(-0.000812124 0 -0.0215382)
(-0.000686845 0 -0.0242604)
(-0.000789439 0 -0.0233465)
(-0.000662022 0 -0.0262121)
(-0.000764991 0 -0.0252499)
(-0.000635365 0 -0.0282661)
(-0.000738705 0 -0.0272531)
(-0.000606797 0 -0.0304277)
(-0.000710502 0 -0.0293611)
(-0.000576244 0 -0.0327024)
(-0.000680306 0 -0.0315795)
(-0.000543634 0 -0.0350963)
(-0.000648039 0 -0.0339139)
(-0.000508901 0 -0.0376156)
(-0.00061363 0 -0.0363706)
(-0.000472003 0 -0.0402673)
(-0.000577016 0 -0.0389562)
(-0.000432927 0 -0.0430578)
(-0.000538162 0 -0.0416776)
(-0.00039171 0 -0.0459919)
(-0.000497083 0 -0.0445409)
(-0.000341192 0 -0.0495839)
(-0.000450118 0 -0.0478061)
(-0.000290679 0 -0.0531716)
(-0.0003984 0 -0.0513965)
(-0.000240296 0 -0.0567536)
(-0.000346674 0 -0.0549814)
(-0.000190269 0 -0.060329)
(-0.000295132 0 -0.0585604)
(-0.000140897 0 -0.0638951)
(-0.000244041 0 -0.0621318)
(-9.25371e-05 0 -0.0674478)
(-0.000193726 0 -0.0656922)
(-4.55931e-05 0 -0.0709814)
(-0.00014456 0 -0.0692364)
(-5.13723e-07 0 -0.0744889)
(-9.69636e-05 0 -0.0727582)
(4.22101e-05 0 -0.0779623)