/*--------------------------------*- C++ -*----------------------------------*\
  =========                 |
  \\      /  F ield         | OpenFOAM: The Open Source CFD Toolbox
   \\    /   O peration     | Website:  https://openfoam.org
    \\  /    A nd           | Version:  9
     \\/     M anipulation  |
\*---------------------------------------------------------------------------*/
FoamFile
{
    format      ascii;
    class       volScalarField;
    location    "0.05";
    object      alpha.water;
}
// * * * * * * * * * * * * * * * * * * * * * * * * * * * * * * * * * * * * * //

dimensions      [0 0 0 0 0 0 0];

internalField   nonuniform List<scalar> 
5000
(
5.35547e-319
2.05687e-318
1.28334e-317
7.9577e-317
5.44877e-316
3.90993e-315
2.92473e-314
2.28007e-313
1.85284e-312
1.56975e-311
1.38679e-310
1.2778e-309
1.22818e-308
1.23165e-307
1.28888e-306
1.40768e-305
1.60482e-304
1.91001e-303
2.37347e-302
3.07977e-301
4.17329e-300
5.90607e-299
8.72978e-298
1.34776e-296
2.17339e-295
3.66086e-294
6.44079e-293
1.18357e-291
2.27153e-290
4.55279e-289
9.58245e-288
2.42192e-286
6.10538e-285
1.53433e-283
3.84309e-282
9.59166e-281
2.38479e-279
5.90517e-278
1.45587e-276
3.57268e-275
8.72414e-274
2.1192e-272
5.11896e-271
1.229e-269
2.93123e-268
6.94301e-267
1.63413e-265
3.83021e-264
8.99001e-263
2.15327e-261
6.96225e-318
3.80527e-317
2.17677e-316
1.3353e-315
8.72355e-315
6.02159e-314
4.37148e-313
3.32667e-312
2.64814e-311
2.20221e-310
1.91176e-309
1.73178e-308
1.63666e-307
1.61365e-306
1.65981e-305
1.78127e-304
1.99462e-303
2.3307e-302
2.8421e-301
3.61699e-300
4.80432e-299
6.66048e-298
9.63768e-297
1.45554e-295
2.29427e-294
3.77399e-293
6.47811e-292
1.16018e-290
2.16751e-289
4.22332e-288
8.62954e-287
2.1131e-285
5.1521e-284
1.24988e-282
3.01559e-281
7.23254e-280
1.72344e-278
4.078e-277
9.57632e-276
2.23047e-274
5.14974e-273
1.17791e-271
2.66753e-270
5.97752e-269
1.32486e-267
2.90579e-266
6.324e-265
1.37566e-263
3.04063e-262
7.11031e-261
8.64405e-316
3.58062e-315
1.44652e-314
6.11048e-314
2.73908e-313
1.32063e-312
6.94844e-312
4.03762e-311
2.60449e-310
1.85812e-309
1.45095e-308
1.22436e-307
1.10365e-306
1.05348e-305
1.05855e-304
1.11547e-303
1.22998e-302
1.41727e-301
1.70533e-300
2.14181e-299
2.80714e-298
3.83878e-297
5.47665e-296
8.15038e-295
1.2651e-293
2.04778e-292
3.45595e-291
6.07957e-290
1.11447e-288
2.12817e-287
4.25633e-286
1.01824e-284
2.4217e-283
5.72057e-282
1.34129e-280
3.11931e-279
7.1898e-278
1.64113e-276
3.70655e-275
8.27617e-274
1.82541e-272
3.97396e-271
8.5333e-270
1.80651e-268
3.77121e-267
7.77802e-266
1.5939e-264
3.28538e-263
6.97231e-262
1.59211e-260
2.98597e-313
1.21081e-312
4.72233e-312
1.88867e-311
7.78487e-311
3.31032e-310
1.45358e-309
6.60086e-309
3.10729e-308
1.52216e-307
7.80864e-307
4.23714e-306
2.46816e-305
1.57324e-304
1.11912e-303
8.99756e-303
8.17073e-302
8.27142e-301
9.16292e-300
1.09201e-298
1.38264e-297
1.84485e-296
2.58145e-295
3.77731e-294
5.77028e-293
9.19323e-292
1.52651e-290
2.64033e-289
4.7548e-288
8.91048e-287
1.74693e-285
4.09035e-284
9.50899e-283
2.19244e-281
5.00948e-280
1.1333e-278
2.53618e-277
5.60869e-276
1.22446e-274
2.63623e-273
5.59188e-272
1.16762e-270
2.39855e-269
4.84667e-268
9.64255e-267
1.89505e-265
3.70755e-264
7.32743e-263
1.49861e-261
3.28943e-260
1.06049e-310
4.2933e-310
1.67096e-309
6.66596e-309
2.73885e-308
1.15965e-307
5.06117e-307
2.27746e-306
1.05689e-305
5.05937e-305
2.49896e-304
1.27394e-303
6.70577e-303
3.64689e-302
2.05127e-301
1.19549e-300
7.24318e-300
4.58953e-299
3.07315e-298
2.21174e-297
1.75257e-296
1.5704e-295
1.62008e-294
1.92119e-293
2.56801e-292
3.77091e-291
5.95231e-290
9.9525e-289
1.7472e-287
3.20412e-286
6.15603e-285
1.41236e-283
3.21591e-282
7.25672e-281
1.6211e-279
3.58151e-278
7.8173e-277
1.68389e-275
3.57572e-274
7.47744e-273
1.53843e-271
3.11194e-270
6.18687e-269
1.20935e-267
2.32811e-266
4.43255e-265
8.41687e-264
1.6166e-262
3.20362e-261
6.69423e-260
3.78836e-308
1.53172e-307
5.95261e-307
2.37095e-306
9.72565e-306
4.1109e-305
1.79097e-304
8.04404e-304
3.7255e-303
1.77953e-302
8.76814e-302
4.45715e-301
2.33778e-300
1.26528e-299
7.06691e-299
4.07334e-298
2.42301e-297
1.48747e-296
9.42423e-296
6.16305e-295
4.16135e-294
2.90323e-293
2.09623e-292
1.57169e-291
1.2319e-290
1.02226e-289
9.17865e-289
9.20309e-288
1.06517e-286
1.44671e-285
2.29091e-284
4.67323e-283
9.93561e-282
2.14733e-280
4.65096e-279
1.00169e-277
2.13595e-276
4.49764e-275
9.33592e-274
1.90792e-272
3.83537e-271
7.58022e-270
1.473e-268
2.81675e-267
5.31237e-266
9.92634e-265
1.85199e-263
3.48913e-262
6.7211e-261
1.32904e-259
1.36257e-305
5.50216e-305
2.13512e-304
8.49122e-304
3.47757e-303
1.46751e-302
6.38261e-302
2.86171e-301
1.32299e-300
6.30771e-300
3.10205e-299
1.5738e-298
8.23804e-298
4.4495e-297
2.47991e-296
1.42628e-295
8.46474e-295
5.18369e-294
3.27524e-293
2.13487e-292
1.43532e-291
9.9516e-291
7.11378e-290
5.24162e-289
3.97999e-288
3.11362e-287
2.50948e-286
2.08406e-285
1.78457e-284
1.57826e-283
1.45471e-282
1.58498e-281
1.77061e-280
2.09162e-279
2.7238e-278
4.03104e-277
6.74998e-276
1.23429e-274
2.36576e-273
4.6136e-272
8.99861e-271
1.74034e-269
3.32527e-268
6.2727e-267
1.16996e-265
2.16553e-264
4.00089e-263
7.42901e-262
1.3917e-260
2.59858e-259
4.92983e-303
1.98814e-302
7.70371e-302
3.05901e-301
1.25083e-300
5.26984e-300
2.28817e-299
1.02416e-298
4.72639e-298
2.24935e-297
1.10415e-296
5.59117e-296
2.92102e-295
1.57458e-294
8.75824e-294
5.02694e-293
2.9773e-292
1.81951e-291
1.14727e-290
7.46278e-290
5.00717e-289
3.46461e-288
2.47164e-287
1.81749e-286
1.37717e-285
1.07498e-284
8.64123e-284
7.15092e-283
6.0894e-282
5.33273e-281
4.82341e-280
5.05566e-279
5.22721e-278
5.32481e-277
5.3497e-276
5.31212e-275
5.23551e-274
5.16468e-273
5.18195e-272
5.43602e-271
6.19525e-270
7.94582e-269
1.1571e-267
1.86774e-266
3.2193e-265
5.74731e-264
1.04354e-262
1.90751e-261
3.47238e-260
6.12261e-259
1.79209e-300
7.21782e-300
2.79266e-299
1.10721e-298
4.52024e-298
1.90131e-297
8.24175e-297
3.68262e-296
1.69652e-295
8.05952e-295
3.94897e-294
1.99594e-293
1.04077e-292
5.59946e-292
3.10849e-291
1.78065e-290
1.05253e-289
6.41953e-289
4.03974e-288
2.62264e-287
1.75628e-286
1.21294e-285
8.63737e-285
6.34029e-284
4.79632e-283
3.73814e-282
3.00074e-281
2.4802e-280
2.1099e-279
1.8463e-278
1.66912e-277
1.74906e-276
1.80831e-275
1.84184e-274
1.84882e-273
1.82998e-272
1.78754e-271
1.72521e-270
1.64848e-269
1.56445e-268
1.48197e-267
1.41232e-266
1.37091e-265
1.38101e-264
1.48101e-263
1.73648e-262
2.25746e-261
3.2159e-260
4.82921e-259
7.16189e-258
6.5214e-298
2.62292e-297
1.01327e-296
4.01091e-296
1.63477e-295
6.8646e-295
2.9705e-294
1.32495e-293
6.09276e-293
2.88911e-292
1.41293e-291
7.12778e-291
3.70951e-290
1.99182e-289
1.10354e-288
6.30875e-288
3.72153e-287
2.26523e-286
1.42262e-285
9.2175e-285
6.16061e-284
4.24667e-283
3.01854e-282
2.21193e-281
1.67056e-280
1.30005e-279
1.0422e-278
8.60433e-278
7.31314e-277
6.39563e-276
5.78045e-275
6.05854e-274
6.26853e-273
6.39374e-272
6.432e-271
6.38638e-270
6.26485e-269
6.08041e-268
5.85168e-267
5.60206e-266
5.35928e-265
5.15556e-264
5.02888e-263
5.02605e-262
5.20802e-261
5.65533e-260
6.46659e-259
7.72856e-258
9.40103e-257
1.10029e-255
1.93691e-295
7.76067e-295
2.98493e-294
1.17615e-293
4.77123e-293
1.99383e-292
8.58514e-292
3.80984e-291
1.74285e-290
8.22034e-290
3.99829e-289
2.00577e-288
1.03791e-287
5.54068e-287
3.05152e-286
1.73395e-285
1.01656e-284
6.14889e-284
3.83711e-283
2.47012e-282
1.64017e-281
1.12316e-280
7.93052e-280
5.77254e-279
4.33049e-278
3.3474e-277
2.66548e-276
2.1859e-275
1.84559e-274
1.60354e-273
1.44009e-272
1.49982e-271
1.5425e-270
1.56449e-269
1.5658e-268
1.54772e-267
1.51272e-266
1.46442e-265
1.40769e-264
1.34857e-263
1.29417e-262
1.25277e-261
1.23405e-260
1.24959e-259
1.31319e-258
1.44008e-257
1.64278e-256
1.91834e-255
2.21751e-254
2.39045e-253
3.60812e-293
1.43807e-292
5.49768e-292
2.15264e-291
8.67649e-291
3.60204e-290
1.54063e-289
6.7904e-289
3.08481e-288
1.44473e-287
6.97663e-287
3.47435e-286
1.78455e-285
9.45483e-285
5.16753e-284
2.91365e-283
1.69482e-282
1.01703e-281
6.29585e-281
4.0202e-280
2.64769e-279
1.79825e-278
1.25928e-277
9.09058e-277
6.76337e-276
5.18488e-275
4.09471e-274
3.33055e-273
2.78931e-272
2.4042e-271
2.14231e-270
2.21379e-269
2.25983e-268
2.27586e-267
2.26274e-266
2.2232e-265
2.16158e-264
2.08375e-263
1.9971e-262
1.91075e-261
1.83535e-260
1.78335e-259
1.76945e-258
1.81097e-257
1.92753e-256
2.13796e-255
2.45065e-254
2.84016e-253
3.20246e-252
3.30368e-251
4.53075e-291
1.79578e-290
6.82146e-290
2.65336e-289
1.06227e-288
4.3798e-288
1.86023e-287
8.14089e-287
3.67168e-286
1.70699e-285
8.18184e-285
4.04383e-284
2.06117e-283
1.08359e-282
5.87592e-282
3.2868e-281
1.89656e-280
1.12888e-279
6.93119e-279
4.38947e-278
2.86694e-277
1.93094e-276
1.3409e-275
9.59881e-275
7.08183e-274
5.38381e-273
4.21659e-272
3.40151e-271
2.82561e-270
2.41605e-269
2.13607e-268
2.19016e-267
2.21905e-266
2.21896e-265
2.19151e-264
2.14002e-263
2.06935e-262
1.9857e-261
1.89651e-260
1.8106e-259
1.73836e-258
1.69184e-257
1.6852e-256
1.73477e-255
1.85799e-254
2.06863e-253
2.36465e-252
2.70354e-251
2.96608e-250
2.93871e-249
4.19711e-289
1.65428e-288
6.24394e-288
2.41272e-287
9.59444e-287
3.92881e-286
1.65709e-285
7.2007e-285
3.22436e-284
1.48813e-283
7.08016e-283
3.47316e-282
1.75689e-281
9.16544e-281
4.93158e-280
2.73696e-279
1.56679e-278
9.25159e-278
5.63467e-277
3.53948e-276
2.29293e-275
1.53169e-274
1.0549e-273
7.48933e-273
5.48005e-272
4.13196e-271
3.20982e-270
2.56849e-269
2.11665e-268
1.79571e-267
1.57548e-266
1.60305e-265
1.61233e-264
1.60102e-263
1.57078e-262
1.52443e-261
1.46577e-260
1.39951e-259
1.33112e-258
1.26685e-257
1.21382e-256
1.18029e-255
1.17573e-254
1.21062e-253
1.29492e-252
1.43388e-251
1.61885e-250
1.81132e-249
1.92535e-248
1.83353e-247
3.06147e-287
1.19997e-286
4.50049e-286
1.72765e-285
6.82435e-285
2.77554e-284
1.1626e-283
5.01664e-283
2.23043e-282
1.022e-281
4.82698e-281
2.35038e-280
1.18005e-279
6.10959e-279
3.26223e-278
1.79653e-277
1.02043e-276
5.97818e-276
3.61223e-275
2.25102e-274
1.44659e-273
9.58562e-273
6.54857e-272
4.61163e-271
3.34714e-270
2.50341e-269
1.92914e-268
1.53145e-267
1.25217e-266
1.05414e-265
9.17903e-265
9.26946e-264
9.25565e-263
9.12705e-262
8.89573e-261
8.57967e-260
8.2018e-259
7.78931e-258
7.373e-257
6.98703e-256
6.66907e-255
6.46086e-254
6.40822e-253
6.55854e-252
6.95056e-251
7.58868e-250
8.39404e-249
9.13501e-248
9.38087e-247
8.59837e-246
1.84164e-285
7.17816e-285
2.67504e-284
1.02015e-283
4.00275e-283
1.61692e-282
6.72623e-282
2.88211e-281
1.27234e-280
5.78812e-280
2.71393e-279
1.31177e-278
6.53706e-278
3.3591e-277
1.78001e-276
9.72765e-276
5.48276e-275
3.18713e-274
1.91073e-273
1.18135e-272
7.53187e-272
4.95135e-271
3.35571e-270
2.34434e-269
1.68797e-268
1.25243e-267
9.57475e-267
7.54111e-266
6.11795e-265
5.11104e-264
4.41718e-263
4.42725e-262
4.3886e-261
4.29733e-260
4.16026e-259
3.98666e-258
3.78776e-257
3.57626e-256
3.36604e-255
3.17189e-254
3.0095e-253
2.89551e-252
2.8471e-251
2.88022e-250
3.00429e-249
3.21123e-248
3.45745e-247
3.64351e-246
3.60994e-245
3.18993e-244
9.46074e-284
3.66632e-283
1.35738e-282
5.14168e-282
2.00365e-281
8.03774e-281
3.32016e-280
1.41255e-279
6.19103e-279
2.79595e-278
1.30133e-277
6.2433e-277
3.08796e-276
1.57477e-275
8.2812e-275
4.49089e-274
2.51162e-273
1.44866e-272
8.61707e-272
5.28589e-271
3.34356e-270
2.18066e-269
1.46622e-268
1.01621e-267
7.25894e-267
5.34331e-266
4.05268e-265
3.16683e-264
2.54917e-263
2.11325e-262
1.81257e-261
1.80293e-260
1.77404e-259
1.72471e-258
1.6581e-257
1.57817e-256
1.48951e-255
1.39711e-254
1.30618e-253
1.22206e-252
1.1502e-251
1.09598e-250
1.06443e-249
1.05934e-248
1.08142e-247
1.12493e-246
1.17294e-245
1.1929e-244
1.1388e-243
9.71004e-243
4.2733e-282
1.64579e-281
6.05045e-281
2.27537e-280
8.80229e-280
3.50512e-279
1.43712e-278
6.06843e-278
2.63966e-277
1.18304e-276
5.46414e-276
2.60127e-275
1.27662e-274
6.45957e-274
3.37024e-273
1.81328e-272
1.00609e-271
5.75689e-271
3.39713e-270
2.06726e-269
1.29719e-268
8.39264e-268
5.59792e-267
3.84883e-266
2.72736e-265
1.99165e-264
1.49861e-263
1.1618e-262
9.27888e-262
7.63257e-261
6.49651e-260
6.41211e-259
6.2617e-258
6.04249e-257
5.76671e-256
5.44904e-255
5.10561e-254
4.75334e-253
4.40928e-252
4.09015e-251
3.81178e-250
3.58842e-249
3.43131e-248
3.34596e-247
3.32749e-246
3.35333e-245
3.37314e-244
3.30159e-243
3.03308e-242
2.49675e-241
1.74591e-280
6.67548e-280
2.43409e-279
9.07763e-279
3.48237e-278
1.37511e-277
5.59085e-277
2.34102e-276
1.00977e-275
4.48761e-275
2.0553e-274
9.70238e-274
4.72164e-273
2.36906e-272
1.22568e-271
6.53925e-271
3.59793e-270
2.04156e-269
1.19468e-268
7.20954e-268
4.48642e-267
2.87866e-266
1.90425e-265
1.29851e-264
9.12631e-264
6.61021e-263
4.93357e-262
3.79401e-261
3.00594e-260
2.45307e-259
2.07162e-258
2.0285e-257
1.96544e-256
1.88194e-255
1.78219e-254
1.67094e-253
1.55325e-252
1.43419e-251
1.3187e-250
1.21133e-249
1.11604e-248
1.03592e-247
9.72761e-247
9.26552e-246
8.94744e-245
8.70931e-244
8.42834e-243
7.92203e-242
6.99518e-241
5.55942e-240
6.66313e-279
2.52371e-278
9.10486e-278
3.35932e-277
1.27508e-276
4.9823e-276
2.00472e-275
8.30839e-275
3.54745e-274
1.56079e-273
7.07762e-273
3.30842e-272
1.59446e-271
7.92354e-271
4.06057e-270
2.1461e-269
1.16985e-268
6.57711e-268
3.81384e-267
2.28085e-266
1.40671e-265
8.94638e-265
5.8664e-264
3.96568e-263
2.76327e-262
1.98442e-261
1.4686e-260
1.11994e-259
8.79967e-259
7.12236e-258
5.96604e-257
5.79378e-256
5.56792e-255
5.28807e-254
4.96692e-253
4.61834e-252
4.25652e-251
3.8952e-250
3.5471e-249
3.22322e-248
2.93212e-247
2.67909e-246
2.46564e-245
2.28934e-244
2.14295e-243
2.01125e-242
1.86934e-241
1.6848e-240
1.42852e-239
1.09582e-238
2.47084e-277
9.23397e-277
3.28145e-276
1.19262e-275
4.46046e-275
1.71797e-274
6.8161e-274
2.78641e-273
1.17392e-272
5.09812e-272
2.28264e-271
1.05389e-270
5.0182e-270
2.46459e-269
1.24861e-268
6.52568e-268
3.51848e-267
1.95713e-266
1.12308e-265
6.64818e-265
4.05942e-264
2.55649e-263
1.6603e-262
1.1118e-261
7.67529e-261
5.46173e-260
4.00575e-259
3.02772e-258
2.3582e-257
1.89227e-256
1.57158e-255
1.51304e-254
1.44164e-253
1.35751e-252
1.26412e-251
1.16514e-250
1.06418e-249
9.6462e-249
8.69405e-248
7.80887e-247
7.00632e-246
6.29341e-245
5.66973e-244
5.1279e-243
4.65033e-242
4.20661e-241
3.75354e-240
3.24235e-239
2.63869e-238
1.95332e-237
9.30118e-276
3.41066e-275
1.18622e-274
4.21962e-274
1.54544e-273
5.83244e-273
2.26885e-272
9.0997e-272
3.76373e-271
1.60572e-270
7.06738e-270
3.20964e-269
1.50425e-268
7.27604e-268
3.63256e-267
1.87195e-266
9.95734e-266
5.467e-265
3.09803e-264
1.81184e-263
1.09346e-262
6.80885e-262
4.37381e-261
2.89791e-260
1.98001e-259
1.39487e-258
1.01303e-257
7.58384e-257
5.85161e-256
4.65243e-255
3.82916e-254
3.65303e-253
3.44942e-252
3.2191e-251
2.97076e-250
2.71321e-249
2.45486e-248
2.20321e-247
1.96439e-246
1.7428e-245
1.54091e-244
1.35966e-243
1.19868e-242
1.05607e-241
9.282e-241
8.09759e-240
6.94148e-239
5.75022e-238
4.49336e-237
3.21062e-236
3.66798e-274
1.31285e-273
4.44047e-273
1.53578e-272
5.47145e-272
2.00989e-271
7.61566e-271
2.9775e-270
1.20151e-269
5.00554e-269
2.15333e-268
9.56725e-268
4.39077e-267
2.08169e-266
1.01962e-265
5.15964e-265
2.69742e-264
1.45682e-263
8.12732e-263
4.68299e-262
2.78653e-261
1.71194e-260
1.08568e-259
7.1055e-259
4.79806e-258
3.3421e-257
2.40091e-256
1.77855e-255
1.35838e-254
1.06937e-253
8.71689e-253
8.23604e-252
7.70387e-251
7.12268e-250
6.51229e-249
5.89215e-248
5.28003e-247
4.69086e-246
4.13588e-245
3.62247e-244
3.15494e-243
2.73461e-242
2.35998e-241
2.02685e-240
1.7286e-239
1.45668e-238
1.20181e-237
9.5645e-237
7.18812e-236
4.96431e-235
1.51901e-272
5.29434e-272
1.73561e-271
5.81327e-271
2.00573e-270
7.13715e-270
2.62069e-269
9.93452e-269
3.88957e-268
1.57342e-267
6.57835e-267
2.8434e-266
1.27087e-265
5.87456e-265
2.8087e-264
1.38902e-263
7.10522e-263
3.75912e-262
2.05675e-261
1.16357e-260
6.80505e-260
4.11324e-259
2.56878e-258
1.65703e-257
1.10371e-256
7.58899e-256
5.38519e-255
3.94287e-254
2.97796e-253
2.31941e-252
1.8713e-251
1.7502e-250
1.62113e-249
1.48458e-248
1.34467e-247
1.20524e-246
1.06963e-245
9.40479e-245
8.19784e-244
7.08826e-243
6.08273e-242
5.18208e-241
4.38199e-240
3.67394e-239
3.04632e-238
2.48581e-237
1.97937e-236
1.51777e-235
1.10001e-234
7.35959e-234
6.44921e-271
2.19056e-270
6.96285e-270
2.25812e-269
7.53977e-269
2.59557e-268
9.2188e-268
3.38027e-267
1.28032e-266
5.01207e-266
2.02892e-265
8.49685e-265
3.68263e-264
1.65234e-263
7.67686e-263
3.69379e-262
1.84075e-261
9.50041e-261
5.0778e-260
2.81009e-259
1.60981e-258
9.54357e-258
5.85303e-257
3.71213e-256
2.43372e-255
1.64877e-254
1.15383e-253
8.33854e-253
6.22111e-252
4.78974e-251
3.82247e-250
3.53749e-249
3.24396e-248
2.94227e-247
2.64001e-246
2.34409e-245
2.06026e-244
1.79304e-243
1.54566e-242
1.3201e-241
1.11713e-240
9.36525e-240
7.77186e-239
6.37437e-238
5.15238e-237
4.0843e-236
3.1503e-235
2.33641e-234
1.63905e-233
1.0658e-232
2.71948e-269
9.02199e-269
2.78715e-268
8.77116e-268
2.8395e-267
9.47103e-267
3.25736e-266
1.156e-265
4.2363e-265
1.60419e-264
6.28138e-264
2.54485e-263
1.06741e-262
4.63744e-262
2.08783e-261
9.74379e-261
4.71498e-260
2.36596e-259
1.23117e-258
6.64321e-258
3.71621e-257
2.15458e-256
1.29422e-255
8.05105e-255
5.18443e-254
3.45427e-253
2.38029e-252
1.69573e-251
1.24844e-250
9.49448e-250
7.49105e-249
6.85743e-248
6.22487e-247
5.5919e-246
4.97112e-245
4.37367e-244
3.80867e-243
3.28299e-242
2.80122e-241
2.36575e-240
1.97699e-239
1.63368e-238
1.33331e-237
1.07259e-236
8.47839e-236
6.55351e-235
4.91721e-234
3.54319e-233
2.4168e-232
1.53362e-231
1.11069e-267
3.60695e-267
1.0858e-266
3.32453e-266
1.04623e-265
3.38978e-265
1.13166e-264
3.89576e-264
1.38399e-263
5.07781e-263
1.92559e-262
7.55315e-262
3.06686e-261
1.28992e-260
5.62366e-260
2.54274e-259
1.19293e-258
5.80909e-258
2.93685e-257
1.5416e-256
8.4015e-256
4.75286e-255
2.79019e-254
1.69909e-253
1.07275e-252
7.01864e-252
4.75629e-251
3.33685e-250
2.42247e-249
1.81884e-248
1.41834e-247
1.28419e-246
1.1541e-245
1.02716e-244
9.05167e-244
7.89697e-243
6.81979e-242
5.82888e-241
4.92937e-240
4.12299e-239
3.40845e-238
2.78208e-237
2.2385e-236
1.77137e-235
1.37398e-234
1.03968e-233
7.62183e-233
5.36105e-232
3.57236e-231
2.22201e-230
4.32634e-266
1.37764e-265
4.04935e-265
1.20895e-264
3.70697e-264
1.16949e-263
3.79916e-263
1.27182e-262
4.39079e-262
1.56456e-261
5.75881e-261
2.19144e-260
8.6287e-260
3.51839e-259
1.48687e-258
6.51722e-258
2.96488e-257
1.40076e-256
6.87598e-256
3.50801e-255
1.86044e-254
1.02565e-253
5.87674e-253
3.49862e-252
2.16318e-251
1.38838e-250
9.24501e-250
6.38355e-249
4.56813e-248
3.38578e-247
2.60979e-246
2.33799e-245
2.08138e-244
1.83676e-243
1.60609e-242
1.39107e-241
1.19294e-240
1.01249e-239
8.50028e-239
7.05383e-238
5.78005e-237
4.67031e-236
3.71391e-235
2.89909e-234
2.21376e-233
1.64587e-232
1.1837e-231
8.16294e-231
5.33767e-230
3.26808e-229
1.59409e-264
4.98334e-264
1.43238e-263
4.17662e-263
1.25001e-262
3.84716e-262
1.21858e-261
3.97538e-261
1.33672e-260
4.63654e-260
1.66033e-259
6.14357e-259
2.35102e-258
9.31303e-258
3.82226e-257
1.62678e-256
7.1861e-256
3.29728e-255
1.57261e-254
7.80083e-254
4.02623e-253
2.16272e-252
1.20911e-251
7.03461e-251
4.25785e-250
2.67996e-249
1.75322e-248
1.19144e-247
8.40587e-247
6.15259e-246
4.6906e-245
4.16117e-244
3.67339e-243
3.21807e-242
2.79589e-241
2.40754e-240
2.0534e-239
1.73344e-238
1.44715e-237
1.19354e-236
9.71191e-236
7.78349e-235
6.13042e-234
4.73189e-233
3.5667e-232
2.61332e-231
1.85004e-230
1.25537e-229
8.08523e-229
4.89005e-228
5.535e-263
1.70022e-262
4.78414e-262
1.36405e-261
3.9899e-261
1.19966e-260
3.71079e-260
1.1817e-259
3.87705e-259
1.31157e-258
4.57867e-258
1.65088e-257
6.15334e-257
2.37319e-256
9.4797e-256
3.92577e-255
1.68712e-254
7.53138e-254
3.49543e-253
1.68801e-252
8.48779e-252
4.44608e-251
2.42694e-250
1.38064e-249
8.1845e-249
5.05437e-248
3.25026e-247
2.1753e-246
1.51428e-245
1.09558e-244
8.27006e-244
7.27434e-243
6.37655e-242
5.55356e-241
4.80125e-240
4.11663e-239
3.49725e-238
2.94081e-237
2.44491e-236
2.00694e-235
1.62398e-234
1.29283e-233
1.01009e-232
7.72261e-232
5.75702e-231
4.1662e-230
2.91036e-229
1.9485e-228
1.23952e-227
7.42521e-227
1.80855e-261
5.46271e-261
1.50605e-260
4.20273e-260
1.20266e-259
3.53663e-259
1.0696e-258
3.32933e-258
1.06737e-257
3.52719e-257
1.20243e-256
4.23231e-256
1.53948e-255
5.79238e-255
2.25663e-254
9.11237e-254
3.81795e-253
1.66159e-252
7.51917e-252
3.54167e-251
1.73794e-250
8.8917e-250
4.74576e-249
2.64333e-248
1.53664e-247
9.32215e-247
5.89999e-246
3.89382e-245
2.67808e-244
1.91792e-243
1.43558e-242
1.25395e-241
1.09315e-240
9.47917e-240
8.1663e-239
6.981e-238
5.9143e-237
4.95916e-236
4.10968e-235
3.36047e-234
2.70626e-233
2.14174e-232
1.66137e-231
1.25939e-230
9.29636e-230
6.65421e-229
4.59473e-228
3.04096e-227
1.91462e-226
1.13812e-225
5.5606e-260
1.65258e-259
4.46734e-259
1.2211e-258
3.42152e-258
9.8496e-258
2.91553e-257
8.88035e-257
2.78533e-256
9.00316e-256
3.00151e-255
1.03295e-254
3.67294e-254
1.35068e-253
5.14209e-253
2.02879e-252
8.30485e-252
3.53128e-251
1.56154e-250
7.18961e-250
3.45044e-249
1.72782e-248
9.03524e-248
4.93699e-247
2.81979e-246
1.68359e-245
1.05062e-244
6.84975e-244
4.66281e-243
3.31112e-242
2.46158e-241
2.13859e-240
1.85674e-239
1.60506e-238
1.37936e-237
1.17662e-236
9.94718e-236
8.32084e-235
6.87544e-234
5.60139e-233
4.49009e-232
3.53312e-231
2.72175e-230
2.04649e-229
1.49677e-228
1.06063e-227
7.24746e-227
4.74821e-226
2.96316e-225
1.75018e-224
1.60987e-258
4.71032e-258
1.24938e-257
3.34759e-257
9.19174e-257
2.59252e-256
7.51775e-256
2.24292e-255
6.8901e-255
2.18105e-254
7.12014e-254
2.39924e-253
8.35257e-253
3.00711e-252
1.12076e-251
4.32902e-251
1.73498e-250
7.22383e-250
3.12876e-249
1.41151e-248
6.64146e-248
3.26319e-247
1.67603e-246
9.00633e-246
5.06621e-245
2.98398e-244
1.84016e-243
1.1877e-242
8.01791e-242
5.65558e-241
4.18247e-240
3.61901e-239
3.13251e-238
2.70148e-237
2.31691e-236
1.97251e-235
1.66396e-234
1.38828e-233
1.1434e-232
9.27735e-232
7.39954e-231
5.78743e-230
4.42689e-229
3.30182e-228
2.39347e-227
1.68005e-226
1.13703e-225
7.38196e-225
4.5713e-224
2.68545e-223
4.39389e-257
1.26643e-256
3.29826e-256
8.66909e-256
2.3344e-255
6.45636e-255
1.83573e-254
5.36996e-254
1.61736e-253
5.01956e-253
1.60663e-252
5.30813e-252
1.81199e-251
6.39722e-251
2.33839e-250
8.85999e-250
3.48401e-249
1.42374e-248
6.05472e-248
2.6835e-247
1.24131e-246
6.00124e-246
3.03614e-245
1.60905e-244
8.93904e-244
5.20767e-243
3.1814e-242
2.03726e-241
1.36648e-240
9.58902e-240
7.06238e-239
6.0911e-238
5.25833e-237
4.5242e-236
3.87128e-235
3.28769e-234
2.7655e-233
2.29949e-232
1.88617e-231
1.52299e-230
1.20782e-229
9.38499e-229
7.12587e-228
5.27191e-227
3.78858e-226
2.63565e-225
1.76811e-224
1.13862e-223
7.0037e-223
4.09563e-222
1.13238e-255
3.217e-255
8.23237e-255
2.12418e-254
5.61407e-254
1.52387e-253
4.25229e-253
1.22081e-252
3.60887e-252
1.0994e-251
3.45452e-251
1.12064e-250
3.75681e-250
1.30288e-249
4.67962e-249
1.74288e-248
6.73971e-248
2.70986e-247
1.13457e-246
4.95426e-246
2.25979e-245
1.07835e-244
5.39075e-244
2.82632e-243
1.5553e-242
8.98635e-242
5.45135e-241
3.47027e-240
2.31616e-239
1.61857e-238
1.18782e-237
1.02119e-236
8.78915e-236
7.53914e-235
6.43029e-234
5.44152e-233
4.55893e-232
3.77354e-231
3.0794e-230
2.47215e-229
1.948e-228
1.503e-227
1.13255e-226
8.31177e-226
5.92375e-225
4.08696e-224
2.72e-223
1.73919e-222
1.06367e-221
6.19696e-221
2.7609e-254
7.7358e-254
1.94659e-253
4.93478e-253
1.28116e-252
3.41605e-252
9.36432e-252
2.64132e-251
7.67236e-251
2.29711e-250
7.09553e-250
2.26343e-249
7.46415e-249
2.54748e-248
9.00908e-248
3.30559e-247
1.26015e-246
4.99862e-246
2.06643e-245
8.91763e-245
4.02394e-244
1.90155e-243
9.42374e-243
4.90315e-242
2.68023e-241
1.53967e-240
9.29284e-240
5.88914e-239
3.91442e-238
2.72482e-237
1.99201e-236
1.7059e-235
1.46228e-234
1.24893e-233
1.06034e-232
8.92866e-232
7.44072e-231
6.12368e-230
4.96662e-229
3.96115e-228
3.09969e-227
2.37421e-226
1.77556e-225
1.29306e-224
9.1449e-224
6.2624e-223
4.13904e-222
2.63065e-221
1.60141e-220
9.30292e-220
6.38289e-253
1.765e-252
4.37068e-252
1.08953e-251
2.78115e-251
7.29157e-251
1.96566e-250
5.45349e-250
1.55851e-249
4.59226e-249
1.39655e-248
4.38797e-248
1.42604e-247
4.79937e-247
1.67487e-246
6.06907e-246
2.28692e-245
8.9754e-245
3.67488e-244
1.57235e-243
7.04187e-243
3.30611e-242
1.62929e-241
8.43613e-241
4.59174e-240
2.62737e-239
1.57976e-238
9.9729e-238
6.602e-237
4.57566e-236
3.32935e-235
2.83658e-234
2.41822e-233
2.05348e-232
1.7329e-231
1.45005e-230
1.2006e-229
9.81526e-229
7.90651e-228
6.26208e-227
4.86561e-226
3.70025e-225
2.7475e-224
1.98681e-223
1.39556e-222
9.49559e-222
6.23978e-221
3.94661e-220
2.39388e-219
1.38777e-218
1.40307e-251
3.83155e-251
9.34518e-251
2.29288e-250
5.76031e-250
1.48657e-249
3.9456e-249
1.07807e-248
3.03536e-248
8.81553e-248
2.64381e-247
8.19703e-247
2.6306e-246
8.74964e-246
3.02039e-245
1.08371e-244
4.04777e-244
1.57643e-243
6.41224e-243
2.72856e-242
1.21651e-241
5.69046e-241
2.79568e-240
1.44356e-239
7.83591e-239
4.47053e-238
2.67895e-237
1.6845e-236
1.10998e-235
7.65241e-235
5.53537e-234
4.68565e-233
3.96736e-232
3.34525e-231
2.8028e-230
2.32848e-229
1.91412e-228
1.55377e-227
1.24287e-226
9.77608e-226
7.54475e-225
5.69989e-224
4.20523e-223
3.02233e-222
2.11069e-221
1.42855e-220
9.34384e-220
5.88758e-219
3.56159e-218
2.06165e-217
2.94101e-250
7.93766e-250
1.9087e-249
4.6142e-249
1.14219e-248
2.90506e-248
7.6015e-248
2.04845e-247
5.69106e-247
1.63188e-246
4.83529e-246
1.48232e-245
4.70777e-245
1.55115e-244
5.30997e-244
1.89148e-243
7.02214e-243
2.72143e-242
1.10274e-241
4.67897e-241
2.08166e-240
9.72131e-240
4.76895e-239
2.45844e-238
1.3317e-237
7.57642e-237
4.52361e-236
2.83142e-235
1.85554e-234
1.27124e-233
9.13206e-233
7.67243e-232
6.44623e-231
5.39322e-230
4.48401e-229
3.69731e-228
3.01741e-227
2.43237e-226
1.93275e-225
1.51061e-224
1.15876e-223
8.70367e-223
6.38622e-222
4.56623e-221
3.17372e-220
2.13879e-219
1.39371e-218
8.75526e-218
5.28484e-217
3.05526e-216
5.89584e-249
1.57406e-248
3.73585e-248
8.90959e-248
2.17602e-247
5.46233e-247
1.41127e-246
3.75704e-246
1.03179e-245
2.92666e-245
8.58513e-245
2.60796e-244
8.21574e-244
2.68798e-243
9.14748e-243
3.24299e-242
1.1996e-241
4.63699e-241
1.8757e-240
7.95019e-240
3.53457e-239
1.64959e-238
8.08502e-238
4.16176e-237
2.24922e-236
1.27549e-235
7.5829e-235
4.72124e-234
3.07491e-233
2.09212e-232
1.49176e-231
1.2435e-230
1.03654e-229
8.60501e-229
7.1009e-228
5.81345e-227
4.71257e-226
3.77492e-225
2.9818e-224
2.31757e-223
1.76846e-222
1.32176e-221
9.65313e-221
6.87195e-220
4.75688e-219
3.19381e-218
2.07437e-217
1.29953e-216
7.82744e-216
4.5182e-215
1.13378e-247
2.99721e-247
7.03031e-247
1.65647e-246
3.99784e-246
9.9212e-246
2.53542e-245
6.6806e-245
1.8172e-244
5.10956e-244
1.48713e-243
4.48664e-243
1.4052e-242
4.5757e-242
1.55143e-241
5.48555e-241
2.02557e-240
7.82178e-240
3.16242e-239
1.34008e-238
5.95623e-238
2.77811e-237
1.35999e-236
6.98658e-236
3.76483e-235
2.1266e-234
1.25813e-233
7.78857e-233
5.04013e-232
3.40553e-231
2.41079e-230
1.99466e-229
1.65055e-228
1.36061e-227
1.1153e-226
9.07378e-226
7.31248e-225
5.8255e-224
4.57792e-223
3.54087e-222
2.68943e-221
2.00122e-220
1.45534e-219
1.03182e-218
7.11483e-218
4.75957e-217
3.08098e-216
1.9244e-215
1.15617e-214
6.65915e-214
2.09786e-246
5.49743e-246
1.27627e-245
2.97582e-245
7.10971e-245
1.74752e-244
4.42605e-244
1.15665e-243
3.12292e-243
8.7235e-243
2.52471e-242
7.58153e-242
2.36575e-241
7.68227e-241
2.59981e-240
9.18175e-240
3.38842e-239
1.30814e-238
5.28833e-238
2.24039e-237
9.95169e-237
4.63615e-236
2.2652e-235
1.16049e-234
6.2311e-234
3.5043e-233
2.06268e-232
1.26973e-231
8.16707e-231
5.48378e-230
3.85735e-229
3.17116e-228
2.60789e-227
2.13711e-226
1.742e-225
1.40971e-224
1.13034e-223
8.96121e-223
7.00907e-222
5.39644e-221
4.08035e-220
3.0227e-219
2.18854e-218
1.54498e-217
1.06086e-216
7.06813e-216
4.55788e-215
2.83679e-214
1.69883e-213
9.75564e-213
3.74708e-245
9.74513e-245
2.2428e-244
5.18416e-244
1.22842e-243
2.99646e-243
7.53699e-243
1.95757e-242
5.25734e-242
1.46204e-241
4.21619e-241
1.26262e-240
3.93222e-240
1.2753e-239
4.31281e-239
1.52269e-238
5.61874e-238
2.16895e-237
8.76548e-237
3.71084e-236
1.64629e-235
7.65508e-235
3.7307e-234
1.90515e-233
1.01904e-232
5.70625e-232
3.34302e-231
2.04768e-230
1.31039e-229
8.75348e-229
6.12589e-228
5.01061e-227
4.10023e-226
3.34378e-225
2.71256e-224
2.18471e-223
1.74338e-222
1.37546e-221
1.07053e-220
8.20102e-220
6.16941e-219
4.54683e-218
3.27517e-217
2.30034e-216
1.57169e-215
1.04214e-214
6.68946e-214
4.14553e-213
2.47263e-212
1.41456e-211
6.48309e-244
1.67542e-243
3.82873e-243
8.78931e-243
2.06952e-242
5.01957e-242
1.25634e-241
3.24946e-241
8.69729e-241
2.41234e-240
6.94366e-240
2.077e-239
6.46501e-239
2.09679e-238
7.09466e-238
2.50732e-237
9.2656e-237
3.5841e-236
1.45267e-235
6.17529e-235
2.75584e-234
1.29223e-233
6.37169e-233
3.30584e-232
1.80551e-231
1.03813e-230
6.28189e-230
3.99709e-229
2.67038e-228
1.86912e-227
1.3732e-226
1.18092e-225
1.01291e-224
8.61398e-224
7.23556e-223
5.98194e-222
4.85187e-221
3.84954e-220
2.98e-219
2.24567e-218
1.64421e-217
1.16777e-216
8.03527e-216
5.35205e-215
3.44913e-214
2.15027e-213
1.2967e-212
7.56206e-212
4.26161e-211
2.31716e-210
1.0665e-242
2.71257e-242
6.03974e-242
1.33132e-241
2.93603e-241
6.37077e-241
1.29899e-240
2.15405e-240
6.9164e-241
-2.00486e-239
-1.55407e-238
-9.10792e-238
-4.92258e-237
-2.59831e-236
-1.37171e-235
-7.32775e-235
-3.98573e-234
-2.21496e-233
-1.26001e-232
-7.34461e-232
-4.38875e-231
-2.68857e-230
-1.68821e-229
-1.08616e-228
-7.15617e-228
-4.82501e-227
-3.32663e-226
-2.34319e-225
-1.68445e-224
-1.23434e-223
-9.25022e-223
-7.91931e-222
-6.60541e-221
-5.35033e-220
-4.20244e-219
-3.19587e-218
-2.34914e-217
-1.66593e-216
-1.13754e-215
-7.46278e-215
-4.69301e-214
-2.82192e-213
-1.61823e-212
-8.82555e-212
-4.56443e-211
-2.23169e-210
-1.02805e-209
-4.44492e-209
-1.79577e-208
-6.74403e-208
1.02987e-241
1.70264e-241
-1.09718e-242
-1.54212e-240
-9.41099e-240
-4.53891e-239
-2.04065e-238
-9.00225e-238
-3.98321e-237
-1.78716e-236
-8.17911e-236
-3.83092e-235
-1.83987e-234
-9.07062e-234
-4.59317e-233
-2.3897e-232
-1.27752e-231
-7.01717e-231
-3.95959e-230
-2.29466e-229