/*--------------------------------*- C++ -*----------------------------------*\
  =========                 |
  \\      /  F ield         | OpenFOAM: The Open Source CFD Toolbox
   \\    /   O peration     | Website:  https://openfoam.org
    \\  /    A nd           | Version:  9
     \\/     M anipulation  |
\*---------------------------------------------------------------------------*/
FoamFile
{
    format      ascii;
    class       volScalarField;
    location    "0.05";
    object      p;
}
// * * * * * * * * * * * * * * * * * * * * * * * * * * * * * * * * * * * * * //

dimensions      [1 -1 -2 0 0 0 0];

internalField   nonuniform List<scalar> 
5000
(
0.998533
0.998487
0.99846
0.998441
0.998425
0.998409
0.998395
0.998379
0.99836
0.998339
0.998314
0.998283
0.998246
0.998201
0.998146
0.998081
0.998003
0.997909
0.997798
0.997666
0.997509
0.997323
0.997104
0.996846
0.996542
0.996184
0.995762
0.995265
0.994679
0.993988
0.993102
0.991999
0.990752
0.989349
0.987772
0.985999
0.984006
0.981763
0.979234
0.976374
0.973128
0.969432
0.965244
0.960597
0.955661
0.950685
0.945696
0.939909
0.930009
0.902301
0.996557
0.99649
0.99645
0.996421
0.996397
0.996378
0.996363
0.99635
0.996338
0.996326
0.996312
0.996295
0.996275
0.99625
0.996218
0.996178
0.996129
0.996068
0.995993
0.995901
0.995791
0.995656
0.995495
0.9953
0.995067
0.994787
0.994454
0.994055
0.993582
0.993019
0.992296
0.991387
0.990352
0.989179
0.987855
0.986363
0.984685
0.982799
0.980681
0.978299
0.975624
0.97263
0.969315
0.965726
0.961948
0.958008
0.953587
0.947552
0.93679
0.914346
0.994627
0.9946
0.994583
0.99457
0.99456
0.994553
0.994549
0.994548
0.994548
0.99455
0.994551
0.994552
0.994552
0.994548
0.994541
0.994528
0.994508
0.99448
0.994442
0.99439
0.994324
0.994239
0.994132
0.993998
0.993831
0.993625
0.993374
0.993069
0.9927
0.992258
0.991682
0.990946
0.990101
0.989138
0.988046
0.986813
0.985428
0.983877
0.982143
0.980213
0.978072
0.975717
0.973164
0.970458
0.967664
0.964794
0.96165
0.95779
0.952536
0.943061
0.992682
0.992683
0.992687
0.992694
0.992703
0.992714
0.992728
0.992744
0.992762
0.992782
0.992803
0.992825
0.992847
0.992868
0.992887
0.992904
0.992915
0.992922
0.992921
0.992912
0.992892
0.992858
0.992807
0.992734
0.992635
0.992505
0.992339
0.992128
0.991866
0.991543
0.991115
0.990556
0.989904
0.989154
0.988298
0.987331
0.986246
0.985037
0.983699
0.982228
0.980627
0.978909
0.977108
0.975289
0.973545
0.971977
0.970647
0.969742
0.969944
0.969084
0.990733
0.990758
0.990782
0.990808
0.990837
0.990869
0.990903
0.99094
0.99098
0.991023
0.991068
0.991114
0.991163
0.991212
0.991261
0.99131
0.991357
0.991401
0.991443
0.991479
0.991509
0.99153
0.991539
0.991533
0.991507
0.991458
0.991381
0.991271
0.991122
0.990926
0.990652
0.990279
0.989831
0.989305
0.988698
0.98801
0.987239
0.986386
0.985456
0.984457
0.983406
0.982332
0.981289
0.980364
0.979685
0.979425
0.979795
0.981153
0.984397
0.987844
0.988783
0.988828
0.988871
0.988917
0.988967
0.989019
0.989075
0.989135
0.989198
0.989265
0.989335
0.989409
0.989486
0.989566
0.989647
0.989731
0.989815
0.9899
0.989986
0.99007
0.990153
0.990231
0.990303
0.990366
0.990416
0.990451
0.990467
0.990461
0.990428
0.990362
0.990248
0.990066
0.989826
0.989529
0.989176
0.98877
0.988316
0.987823
0.987303
0.986774
0.986266
0.985822
0.985512
0.985443
0.985758
0.986663
0.988414
0.99136
0.996306
1.0022
0.986832
0.986898
0.986959
0.987024
0.987094
0.987168
0.987246
0.987329
0.987417
0.987509
0.987607
0.987709
0.987816
0.987927
0.988042
0.988162
0.988285
0.988412
0.988543
0.988677
0.988813
0.988951
0.989087
0.989219
0.989346
0.989466
0.989576
0.989674
0.989758
0.989823
0.989868
0.989877
0.989845
0.989776
0.989675
0.989549
0.98941
0.98927
0.989151
0.98908
0.989095
0.989251
0.989631
0.990351
0.991562
0.993479
0.996376
1.00057
1.00672
1.01409
0.984881
0.984966
0.985046
0.985131
0.985222
0.985317
0.985418
0.985525
0.985638
0.985757
0.985882
0.986013
0.986151
0.986295
0.986446
0.986602
0.986765
0.986935
0.987112
0.987297
0.987488
0.987685
0.987886
0.98809
0.988294
0.988499
0.988704
0.988907
0.989107
0.989302
0.989505
0.989702
0.989876
0.990032
0.99018
0.99033
0.990497
0.990702
0.990971
0.991339
0.991851
0.992571
0.99359
0.995027
0.997034
0.999828
1.00367
1.00885
1.01579
1.02386
0.98293
0.983035
0.983134
0.983239
0.98335
0.983468
0.983592
0.983723
0.983862
0.984008
0.984162
0.984323
0.984493
0.984671
0.984857
0.985052
0.985256
0.98547
0.985695
0.985931
0.986179
0.986436
0.986703
0.986978
0.987261
0.987552
0.987851
0.988159
0.988475
0.9888
0.98916
0.989543
0.98992
0.990298
0.99069
0.991109
0.991574
0.992111
0.992752
0.993537
0.994515
0.995759
0.997364
0.999444
1.00215
1.00569
1.01028
1.01615
1.02352
1.03182
0.980979
0.981104
0.981222
0.981347
0.98148
0.98162
0.981768
0.981924
0.982088
0.982262
0.982446
0.982638
0.982841
0.983054
0.983277
0.983511
0.983757
0.984017
0.98429
0.984579
0.984883
0.985201
0.985535
0.985882
0.986244
0.986622
0.987016
0.987428
0.98786
0.988312
0.988827
0.989394
0.98997
0.990566
0.991195
0.991875
0.992627
0.993481
0.994475
0.99565
0.997061
0.998785
1.00092
1.00357
1.00687
1.01102
1.01618
1.02251
1.0301
1.03843
0.979028
0.979174
0.979311
0.979456
0.97961
0.979773
0.979945
0.980126
0.980318
0.98052
0.980733
0.980958
0.981194
0.981442
0.981703
0.981977
0.982266
0.982571
0.982894
0.983236
0.983597
0.983978
0.984378
0.984798
0.985239
0.985703
0.986192
0.986707
0.987253
0.987832
0.988498
0.989245
0.990015
0.990821
0.99168
0.992609
0.993635
0.994789
0.996113
0.997649
0.999455
1.00161
1.00421
1.00735
1.01116
1.0158
1.0214
1.02804
1.03574
1.044
0.977077
0.977243
0.9774
0.977566
0.977742
0.977928
0.978124
0.978331
0.978549
0.97878
0.979024
0.979281
0.979551
0.979835
0.980134
0.980449
0.980781
0.981133
0.981506
0.981901
0.98232
0.982763
0.98323
0.983722
0.984242
0.984792
0.985374
0.985991
0.986649
0.987351
0.988165
0.989086
0.990043
0.991052
0.99213
0.993297
0.99458
0.996017
0.997647
0.999513
1.00168
1.00422
1.00722
1.01078
1.01501
1.02004
1.02596
1.03282
1.04056
1.04869
0.975126
0.975313
0.97549
0.975677
0.975875
0.976084
0.976304
0.976537
0.976783
0.977043
0.977318
0.977607
0.977912
0.978232
0.97857
0.978926
0.979302
0.9797
0.980123
0.980572
0.981049
0.981554
0.982088
0.982652
0.98325
0.983884
0.984558
0.985276
0.986042
0.986864
0.987822
0.98891
0.990047
0.991249
0.992535
0.993925
0.99545
0.997147
0.999059
1.00123
1.00371
1.00658
1.00993
1.01384
1.01842
1.02375
1.02992
1.03692
1.04464
1.05263
0.973175
0.973383
0.97358
0.973788
0.974008
0.974241
0.974486
0.974745
0.975019
0.975309
0.975614
0.975936
0.976275
0.976633
0.977009
0.977407
0.977827
0.978272
0.978745
0.979248
0.979782
0.980349
0.980949
0.981585
0.98226
0.982977
0.983741
0.984556
0.985428
0.986366
0.987461
0.98871
0.990018
0.991404
0.992884
0.994482
0.996229
0.998167
1.00033
1.00277
1.00554
1.00871
1.01235
1.01654
1.02139
1.02696
1.03329
1.04037
1.04804
1.05591
0.971224
0.971453
0.971671
0.9719
0.972143
0.972399
0.97267
0.972955
0.973257
0.973576
0.973912
0.974268
0.974642
0.975036
0.975452
0.975891
0.976355
0.976847
0.97737
0.977927
0.978518
0.979146
0.979811
0.980518
0.981269
0.982067
0.982918
0.983827
0.984802
0.98585
0.987076
0.988478
0.989949
0.991506
0.993169
0.994959
0.99691
0.999063
1.00146
1.00413
1.00715
1.01057
1.01445
1.01888
1.02394
1.02967
1.03611
1.04323
1.05084
1.05859
0.969273
0.969523
0.969762
0.970012
0.970279
0.970559
0.970854
0.971167
0.971496
0.971845
0.972213
0.972601
0.973011
0.973442
0.973897
0.974377
0.974886
0.975425
0.975998
0.976607
0.977254
0.977942
0.978672
0.979448
0.980272
0.98115
0.982086
0.983086
0.984158
0.985312
0.986663
0.988208
0.989831
0.99155
0.993382
0.995348
0.997483
0.999828
1.00242
1.0053
1.00853
1.01216
1.01625
1.02086
1.02607
1.03192
1.03842
1.04553
1.05307
1.06071
0.967321
0.967594
0.967853
0.968126
0.968415
0.968719
0.96904
0.969379
0.969737
0.970115
0.970515
0.970936
0.971381
0.97185
0.972344
0.972865
0.973417
0.974003
0.974625
0.975287
0.97599
0.976737
0.97753
0.978372
0.979269
0.980223
0.981241
0.982328
0.983493
0.984748
0.986215
0.987894
0.989659
0.991527
0.993515
0.995643
0.997945
1.00046
1.00322
1.00628
1.00969
1.01349
1.01773
1.02248
1.0278
1.03371
1.04023
1.04731
1.05477
1.06231
0.96537
0.965664
0.965945
0.96624
0.966552
0.966881
0.967228
0.967593
0.967979
0.968387
0.968818
0.969272
0.969752
0.970258
0.970791
0.971354
0.97195
0.972581
0.973252
0.973965
0.974722
0.975527
0.976381
0.977289
0.978255
0.979283
0.980379
0.981549
0.982803
0.984151
0.985728
0.987532
0.989426
0.991431
0.993561
0.995837
0.99829
1.00095
1.00387
1.00707
1.01062
1.01455
1.01892
1.02376
1.02914
1.03508
1.04159
1.0486
1.05597
1.06342
0.963418
0.963734
0.964037
0.964354
0.96469
0.965043
0.965415
0.965808
0.966222
0.966659
0.967121
0.967609
0.968124
0.968667
0.969239
0.969843
0.970481
0.971158
0.971876
0.97264
0.97345
0.974311
0.975225
0.976196
0.977228
0.978327
0.979496
0.980745
0.982082
0.983519
0.985198
0.987116
0.989129
0.991257
0.993515
0.995922
0.99851
1.00131
1.00435
1.00767
1.01133
1.01536
1.01981
1.02472
1.03012
1.03605
1.0425
1.04942
1.05669
1.06404
0.961466
0.961804
0.962129
0.962469
0.962829
0.963206
0.963604
0.964023
0.964465
0.964932
0.965425
0.965946
0.966496
0.967075
0.967686
0.96833
0.969011
0.969732
0.970498
0.97131
0.972172
0.973087
0.974058
0.97509
0.976186
0.977351
0.978591
0.979913
0.981328
0.982848
0.984622
0.986646
0.988766
0.991003
0.993373
0.995896
0.9986
1.00151
1.00466
1.00808
1.01183
1.01593
1.02043
1.02536
1.03075
1.03664
1.043
1.0498
1.05694
1.06418
0.959513
0.959875
0.960221
0.960584
0.960968
0.96137
0.961793
0.962239
0.962709
0.963205
0.963729
0.964283
0.964867
0.965482
0.966131
0.966815
0.967538
0.968303
0.969114
0.969974
0.970886
0.971853
0.972879
0.973968
0.975125
0.976354
0.977659
0.97905
0.980537
0.982133
0.983995
0.986116
0.988334
0.990669
0.993137
0.995759
0.998562
1.00157
1.00481
1.00831
1.01211
1.01626
1.02078
1.0257
1.03106
1.03686
1.04311
1.04977
1.05674
1.06385
0.95756
0.957945
0.958313
0.9587
0.959107
0.959534
0.959983
0.960455
0.960953
0.961479
0.962033
0.962619
0.963237
0.963889
0.964575
0.965298
0.966062
0.966869
0.967724
0.96863
0.96959
0.970607
0.971685
0.972829
0.974043
0.975331
0.976699
0.978153
0.979706
0.981372
0.983314
0.985525
0.987833
0.990255
0.992808
0.995514
0.998399
1.00149
1.0048
1.00836
1.0122
1.01637
1.02089
1.02577
1.03106
1.03676
1.04287
1.04934
1.05611
1.06304
0.955607
0.956014
0.956406
0.956816
0.957247
0.957699
0.958174
0.958672
0.959198
0.959752
0.960337
0.960955
0.961606
0.962293
0.963016
0.963778
0.964581
0.96543
0.966327
0.967278
0.968283
0.969348
0.970475
0.97167
0.972938
0.974282
0.975707
0.97722
0.978833
0.980562
0.982577
0.98487
0.987259
0.98976
0.992389
0.995166
0.998118
1.00127
1.00463
1.00823
1.0121
1.01627
1.02076
1.02559
1.03079
1.03636
1.04229
1.04856
1.0551
1.0618
0.953654
0.954084
0.954499
0.954932
0.955388
0.955865
0.956365
0.95689
0.957443
0.958026
0.958641
0.95929
0.959974
0.960695
0.961454
0.962253
0.963095
0.963983
0.964922
0.965914
0.966964
0.968073
0.969247
0.970489
0.971807
0.973203
0.974681
0.976248
0.977917
0.979702
0.981783
0.984149
0.986611
0.989183
0.991879
0.994717
0.997724
1.00092
1.00432
1.00795
1.01182
1.01598
1.02042
1.02518
1.03026
1.03568
1.04142
1.04745
1.05372
1.06015
0.9517
0.952154
0.952591
0.953049
0.953529
0.954031
0.954557
0.955108
0.955688
0.956299
0.956943
0.957623
0.958339
0.959094
0.959888
0.960723
0.961602
0.962528
0.963506
0.964539
0.96563
0.966781
0.967998
0.969285
0.970648
0.972091
0.973619
0.975236
0.976956
0.978793
0.980931
0.983362
0.985888
0.988523
0.991278
0.99417
0.997221
1.00045
1.00388
1.00751
1.01138
1.01551
1.01989
1.02456
1.02951
1.03476
1.04028
1.04606
1.05204
1.05815
0.949746
0.950223
0.950684
0.951166
0.951671
0.952197
0.952748
0.953326
0.953933
0.954571
0.955244
0.955954
0.956702
0.957489
0.958317
0.959187
0.960101
0.961064
0.962079
0.96315
0.964279
0.965471
0.966727
0.968055
0.969459
0.970946
0.972519
0.974183
0.97595
0.977833
0.980024
0.982511
0.985093
0.987783
0.99059
0.993527
0.996614
0.999871
1.00331
1.00695
1.0108
1.01487
1.01919
1.02375
1.02857
1.03363
1.03893
1.04444
1.0501
1.05586
0.947791
0.948292
0.948777
0.949282
0.949812
0.950363
0.95094
0.951543
0.952177
0.952842
0.953544
0.954282
0.955061
0.955879
0.956739
0.957643
0.958591
0.959589
0.960639
0.961745
0.962911
0.96414
0.965433
0.966798
0.968239
0.969765
0.971378
0.973086
0.974896
0.976824
0.979062
0.9816
0.984231
0.986966
0.989817
0.992793
0.995909
0.999183
1.00263
1.00625
1.01008
1.0141
1.01834
1.02279
1.02746
1.03233
1.0374
1.04262
1.04796
1.05335
0.945835
0.94636
0.946868
0.947398
0.947952
0.948528
0.94913
0.94976
0.950419
0.951112
0.95184
0.952607
0.953415
0.954264
0.955155
0.95609
0.957071
0.958102
0.959185
0.960324
0.961524
0.962787
0.964114
0.965512
0.966988
0.968548
0.970197
0.971944
0.973795
0.975764
0.978047
0.980631
0.983305
0.98608
0.988967
0.991973
0.995113
0.998399
1.00184
1.00545
1.00924
1.01321
1.01736
1.02169
1.02621
1.03089
1.03572
1.04067
1.04568
1.0507
0.943879
0.944427
0.944959
0.945512
0.94609
0.946692
0.947319
0.947974
0.94866
0.949379
0.950134
0.950928
0.951764
0.952642
0.953563
0.954528
0.95554
0.956601
0.957714
0.958885
0.960116
0.96141
0.962769
0.964198
0.965703
0.967294
0.968976
0.970757
0.972645
0.974653
0.976978
0.979606
0.982318
0.985128
0.988046
0.991078
0.994235
0.997527
1.00097
1.00455
1.0083
1.01221
1.01627
1.02049
1.02486
1.02935
1.03395
1.03863
1.04333
1.04799
0.941921
0.942493
0.943048
0.943625
0.944228
0.944854
0.945506
0.946187
0.946898
0.947643
0.948424
0.949245
0.950107
0.951012
0.951961
0.952955
0.953996
0.955085
0.956227
0.957426
0.958686
0.960008
0.961396
0.962853
0.964386
0.966004
0.967714
0.969526
0.971448
0.973492
0.975857
0.978525
0.981275
0.984116
0.987061
0.990113
0.993283
0.996579
1.00001
1.00357
1.00728
1.01112
1.0151
1.0192
1.02342
1.02774
1.03212
1.03654
1.04095
1.04529
0.939964
0.940559
0.941136
0.941737
0.942363
0.943014
0.943691
0.944396
0.945133
0.945903
0.946709
0.947555
0.948443
0.949374
0.95035
0.95137
0.952438
0.953553
0.954721
0.955946
0.957231
0.958579
0.959993
0.961477
0.963036
0.964678
0.966414
0.968253
0.970205
0.972281
0.974684
0.977391
0.980176
0.983047
0.986015
0.989086
0.992266
0.995561
0.998977
1.00252
1.00618
1.00996
1.01385
1.01784
1.02193
1.02607
1.03026
1.03445
1.03859
1.04264
0.938005
0.938623
0.939222
0.939846
0.940496
0.941171
0.941872
0.942603
0.943364
0.944159
0.94499
0.94586
0.946771
0.947726
0.948726
0.949772
0.950864
0.952004
0.953196
0.954443
0.955751
0.957122
0.95856
0.960068
0.961651
0.963317
0.965076
0.96694
0.968918
0.971024
0.973462
0.976205
0.979023
0.981923
0.984913
0.988
0.991188
0.994482
0.997885
1.0014
1.00502
1.00874
1.01255
1.01644
1.0204
1.02439
1.02839
1.03237
1.03629
1.04008
0.936045
0.936685
0.937307
0.937953
0.938625
0.939324
0.94005
0.940805
0.94159
0.942409
0.943264
0.944156
0.94509
0.946068
0.94709
0.948158
0.949272
0.950435
0.951649
0.952918
0.954246
0.955637
0.957096
0.958625
0.960231
0.96192
0.963702
0.965589
0.967592
0.969725
0.972194
0.974971
0.97782
0.980747
0.983759
0.986861
0.990056
0.993348
0.996739
1.00023
1.0038
1.00747
1.01121
1.015
1.01884
1.0227
1.02655
1.03035
1.03406
1.03764
0.934085
0.934746
0.935389
0.936056
0.936751
0.937473
0.938222
0.939001
0.939811
0.940653
0.94153
0.942444
0.943399
0.944397
0.945439
0.946527
0.947663
0.948846
0.95008
0.951368
0.952714
0.954123
0.9556
0.95715
0.958776
0.960487
0.962292
0.964202
0.966229
0.968387
0.970885
0.973694
0.976572
0.979525
0.982557
0.985674
0.988876
0.992167
0.995546
0.999008
1.00255
1.00616
1.00983
1.01355
1.01728
1.02102
1.02473
1.02838
1.03193
1.03533
0.932123
0.932806
0.933468
0.934156
0.934873
0.935617
0.936389
0.937191
0.938023
0.938888
0.939787
0.940722
0.941696
0.942713
0.943773
0.944879
0.946033
0.947235
0.948487
0.949793
0.951156
0.952581
0.954074
0.955642
0.957288
0.959019
0.960846
0.962779
0.96483
0.967013
0.969539
0.972377
0.975283
0.97826
0.981312
0.984443
0.987653
0.990943
0.994311
0.997753
1.00126
1.00483
1.00844
1.01208
1.01573
1.01936
1.02296
1.02648
1.02989
1.03316
0.93016
0.930863
0.931545
0.932253
0.93299
0.933755
0.934549
0.935373
0.936227
0.937114
0.938033
0.938988
0.939981
0.941014
0.942091
0.943213
0.944383
0.945601
0.94687
0.948192
0.94957
0.951011
0.952519
0.954102
0.955766
0.957517
0.959366
0.961322
0.963397
0.965605
0.968157
0.971024
0.973957
0.976957
0.980028
0.983173
0.986391
0.989681
0.993041
0.996464
0.999944
1.00347
1.00703
1.01061
1.01418
1.01773
1.02124
1.02466
1.02797
1.03114
0.928197
0.928919
0.929618
0.930345
0.931102
0.931887
0.932702
0.933546
0.934421
0.935328
0.936267
0.93724
0.93825
0.939299
0.940391
0.941527
0.942711
0.943944
0.945227
0.946564
0.947957
0.949412
0.950935
0.952533
0.954213
0.955983
0.957853
0.959832
0.96193
0.964163
0.966743
0.969638
0.972596
0.975619
0.978708
0.981867
0.985093
0.988385
0.991738
0.995147
0.998603
1.0021
1.00561
1.00914
1.01266
1.01614
1.01957
1.02292
1.02615
1.02925
0.926232
0.926972
0.927689
0.928434
0.929209
0.930013
0.930846
0.931709
0.932604
0.933529
0.934487
0.935478
0.936504
0.937568
0.938673
0.939821
0.941017
0.942262
0.943558
0.944909
0.946316
0.947785
0.949322
0.950935
0.952631
0.954419
0.956308
0.958309
0.960432
0.962689
0.965296
0.968218
0.971202
0.974247
0.977355
0.980527
0.983762
0.987057
0.990406
0.993804
0.997242
1.00071
1.00419
1.00768
1.01115
1.01459
1.01796
1.02125
1.02444
1.02749
0.924266
0.925024
0.925757
0.926518
0.92731
0.92813
0.928981
0.929862
0.930774
0.931717
0.932691
0.933698
0.93474
0.935818
0.936935
0.938095
0.939301
0.940557
0.941864
0.943226
0.944647
0.94613
0.947682
0.94931
0.951022
0.952827
0.954736
0.956758
0.958904
0.961185
0.963818
0.966768
0.969776
0.972842
0.975969
0.979156
0.9824
0.985699
0.989047
0.992437
0.995862
0.999311
1.00277
1.00623
1.00967
1.01307
1.01641
1.01967
1.02283
1.02586
0.922299
0.923073
0.923821
0.924598
0.925405
0.926241
0.927107
0.928003
0.928931
0.929889
0.930879
0.931901
0.932956
0.934047
0.935177
0.936347
0.937563
0.938827
0.940144
0.941517
0.94295
0.944447
0.946013
0.947657
0.949386
0.951209
0.953137
0.95518
0.957348
0.959653
0.962312
0.965287
0.968319
0.971407
0.974552
0.977753
0.981008
0.984313
0.987662
0.991049
0.994467
0.997904
1.00135
1.00479
1.00821
1.01159
1.01492
1.01816
1.02131
1.02434
0.920331
0.92112
0.921883
0.922673
0.923494
0.924344
0.925223
0.926133
0.927074
0.928045
0.929049
0.930084
0.931153
0.932256
0.933396
0.934577
0.935802
0.937075
0.9384
0.939783
0.941227
0.942736
0.944318
0.945977
0.947724
0.949566
0.951513
0.953577
0.955767
0.958094
0.960777
0.963778
0.966833
0.969942
0.973105
0.976321
0.979587
0.9829
0.986253
0.989641
0.993057
0.99649
0.99993
1.00336
1.00678
1.01015
1.01348
1.01672
1.01988
1.02292
0.918362
0.919165
0.91994
0.920744
0.921577
0.922439
0.92333
0.924251
0.925202
0.926185
0.9272
0.928247
0.929327
0.930441
0.931593
0.932783
0.934017
0.935299
0.936632
0.938024
0.939478
0.941
0.942596
0.944272
0.946036
0.947897
0.949865
0.951949
0.95416
0.956509
0.959215
0.96224
0.965318
0.968448
0.971629
0.97486
0.978139
0.981461
0.984822
0.988215
0.991634
0.995069
0.998511
1.00195
1.00536
1.00875
1.01208
1.01534
1.01852
1.02159
0.916391
0.917207
0.917994
0.918809
0.919653
0.920525
0.921425
0.922355
0.923316
0.924308
0.925332
0.926389
0.927479
0.928604
0.929765
0.930966
0.932209
0.933499
0.934841
0.936242
0.937706
0.939239
0.940849
0.942541
0.944324
0.946204
0.948192
0.950297
0.952529
0.954899
0.957628
0.960676
0.963775
0.966924
0.970123
0.97337
0.976663
0.979997
0.983368
0.986771
0.990198
0.993642
0.997094
1.00054
1.00397
1.00737
1.01073
1.01402
1.01723
1.02033
0.91442
0.915247
0.916043
0.916867
0.917721
0.918601
0.91951
0.920447
0.921415
0.922414
0.923445
0.924509
0.925608
0.926742
0.927913
0.929123
0.930376
0.931676
0.933027
0.934437
0.935911
0.937457
0.93908
0.940788
0.942588
0.944487
0.946495
0.94862
0.950873
0.953262
0.956013
0.959083
0.962203
0.965371
0.968588
0.971851
0.975158
0.978506
0.981891
0.985307
0.988748
0.992208
0.995676
0.999143
1.0026
1.00602
1.00941
1.01273
1.01598
1.01913
0.912446
0.913283
0.914087
0.914919
0.91578
0.916667
0.917582
0.918525
0.919498
0.920502
0.921539
0.922609
0.923715
0.924857
0.926036
0.927256
0.928519
0.929829
0.931191
0.932611
0.934096
0.935653
0.937289
0.939012
0.940829
0.942746
0.944773
0.946918
0.94919
0.951599
0.95437
0.957461
0.960601
0.963788
0.967022
0.970302
0.973625
0.976989
0.98039
0.983823
0.987283
0.990762
0.994254
0.997747
1.00123
1.00469
1.00812
1.01149
1.01479
1.01799
0.910471
0.911315
0.912125
0.912962
0.913829
0.914721
0.91564
0.916588
0.917565
0.918574
0.919615
0.92069
0.921801
0.922949
0.924136
0.925365
0.926638
0.927959
0.929332
0.930763
0.93226
0.93383
0.935479
0.937216
0.939049
0.940983
0.943028
0.945191
0.947481
0.949908
0.952698
0.955809
0.958967
0.962172
0.965424
0.96872
0.972061
0.975442
0.978862
0.982316
0.985798
0.989304
0.992825
0.996352
0.999874
1.00338
1.00685
1.01027
1.01362
1.01689
0.908495
0.909343
0.910156
0.910997
0.911867
0.912763
0.913686
0.914637
0.915617
0.916628
0.917672
0.918751
0.919866
0.92102
0.922214
0.923451
0.924733
0.926065
0.92745
0.928894
0.930404
0.931987
0.93365
0.935401
0.937248
0.939198
0.941259
0.943438
0.945745
0.948188
0.950996
0.954125
0.957301
0.960523
0.963792
0.967106
0.970464
0.973865
0.977306
0.980784
0.984293
0.98783
0.991385
0.994952
0.998518
1.00207
1.0056
1.00908
1.01249
1.01582
0.906516
0.907367
0.908181
0.909024
0.909895
0.910792
0.911717
0.91267
0.913652
0.914666
0.915713
0.916794
0.917913
0.919071
0.920271
0.921515
0.922806
0.924149
0.925546
0.927003
0.928527
0.930124
0.931801
0.933567
0.935428
0.937392
0.939467
0.941661
0.943982
0.946439
0.949263
0.952409
0.955601
0.95884
0.962125
0.965457
0.968834
0.972256
0.975721
0.979225
0.982766
0.986337
0.989933
0.993543
0.997159
1.00077
1.00435
1.0079
1.01138
1.01479
0.904537
0.905387
0.9062
0.907041
0.907912
0.90881
0.909735
0.910688
0.911672
0.912687
0.913736
0.91482
0.915941
0.917103
0.918308
0.919559
0.920859
0.922211
0.923621
0.925091
0.92663
0.928241
0.929933
0.931713
0.933588
0.935565
0.937652
0.939858
0.942191
0.944661
0.947499
0.95066
0.953867
0.957121
0.960423
0.963772
0.96717
0.970614
0.974104
0.977639
0.981213
0.984824
0.988463
0.992123
0.995792
0.999459
1.00311
1.00672
1.01029
1.01377
0.902555
0.903403
0.904213
0.905051
0.905919
0.906815
0.907739
0.908692
0.909676
0.910692
0.911742
0.912828
0.913952
0.915118
0.916327
0.917584
0.918892
0.920254
0.921675
0.923159
0.924712
0.926338
0.928045
0.929838
0.931726
0.933715
0.935814
0.93803
0.940374
0.942855
0.945704
0.948878
0.952099
0.955368
0.958685
0.962053
0.96547
0.968939
0.972457
0.976023
0.979634
0.983287
0.986973
0.990685
0.994412
0.998141
1.00186
1.00555
1.00919
1.01276
0.900572
0.901416
0.90222
0.903053
0.903917
0.904809
0.905731
0.906682
0.907666
0.908682
0.909733
0.91082
0.911947
0.913116
0.91433
0.915592
0.916908
0.918279
0.919711
0.921208
0.922773
0.924414
0.926135
0.927942
0.929842
0.931842
0.933951
0.936176
0.938529
0.941018
0.943877
0.947063
0.950296
0.953578
0.956912
0.960297
0.963736
0.967229
0.970776
0.974376
0.978027
0.981724
0.98546
0.989226
0.993013
0.996807
1.0006
1.00436
1.00809
1.01175
0.898588
0.899426
0.900223
0.901049
0.901907
0.902794
0.903711
0.90466
0.905641
0.906657
0.907708
0.908797
0.909926
0.911098
0.912316
0.913585
0.914907
0.916287
0.917729
0.919237
0.920816
0.922469
0.924203
0.926022
0.927934
0.929944
0.932061
0.934295
0.936655
0.939152
0.942019
0.945214
0.948458
0.951754
0.955102
0.958505
0.961965
0.965484
0.969062
0.972698
0.976389
0.980131
0.983917
0.987739
0.991587
0.995447
0.999307
1.00315
1.00696
1.01072
0.896603
0.897433
0.898222
0.89904
0.89989
0.900771
0.901682
0.902626
0.903605
0.904618
0.905669
0.906758
0.90789
0.909065
0.910288
0.911562
0.912891
0.91428
0.915731
0.91725
0.918839
0.920504
0.922249
0.924079
0.926001
0.92802
0.930145
0.932385
0.934751
0.937254
0.940128
0.943331
0.946585
0.949892
0.953255
0.956676
0.960158
0.963703
0.967312
0.970984
0.974716
0.978504
0.982341
0.986218
0.990126
0.994052
0.997986
1.00191
1.00581
1.00966
0.894618
0.895439
0.896218
0.897026
0.897868
0.89874
0.899645
0.900583
0.901557
0.902567
0.903617
0.904706
0.905839
0.907018
0.908245
0.909525
0.910861
0.912257
0.913717
0.915245
0.916845
0.918519
0.920274
0.922113
0.924042
0.926068
0.928199
0.930445
0.932816
0.935323
0.938203
0.941413
0.944675
0.947993
0.951369
0.954808
0.958312
0.961884
0.965524
0.969232
0.973004
0.976837
0.980723
0.984654
0.988621
0.992614
0.99662
1.00063
1.00462
1.00857
0.892631
0.893443
0.894211
0.895009
0.895841
0.896705
0.897601
0.898532
0.8995
0.900506
0.901553
0.902642
0.903776
0.904957
0.906189
0.907474
0.908817
0.91022
0.911689
0.913225
0.914832
0.916515
0.918276
0.920122
0.922057
0.924089
0.926225
0.928474
0.930849
0.933359
0.936242
0.939458
0.942727
0.946055
0.949444
0.9529
0.956426
0.960023
0.963694
0.967437
0.971248
0.975123
0.979056
0.983039
0.987064
0.991121
0.995199
0.999289
1.00337
1.00744
0.890644
0.891446
0.892203
0.892989
0.893811
0.894664
0.895551
0.896475
0.897436
0.898437
0.89948
0.900567
0.901701
0.902884
0.904119
0.90541
0.906759
0.908169
0.909645
0.911188
0.912802
0.91449
0.916257
0.918107
0.920046
0.922081
0.92422
0.926472
0.928848
0.93136
0.934245
0.937465
0.94074
0.944076
0.947478
0.95095
0.954496
0.958119
0.961818
0.965593
0.969441
0.973356
0.977333
0.981365
0.985444
0.989565
0.993716
0.99789
1.00207
1.00625
0.888657
0.889448
0.890193
0.890968
0.891778
0.892621
0.893498
0.894412
0.895365
0.89636
0.897398
0.898483
0.899616
0.9008
0.902039
0.903334
0.904688
0.906104
0.907585
0.909134
0.910753
0.912446
0.914216
0.916069
0.918009
0.920045
0.922185
0.924437
0.926813
0.929325
0.932212
0.935433
0.938713
0.942057
0.94547
0.948957
0.952522
0.956167
0.959892
0.963697
0.967576
0.971527
0.975544
0.979622
0.983755
0.987937
0.992162
0.996421
1.0007
1.00499
0.88667
0.88745
0.888182
0.888945
0.889743
0.890575
0.891441
0.892346
0.89329
0.894278
0.895311
0.896392
0.897523
0.898707
0.899948
0.901246
0.902604
0.904025
0.90551
0.907063
0.908686
0.910381
0.912152
0.914006
0.915946
0.917981
0.920119
0.92237
0.924744
0.927255
0.93014
0.933362
0.936645
0.939995
0.943417
0.946917
0.950499
0.954164
0.957912
0.961741
0.965648
0.96963
0.973683
0.977803
0.981987
0.986231
0.990529
0.994876
0.999261
1.00367
0.884682
0.885451
0.88617
0.88692
0.887707
0.888526
0.889382
0.890276
0.891212
0.892192
0.893219
0.894295
0.895423
0.896607
0.897847
0.899147
0.900508
0.901932
0.90342
0.904975
0.906599
0.908295
0.910066
0.911918
0.913856
0.915889
0.918023
0.920271
0.922642
0.925149
0.928031
0.931252
0.934536
0.93789
0.94132
0.944831
0.948426
0.952106
0.955871
0.95972
0.96365
0.967658
0.971743
0.975903
0.980136
0.98444
0.988812
0.993247
0.997737
1.00227
0.882695
0.883451
0.884158
0.884895
0.885669
0.886476
0.887321
0.888205
0.889131
0.890103
0.891123
0.892194
0.893319
0.8945
0.895739
0.897039
0.8984
0.899825
0.901314
0.902869
0.904493
0.906187
0.907956
0.909805
0.91174
0.913767
0.915897
0.918139
0.920505
0.923007
0.925885
0.929102
0.932386
0.935742
0.939176
0.942694
0.946298
0.949989
0.953767
0.95763
0.961576
0.965606
0.969719
0.973915
0.978195
0.982558
0.987003
0.991526
0.996122
1.00078
0.880707
0.881451
0.882145
0.882869
0.88363
0.884426
0.885258
0.886132
0.887048
0.888012
0.889024
0.89009
0.89121
0.892387
0.893624
0.894921
0.896281
0.897704
0.899192
0.900745
0.902366
0.904057
0.905822
0.907666
0.909595
0.911617
0.91374
0.915975
0.918334
0.92083
0.923701
0.926913
0.930194
0.933549
0.936985
0.940506
0.944114
0.94781
0.951594
0.955465
0.959423
0.963469
0.967606
0.971836
0.97616
0.98058
0.985095
0.989705
0.994405
0.999188
0.87872
0.879452
0.880132
0.880843
0.881591
0.882375
0.883196
0.884058
0.884965
0.88592
0.886924
0.887983
0.889097
0.890269
0.891502
0.892795
0.894151
0.895571
0.897054
0.898603
0.900219
0.901905
0.903664
0.905502
0.907424
0.909438
0.911553
0.913779
0.916129
0.918617
0.92148
0.924684
0.927959
0.931311
0.934745
0.938264
0.941871
0.945566
0.949349
0.953221
0.957185
0.961244
0.965401
0.969661
0.974026
0.9785
0.983082
0.987774
0.992574
0.997478
0.876733
0.877453
0.878119
0.878817
0.879553
0.880324
0.881133
0.881985
0.882882
0.883827
0.884823
0.885874
0.886981
0.888147
0.889373
0.890661
0.892011
0.893424
0.894902
0.896444
0.898053
0.899731
0.901482
0.903311
0.905224
0.907229
0.909334
0.91155
0.91389
0.916368
0.91922
0.922415
0.925682
0.929026
0.932453
0.935965
0.939564
0.943251
0.947028
0.950896
0.954862
0.958928
0.963102
0.967388
0.971789
0.97631
0.980953
0.985721
0.990615
0.995634
0.874747
0.875454
0.876108
0.876792
0.877515
0.878274
0.879072
0.879912
0.880798
0.881734
0.882722
0.883764
0.884863
0.886021
0.887239
0.888519
0.889861
0.891265
0.892734
0.894267
0.895866
0.897535
0.899276
0.901095
0.902997
0.90499
0.907084
0.909289
0.911617
0.914083
0.916923
0.920105
0.92336
0.926693
0.930108
0.933607
0.937192
0.940865
0.944629
0.948488
0.95245
0.95652
0.960706
0.965012
0.969443
0.974004
0.978699
0.983534
0.988513
0.993641
0.872761
0.873456
0.874097
0.874769
0.875479
0.876226
0.877012
0.877841
0.878716
0.879642
0.880619
0.881652
0.882742
0.88389
0.885099
0.886369
0.8877
0.889094
0.890551
0.892073
0.89366
0.895317
0.897046
0.898852
0.900742
0.902723
0.904803
0.906994
0.909309
0.911762
0.914587
0.917753
0.920993
0.92431
0.927707
0.931187
0.934751
0.938404
0.94215
0.945995
0.949949
0.954017
0.958209
0.962528
0.966979
0.97157
0.976306
0.981198
0.986253
0.99148
0.870776
0.87146
0.872088
0.872747
0.873446
0.87418
0.874954
0.875772
0.876636
0.87755
0.878517
0.879539
0.880618
0.881755
0.882952
0.88421
0.885529
0.88691
0.888354
0.889862
0.891435
0.893078
0.894793
0.896585
0.89846
0.900426
0.902492
0.904668
0.906967
0.909404
0.912212
0.91536
0.918579
0.921874
0.925248
0.928703
0.932241
0.935867
0.93959
0.943417
0.947357
0.951418
0.955608
0.95993
0.964391
0.968999
0.973764
0.9787
0.983819
0.989134
0.868792
0.869465
0.870081
0.870729
0.871415
0.872137
0.872899
0.873705
0.874558
0.87546
0.876415
0.877425
0.878491
0.879616
0.8808
0.882043
0.883348
0.884714
0.886142
0.887634
0.889192
0.890818
0.892517
0.894293
0.896152
0.898101
0.90015
0.902309
0.904591
0.907011
0.909799
0.912923
0.916118
0.919386
0.92273
0.926153
0.929658
0.933254
0.936949
0.940752
0.944674
0.94872
0.952898
0.957212
0.961669
0.966281
0.971061