/*--------------------------------*- C++ -*----------------------------------*\
  =========                 |
  \\      /  F ield         | OpenFOAM: The Open Source CFD Toolbox
   \\    /   O peration     | Website:  https://openfoam.org
    \\  /    A nd           | Version:  9
     \\/     M anipulation  |
\*---------------------------------------------------------------------------*/
FoamFile
{
    format      ascii;
    class       volVectorField;
    location    "0.05";
    object      U;
}
// * * * * * * * * * * * * * * * * * * * * * * * * * * * * * * * * * * * * * //

dimensions      [0 1 -1 0 0 0 0];

internalField   nonuniform List<vector> 
5000
(
(2.82795e-06 0 -0.00116294)
(5.28207e-06 0 -0.00273127)
(3.41261e-06 0 -0.00405662)
(3.36886e-06 0 -0.00541568)
(4.43107e-06 0 -0.00684803)
(5.66695e-06 0 -0.0083626)
(7.26179e-06 0 -0.00996311)
(9.22677e-06 0 -0.0116561)
(1.15638e-05 0 -0.013451)
(1.42776e-05 0 -0.0153587)
(1.73761e-05 0 -0.0173917)
(2.08751e-05 0 -0.0195629)
(2.47999e-05 0 -0.0218856)
(2.91856e-05 0 -0.0243735)
(3.40753e-05 0 -0.0270406)
(3.95186e-05 0 -0.0299016)
(4.55712e-05 0 -0.0329717)
(5.22946e-05 0 -0.0362669)
(5.9758e-05 0 -0.039804)
(6.80396e-05 0 -0.0436007)
(7.72297e-05 0 -0.0476758)
(8.74349e-05 0 -0.0520493)
(9.87839e-05 0 -0.0567433)
(0.000111436 0 -0.061782)
(0.000125597 0 -0.0671932)
(0.000141534 0 -0.0730098)
(0.000159594 0 -0.0792722)
(0.000180197 0 -0.0860306)
(0.000203773 0 -0.0933458)
(0.000230684 0 -0.101284)
(0.000262423 0 -0.110636)
(0.000299045 0 -0.121223)
(0.000339663 0 -0.132115)
(0.000385171 0 -0.143345)
(0.000436706 0 -0.154968)
(0.000495545 0 -0.167045)
(0.000563172 0 -0.179643)
(0.000641524 0 -0.192833)
(0.00073335 0 -0.2067)
(0.000842497 0 -0.221355)
(0.000973234 0 -0.236958)
(0.00112687 0 -0.253697)
(0.0012946 0 -0.271677)
(0.00145224 0 -0.290628)
(0.00157578 0 -0.309585)
(0.00170011 0 -0.327001)
(0.00202099 0 -0.3416)
(0.00316655 0 -0.352895)
(0.00737047 0 -0.360938)
(0.0219526 0 -0.389143)
(-1.97326e-05 0 -0.00114764)
(-1.02253e-05 0 -0.00271508)
(-1.12733e-05 0 -0.00404251)
(-9.69997e-06 0 -0.0054061)
(-6.62209e-06 0 -0.00683936)
(-3.26331e-06 0 -0.00835533)
(8.99605e-07 0 -0.00995752)
(6.00627e-06 0 -0.0116523)
(1.21236e-05 0 -0.013449)
(1.92954e-05 0 -0.0153585)
(2.75629e-05 0 -0.0173933)
(3.6976e-05 0 -0.0195663)
(4.76033e-05 0 -0.0218909)
(5.95367e-05 0 -0.0243807)
(7.28916e-05 0 -0.02705)
(8.78033e-05 0 -0.0299132)
(0.000104426 0 -0.0329859)
(0.000122934 0 -0.0362838)
(0.000143522 0 -0.0398239)
(0.000166413 0 -0.0436238)
(0.000191863 0 -0.0477024)
(0.000220173 0 -0.0520799)
(0.0002517 0 -0.0567782)
(0.000286883 0 -0.0618217)
(0.000326272 0 -0.0672383)
(0.000370565 0 -0.073061)
(0.000420636 0 -0.0793302)
(0.000477501 0 -0.0860963)
(0.000542214 0 -0.09342)
(0.00061568 0 -0.101367)
(0.000703405 0 -0.110729)
(0.00080577 0 -0.12133)
(0.000919085 0 -0.132236)
(0.00104586 0 -0.143484)
(0.00118919 0 -0.155127)
(0.00135267 0 -0.167226)
(0.00154056 0 -0.179849)
(0.00175833 0 -0.193068)
(0.0020134 0 -0.206968)
(0.0023156 0 -0.221664)
(0.00267583 0 -0.237314)
(0.0031006 0 -0.254103)
(0.0035832 0 -0.272125)
(0.00410658 0 -0.291102)
(0.00469989 0 -0.310098)
(0.00559954 0 -0.327676)
(0.0075384 0 -0.342832)
(0.0124603 0 -0.355899)
(0.0248191 0 -0.369945)
(0.0550064 0 -0.414899)
(-6.80001e-05 0 -0.00116469)
(-5.54997e-05 0 -0.00273554)
(-5.00707e-05 0 -0.00406219)
(-4.42852e-05 0 -0.00542385)
(-3.83143e-05 0 -0.00685717)
(-3.20346e-05 0 -0.00837433)
(-2.48434e-05 0 -0.00997815)
(-1.6435e-05 0 -0.0116747)
(-6.62759e-06 0 -0.0134731)
(4.71665e-06 0 -0.0153844)
(1.7724e-05 0 -0.0174208)
(3.25198e-05 0 -0.0195954)
(4.92439e-05 0 -0.0219216)
(6.80607e-05 0 -0.024413)
(8.91631e-05 0 -0.0270838)
(0.000112772 0 -0.0299487)
(0.000139138 0 -0.033023)
(0.000168541 0 -0.0363227)
(0.000201297 0 -0.0398645)
(0.000237765 0 -0.0436663)
(0.000278358 0 -0.0477468)
(0.000323553 0 -0.0521263)
(0.000373919 0 -0.0568268)
(0.000430144 0 -0.0618728)
(0.000493082 0 -0.0672922)
(0.0005638 0 -0.0731181)
(0.000643614 0 -0.079391)
(0.000734032 0 -0.0861614)
(0.000836615 0 -0.0934895)
(0.000952724 0 -0.101441)
(0.00109259 0 -0.110805)
(0.00125702 0 -0.121411)
(0.00143875 0 -0.132325)
(0.00164182 0 -0.143583)
(0.00187123 0 -0.155238)
(0.00213281 0 -0.167353)
(0.0024335 0 -0.179995)
(0.00278227 0 -0.193238)
(0.00319108 0 -0.20717)
(0.00367562 0 -0.221906)
(0.00425428 0 -0.237603)
(0.00494369 0 -0.25444)
(0.0057541 0 -0.272502)
(0.00670585 0 -0.291527)
(0.00791935 0 -0.310685)
(0.00983519 0 -0.328837)
(0.0135545 0 -0.345617)
(0.0216133 0 -0.362899)
(0.038928 0 -0.387909)
(0.0730612 0 -0.454138)
(-0.000126104 0 -0.00118363)
(-0.000114456 0 -0.00276526)
(-0.000104954 0 -0.00408803)
(-9.61462e-05 0 -0.00544538)
(-8.75663e-05 0 -0.00687713)
(-7.85993e-05 0 -0.00839486)
(-6.8543e-05 0 -0.0100003)
(-5.69874e-05 0 -0.0116989)
(-4.36674e-05 0 -0.0134994)
(-2.83705e-05 0 -0.0154129)
(-1.08982e-05 0 -0.0174516)
(8.94702e-06 0 -0.0196284)
(3.13763e-05 0 -0.0219567)
(5.66291e-05 0 -0.0244503)
(8.49766e-05 0 -0.0271234)
(0.000116725 0 -0.0299905)
(0.000152216 0 -0.0330671)
(0.000191835 0 -0.0363691)
(0.000236012 0 -0.0399133)
(0.000285234 0 -0.0437175)
(0.000340059 0 -0.0478006)
(0.00040113 0 -0.0521828)
(0.000469208 0 -0.0568862)
(0.000545213 0 -0.0619354)
(0.000630272 0 -0.0673584)
(0.00072578 0 -0.0731884)
(0.000833432 0 -0.0794662)
(0.000955171 0 -0.0862418)
(0.00109302 0 -0.0935755)
(0.00124873 0 -0.101531)
(0.00143703 0 -0.110899)
(0.0016594 0 -0.121512)
(0.00190502 0 -0.132437)
(0.00217922 0 -0.143709)
(0.00248871 0 -0.155383)
(0.00284128 0 -0.16752)
(0.00324637 0 -0.180191)
(0.00371619 0 -0.193472)
(0.004267 0 -0.207451)
(0.00492023 0 -0.222247)
(0.0057021 0 -0.238019)
(0.00664098 0 -0.254943)
(0.00776748 0 -0.273108)
(0.0091409 0 -0.292297)
(0.0109547 0 -0.311845)
(0.0137682 0 -0.331003)
(0.018799 0 -0.350134)
(0.0285326 0 -0.372488)
(0.047464 0 -0.408015)
(0.0793529 0 -0.488926)
(-0.00019095 0 -0.00120097)
(-0.000182657 0 -0.00279595)
(-0.000172561 0 -0.00411858)
(-0.000162687 0 -0.00547302)
(-0.000152789 0 -0.00690364)
(-0.000142105 0 -0.00842239)
(-0.000129964 0 -0.0100301)
(-0.000115929 0 -0.0117315)
(-9.96876e-05 0 -0.0135352)
(-8.0985e-05 0 -0.0154519)
(-5.958e-05 0 -0.0174939)
(-3.52267e-05 0 -0.019674)
(-7.65751e-06 0 -0.0220058)
(2.34283e-05 0 -0.0245029)
(5.83699e-05 0 -0.0271795)
(9.7549e-05 0 -0.0300504)
(0.000141393 0 -0.0331307)
(0.000190378 0 -0.0364367)
(0.000245041 0 -0.039985)
(0.000305988 0 -0.0437936)
(0.000373904 0 -0.0478812)
(0.000449585 0 -0.0522683)
(0.000533964 0 -0.056977)
(0.000628164 0 -0.0620319)
(0.000733554 0 -0.0674613)
(0.000851811 0 -0.0732986)
(0.000984951 0 -0.0795844)
(0.00113528 0 -0.086369)
(0.00130521 0 -0.0937122)
(0.00149685 0 -0.101677)
(0.00172894 0 -0.111054)
(0.00200369 0 -0.121681)
(0.00230706 0 -0.132625)
(0.00264536 0 -0.14392)
(0.00302668 0 -0.155622)
(0.00346043 0 -0.167794)
(0.00395815 0 -0.180508)
(0.00453478 0 -0.193842)
(0.00521026 0 -0.207889)
(0.00601085 0 -0.222771)
(0.00696934 0 -0.23865)
(0.00812406 0 -0.255705)
(0.00952256 0 -0.274039)
(0.0112528 0 -0.293498)
(0.0135495 0 -0.313596)
(0.0170102 0 -0.33395)
(0.0228192 0 -0.355512)
(0.0331219 0 -0.382381)
(0.0514823 0 -0.425444)
(0.0784099 0 -0.512937)
(-0.000269819 0 -0.00121367)
(-0.000264715 0 -0.00282084)
(-0.000255491 0 -0.00414654)
(-0.000245802 0 -0.00550109)
(-0.000235535 0 -0.00693239)
(-0.000223944 0 -0.00845331)
(-0.000210462 0 -0.0100642)
(-0.00019465 0 -0.0117694)
(-0.00017616 0 -0.0135772)
(-0.000154707 0 -0.0154981)
(-0.000130019 0 -0.0175443)
(-0.00010182 0 -0.0197287)
(-6.98004e-05 0 -0.0220649)
(-3.36118e-05 0 -0.0245665)
(7.14354e-06 0 -0.0272477)
(5.29119e-05 0 -0.0301233)
(0.000104194 0 -0.0332086)
(0.00016155 0 -0.0365197)
(0.000225608 0 -0.0400735)
(0.000297073 0 -0.0438876)
(0.00037675 0 -0.0479813)
(0.00046556 0 -0.0523748)
(0.000564587 0 -0.0570903)
(0.000675128 0 -0.0621528)
(0.000798758 0 -0.0675906)
(0.000937382 0 -0.0734372)
(0.00109327 0 -0.0797334)
(0.00126902 0 -0.0865295)
(0.00146735 0 -0.093885)
(0.00169063 0 -0.101862)
(0.00196122 0 -0.111252)
(0.00228202 0 -0.121898)
(0.0026359 0 -0.132865)
(0.00302989 0 -0.14419)
(0.00347308 0 -0.155927)
(0.00397609 0 -0.168142)
(0.00455201 0 -0.180909)
(0.00521782 0 -0.194307)
(0.0059961 0 -0.208436)
(0.00691637 0 -0.223422)
(0.00801574 0 -0.23943)
(0.00933903 0 -0.256648)
(0.0109447 0 -0.275196)
(0.0129371 0 -0.294987)
(0.015565 0 -0.315701)
(0.0194099 0 -0.337265)
(0.0255404 0 -0.361055)
(0.0356368 0 -0.391602)
(0.0520783 0 -0.439613)
(0.0730379 0 -0.528329)
(-0.000372687 0 -0.00122361)
(-0.000369398 0 -0.00284146)
(-0.000360535 0 -0.00417192)
(-0.000350869 0 -0.00552891)
(-0.000340226 0 -0.00696251)
(-0.000327849 0 -0.00848664)
(-0.000313265 0 -0.0101016)
(-0.00029601 0 -0.0118115)
(-0.000275681 0 -0.0136241)
(-0.000251945 0 -0.01555)
(-0.000224496 0 -0.0176012)
(-0.000193019 0 -0.0197907)
(-0.000157167 0 -0.0221319)
(-0.00011655 0 -0.0246387)
(-7.07203e-05 0 -0.0273253)
(-1.91749e-05 0 -0.0302064)
(3.86524e-05 0 -0.0332974)
(0.000103393 0 -0.0366144)
(0.000175754 0 -0.0401743)
(0.00025653 0 -0.0439949)
(0.000346619 0 -0.0480954)
(0.000447051 0 -0.0524961)
(0.000559034 0 -0.0572195)
(0.000684005 0 -0.0622905)
(0.000823703 0 -0.0677375)
(0.000980213 0 -0.0735945)
(0.001156 0 -0.0799022)
(0.00135385 0 -0.086711)
(0.00157673 0 -0.09408)
(0.00182719 0 -0.102071)
(0.00213083 0 -0.111476)
(0.00249102 0 -0.122142)
(0.00288763 0 -0.133135)
(0.0033281 0 -0.144492)
(0.00382221 0 -0.156268)
(0.00438127 0 -0.16853)
(0.00501928 0 -0.181354)
(0.00575441 0 -0.194825)
(0.00661059 0 -0.209043)
(0.00761878 0 -0.224141)
(0.00881771 0 -0.240292)
(0.0102548 0 -0.257688)
(0.0119926 0 -0.276471)
(0.0141398 0 -0.296617)
(0.016936 0 -0.317957)
(0.0209043 0 -0.340664)
(0.0269454 0 -0.366408)
(0.0362486 0 -0.399855)
(0.050062 0 -0.450879)
(0.065201 0 -0.53758)
(-0.00050443 0 -0.00123294)
(-0.000501884 0 -0.00286119)
(-0.000492458 0 -0.00419721)
(-0.000482169 0 -0.00555775)
(-0.000470705 0 -0.00699448)
(-0.000457263 0 -0.00852232)
(-0.000441444 0 -0.0101419)
(-0.00042275 0 -0.0118569)
(-0.000400706 0 -0.013675)
(-0.000374917 0 -0.0156064)
(-0.000345027 0 -0.0176633)
(-0.000310675 0 -0.0198585)
(-0.000271471 0 -0.0222054)
(-0.000226979 0 -0.024718)
(-0.000176704 0 -0.0274106)
(-0.00012009 0 -0.0302978)
(-5.65153e-05 0 -0.0333951)
(1.47135e-05 0 -0.0367186)
(9.43711e-05 0 -0.0402852)
(0.000183323 0 -0.0441129)
(0.000282546 0 -0.0482208)
(0.000393155 0 -0.0526294)
(0.000516455 0 -0.0573613)
(0.000653993 0 -0.0624414)
(0.000807629 0 -0.0678985)
(0.000979579 0 -0.0737665)
(0.00117244 0 -0.0800864)
(0.00138915 0 -0.0869085)
(0.00163281 0 -0.0942917)
(0.00190609 0 -0.102297)
(0.00223731 0 -0.111718)
(0.00263006 0 -0.122406)
(0.00306132 0 -0.133427)
(0.00353871 0 -0.144817)
(0.00407227 0 -0.156633)
(0.00467347 0 -0.168945)
(0.00535654 0 -0.18183)
(0.00613989 0 -0.195374)
(0.00704739 0 -0.209685)
(0.00810953 0 -0.224901)
(0.00936398 0 -0.241197)
(0.0108566 0 -0.258775)
(0.0126475 0 -0.277797)
(0.0148377 0 -0.298295)
(0.01764 0 -0.320226)
(0.0214935 0 -0.343959)
(0.0271047 0 -0.371321)
(0.0352216 0 -0.406891)
(0.0462037 0 -0.459348)
(0.0562669 0 -0.542125)
(-0.000665939 0 -0.00124292)
(-0.000663722 0 -0.00288236)
(-0.000653219 0 -0.00422466)
(-0.000641854 0 -0.00558942)
(-0.000629189 0 -0.00702966)
(-0.000614371 0 -0.00856139)
(-0.000597083 0 -0.0101856)
(-0.000576817 0 -0.011906)
(-0.000553036 0 -0.01373)
(-0.000525276 0 -0.0156675)
(-0.000493122 0 -0.0177305)
(-0.000456162 0 -0.0199319)
(-0.00041396 0 -0.0222852)
(-0.000366032 0 -0.0248042)
(-0.000311838 0 -0.0275033)
(-0.000250773 0 -0.0303973)
(-0.000182163 0 -0.0335015)
(-0.000105261 0 -0.0368321)
(-1.92358e-05 0 -0.0404061)
(7.68349e-05 0 -0.0442415)
(0.000183987 0 -0.0483575)
(0.0003034 0 -0.0527746)
(0.000436449 0 -0.0575156)
(0.000584763 0 -0.0626056)
(0.000750284 0 -0.0680734)
(0.000935307 0 -0.0739531)
(0.00114251 0 -0.0802859)
(0.0013749 0 -0.0871221)
(0.00163568 0 -0.0945201)
(0.00192754 0 -0.10254)
(0.00228087 0 -0.111979)
(0.00269921 0 -0.12269)
(0.00315689 0 -0.133739)
(0.00366145 0 -0.145163)
(0.0042227 0 -0.157021)
(0.00485177 0 -0.169383)
(0.00556242 0 -0.182329)
(0.00637226 0 -0.195948)
(0.00730377 0 -0.210352)
(0.00838502 0 -0.225682)
(0.00965006 0 -0.242121)
(0.0111394 0 -0.259875)
(0.0129047 0 -0.279123)
(0.0150307 0 -0.299945)
(0.0176901 0 -0.322398)
(0.0212294 0 -0.346989)
(0.026165 0 -0.375603)
(0.0328858 0 -0.412552)
(0.0411205 0 -0.465216)
(0.0469502 0 -0.543157)
(-0.000856071 0 -0.00125378)
(-0.000854254 0 -0.00290554)
(-0.000842637 0 -0.00425497)
(-0.000830155 0 -0.0056246)
(-0.000816235 0 -0.00706873)
(-0.000799959 0 -0.00860448)
(-0.000781108 0 -0.0102334)
(-0.000759204 0 -0.0119593)
(-0.000733681 0 -0.0137893)
(-0.000704023 0 -0.0157331)
(-0.000669756 0 -0.0178027)
(-0.000630415 0 -0.0200107)
(-0.000585518 0 -0.0223708)
(-0.000534538 0 -0.0248967)
(-0.000476892 0 -0.0276029)
(-0.000411932 0 -0.0305041)
(-0.00033894 0 -0.0336157)
(-0.000257124 0 -0.036954)
(-0.000165609 0 -0.040536)
(-6.34286e-05 0 -0.0443797)
(5.0494e-05 0 -0.0485043)
(0.000177384 0 -0.0529306)
(0.000318661 0 -0.0576812)
(0.000476002 0 -0.0627816)
(0.000651393 0 -0.0682607)
(0.000847168 0 -0.0741527)
(0.00106602 0 -0.0804989)
(0.00131098 0 -0.0873497)
(0.00158525 0 -0.094763)
(0.00189143 0 -0.102799)
(0.00226136 0 -0.112255)
(0.00269823 0 -0.122989)
(0.00317401 0 -0.134067)
(0.00369581 0 -0.145526)
(0.00427282 0 -0.157425)
(0.00491527 0 -0.169837)
(0.00563575 0 -0.182842)
(0.00645015 0 -0.196533)
(0.00737817 0 -0.211025)
(0.00844377 0 -0.226463)
(0.00967505 0 -0.243033)
(0.0111038 0 -0.260946)
(0.0127688 0 -0.280392)
(0.0147325 0 -0.301489)
(0.0171223 0 -0.324371)
(0.0201933 0 -0.349627)
(0.024291 0 -0.379128)
(0.0295257 0 -0.416823)
(0.035205 0 -0.468838)
(0.0375426 0 -0.541683)
(-0.00107335 0 -0.00126522)
(-0.00107217 0 -0.00293017)
(-0.00105966 0 -0.00428757)
(-0.00104633 0 -0.00566282)
(-0.00103141 0 -0.00711138)
(-0.00101387 0 -0.0086514)
(-0.000993604 0 -0.0102851)
(-0.000970187 0 -0.0120165)
(-0.000943053 0 -0.0138525)
(-0.000911652 0 -0.0158029)
(-0.000875471 0 -0.0178792)
(-0.000834004 0 -0.0200942)
(-0.00078673 0 -0.0224613)
(-0.000733085 0 -0.0249945)
(-0.000672452 0 -0.0277081)
(-0.000604146 0 -0.0306169)
(-0.000527417 0 -0.0337365)
(-0.000441438 0 -0.0370829)
(-0.000345303 0 -0.0406733)
(-0.000238017 0 -0.0445256)
(-0.000118477 0 -0.0486593)
(1.45632e-05 0 -0.0530951)
(0.000162548 0 -0.0578559)
(0.00032717 0 -0.062967)
(0.00051042 0 -0.0684577)
(0.000714621 0 -0.0743623)
(0.000942437 0 -0.0807222)
(0.00119683 0 -0.0875877)
(0.00148091 0 -0.0950164)
(0.00179713 0 -0.103068)
(0.00217806 0 -0.112542)
(0.0026263 0 -0.123299)
(0.00311175 0 -0.134404)
(0.00364078 0 -0.145896)
(0.00422153 0 -0.157835)
(0.00486281 0 -0.170293)
(0.00557539 0 -0.183353)
(0.0063725 0 -0.197111)
(0.00726995 0 -0.211683)
(0.0082861 0 -0.227216)
(0.00944117 0 -0.243898)
(0.0107559 0 -0.261943)
(0.0122527 0 -0.281547)
(0.0139688 0 -0.302855)
(0.015986 0 -0.326054)
(0.018474 0 -0.351781)
(0.0216303 0 -0.381838)
(0.025357 0 -0.419773)
(0.028702 0 -0.470572)
(0.0281613 0 -0.538392)
(-0.0013173 0 -0.00127688)
(-0.00131693 0 -0.00295547)
(-0.00130379 0 -0.00432145)
(-0.00128996 0 -0.00570306)
(-0.00127441 0 -0.00715668)
(-0.00125595 0 -0.00870139)
(-0.00123457 0 -0.0103401)
(-0.00120991 0 -0.012077)
(-0.00118142 0 -0.0139192)
(-0.00114854 0 -0.0158762)
(-0.00111072 0 -0.0179594)
(-0.00106744 0 -0.0201816)
(-0.00101815 0 -0.0225561)
(-0.000962259 0 -0.0250968)
(-0.00089913 0 -0.0278181)
(-0.000828054 0 -0.0307349)
(-0.000748253 0 -0.0338626)
(-0.00065888 0 -0.0372174)
(-0.000559011 0 -0.0408165)
(-0.000447639 0 -0.0446778)
(-0.000323654 0 -0.0488208)
(-0.000185806 0 -0.0532664)
(-3.26551e-05 0 -0.0580375)
(0.000137479 0 -0.0631595)
(0.000326553 0 -0.0686619)
(0.000536831 0 -0.0745791)
(0.000770886 0 -0.0809527)
(0.00103155 0 -0.0878326)
(0.00132174 0 -0.0952765)
(0.00164363 0 -0.103343)
(0.00202994 0 -0.112834)
(0.00248237 0 -0.123613)
(0.00296903 0 -0.134744)
(0.00349532 0 -0.146266)
(0.00406791 0 -0.158241)
(0.00469373 0 -0.170741)
(0.00538109 0 -0.18385)
(0.00613978 0 -0.197664)
(0.00698078 0 -0.212303)
(0.00791572 0 -0.227914)
(0.00895549 0 -0.244685)
(0.010108 0 -0.262826)
(0.0113779 0 -0.282539)
(0.0127753 0 -0.303985)
(0.0143388 0 -0.327385)
(0.0161611 0 -0.353395)
(0.0183158 0 -0.383717)
(0.0205553 0 -0.421488)
(0.02179 0 -0.470696)
(0.018872 0 -0.533729)
(-0.0015888 0 -0.00128854)
(-0.00158927 0 -0.00298087)
(-0.0015757 0 -0.00435581)
(-0.00156162 0 -0.00574435)
(-0.00154573 0 -0.00720365)
(-0.00152667 0 -0.00875355)
(-0.00150449 0 -0.0103975)
(-0.00147889 0 -0.0121402)
(-0.00144933 0 -0.0139888)
(-0.00141525 0 -0.0159525)
(-0.00137612 0 -0.0180429)
(-0.00133138 0 -0.0202724)
(-0.00128046 0 -0.0226544)
(-0.00122278 0 -0.0252029)
(-0.00115767 0 -0.0279321)
(-0.00108441 0 -0.030857)
(-0.00100222 0 -0.0339931)
(-0.000910236 0 -0.0373565)
(-0.000807534 0 -0.0409644)
(-0.00069311 0 -0.0448349)
(-0.000565865 0 -0.0489873)
(-0.000424566 0 -0.0534428)
(-0.000267801 0 -0.0582242)
(-9.39351e-05 0 -0.0633571)
(9.89181e-05 0 -0.0688711)
(0.000312916 0 -0.0748007)
(0.000550485 0 -0.0811876)
(0.00081425 0 -0.0880815)
(0.00110686 0 -0.0955398)
(0.00143011 0 -0.10362)
(0.00181622 0 -0.113127)
(0.00226576 0 -0.123925)
(0.00274539 0 -0.135079)
(0.00325923 0 -0.146629)
(0.0038122 0 -0.158635)
(0.00440895 0 -0.17117)
(0.00505479 0 -0.184318)
(0.00575537 0 -0.198178)
(0.00651614 0 -0.212868)
(0.00734121 0 -0.228535)
(0.00823125 0 -0.245364)
(0.00918043 0 -0.263562)
(0.0101745 0 -0.283328)
(0.0111972 0 -0.304833)
(0.0122468 0 -0.328318)
(0.0133485 0 -0.354434)
(0.0144753 0 -0.384764)
(0.0152766 0 -0.422052)
(0.014609 0 -0.46943)
(0.00969597 0 -0.527987)
(-0.0018895 0 -0.00130012)
(-0.00189075 0 -0.00300617)
(-0.00187682 0 -0.00439027)
(-0.0018626 0 -0.00578614)
(-0.00184651 0 -0.00725162)
(-0.00182706 0 -0.00880717)
(-0.00180431 0 -0.0104568)
(-0.00177799 0 -0.0122055)
(-0.0017476 0 -0.0140605)
(-0.00171261 0 -0.0160312)
(-0.00167245 0 -0.0181288)
(-0.00162659 0 -0.0203658)
(-0.00157444 0 -0.0227555)
(-0.00151541 0 -0.0253118)
(-0.00144883 0 -0.0280491)
(-0.00137398 0 -0.0309823)
(-0.00129008 0 -0.0341268)
(-0.00119627 0 -0.0374989)
(-0.00109163 0 -0.0411156)
(-0.000975181 0 -0.0449953)
(-0.000845846 0 -0.0491573)
(-0.000702433 0 -0.0536225)
(-0.000543584 0 -0.0584141)
(-0.000367738 0 -0.0635578)
(-0.000173112 0 -0.0690831)
(4.2298e-05 0 -0.0750247)
(0.000280717 0 -0.0814242)
(0.000544505 0 -0.0883315)
(0.000835945 0 -0.095803)
(0.00115639 0 -0.103897)
(0.00153696 0 -0.113417)
(0.00197686 0 -0.124232)
(0.00244162 0 -0.135406)
(0.00293387 0 -0.146978)
(0.00345654 0 -0.159008)
(0.00401172 0 -0.171571)
(0.00460125 0 -0.184749)
(0.00522615 0 -0.19864)
(0.00588586 0 -0.213361)
(0.00657645 0 -0.22906)
(0.00728788 0 -0.245914)
(0.00800046 0 -0.264126)
(0.00868076 0 -0.283886)
(0.00928738 0 -0.30537)
(0.00978271 0 -0.328824)
(0.0101336 0 -0.354881)
(0.0102326 0 -0.384996)
(0.00966073 0 -0.421545)
(0.0072733 0 -0.466949)
(0.00064648 0 -0.521355)
(-0.00222088 0 -0.00131169)
(-0.00222281 0 -0.00303143)
(-0.00220852 0 -0.0044248)
(-0.00219417 0 -0.00582827)
(-0.00217794 0 -0.0073003)
(-0.00215818 0 -0.00886187)
(-0.00213498 0 -0.0105175)
(-0.00210811 0 -0.0122724)
(-0.00207709 0 -0.014134)
(-0.00204139 0 -0.0161117)
(-0.00200048 0 -0.0182166)
(-0.0019538 0 -0.0204611)
(-0.00190078 0 -0.0228586)
(-0.00184083 0 -0.0254228)
(-0.00177327 0 -0.0281682)
(-0.00169741 0 -0.0311096)
(-0.00161245 0 -0.0342626)
(-0.00151755 0 -0.0376433)
(-0.00141183 0 -0.041269)
(-0.00129434 0 -0.0451577)
(-0.00116403 0 -0.049329)
(-0.00101979 0 -0.0538039)
(-0.00086032 0 -0.0586055)
(-0.000684166 0 -0.0637595)
(-0.000489686 0 -0.0692957)
(-0.000275062 0 -0.0752486)
(-3.8316e-05 0 -0.0816601)
(0.000222583 0 -0.0885794)
(0.000509483 0 -0.096063)
(0.000823207 0 -0.104168)
(0.00119328 0 -0.1137)
(0.00161731 0 -0.124529)
(0.00206002 0 -0.135718)
(0.00252238 0 -0.147306)
(0.00300515 0 -0.159354)
(0.00350766 0 -0.171934)
(0.00402802 0 -0.18513)
(0.00456229 0 -0.199036)
(0.00510358 0 -0.21377)
(0.00563971 0 -0.229472)
(0.00614993 0 -0.246317)
(0.00660091 0 -0.264495)
(0.00694068 0 -0.28419)
(0.00710451 0 -0.305572)
(0.00702294 0 -0.328885)
(0.00661316 0 -0.354733)
(0.0057044 0 -0.384441)
(0.00383218 0 -0.420048)
(-0.000119384 0 -0.463391)
(-0.00826048 0 -0.513942)
(-0.00258369 0 -0.00132332)
(-0.00258626 0 -0.00305678)
(-0.00257157 0 -0.00445948)
(-0.00255709 0 -0.00587074)
(-0.00254072 0 -0.00734959)
(-0.0025207 0 -0.00891746)
(-0.00249715 0 -0.0105792)
(-0.00246984 0 -0.0123405)
(-0.00243834 0 -0.0142088)
(-0.00240214 0 -0.0161935)
(-0.0023607 0 -0.0183057)
(-0.00231349 0 -0.0205578)
(-0.00225993 0 -0.0229629)
(-0.00219944 0 -0.0255351)
(-0.00213136 0 -0.0282885)
(-0.00205499 0 -0.0312382)
(-0.00196958 0 -0.0343995)
(-0.0018743 0 -0.0377888)
(-0.0017683 0 -0.0414232)
(-0.00165068 0 -0.0453208)
(-0.00152045 0 -0.0495012)
(-0.00137657 0 -0.0539854)
(-0.00121785 0 -0.0587965)
(-0.00104294 0 -0.0639604)
(-0.000850386 0 -0.0695067)
(-0.000638587 0 -0.0754703)
(-0.000405848 0 -0.0818925)
(-0.000150512 0 -0.0888228)
(0.00012876 0 -0.0963167)
(0.000432212 0 -0.104431)
(0.000787305 0 -0.113973)
(0.00118987 0 -0.124811)
(0.00160414 0 -0.136009)
(0.00202933 0 -0.147608)
(0.0024639 0 -0.159666)
(0.00290433 0 -0.172253)
(0.00334483 0 -0.185453)
(0.00377637 0 -0.199358)
(0.00418567 0 -0.214081)
(0.00455228 0 -0.22976)
(0.00484516 0 -0.246558)
(0.0050178 0 -0.264656)
(0.00500098 0 -0.284226)
(0.00470869 0 -0.305427)
(0.00404339 0 -0.328496)
(0.00288038 0 -0.353999)
(0.000998657 0 -0.383133)
(-0.00209654 0 -0.417634)
(-0.00748013 0 -0.458859)
(-0.0169967 0 -0.505802)
(-0.00297797 0 -0.00133507)
(-0.00298116 0 -0.00308231)
(-0.00296606 0 -0.0044944)
(-0.00295144 0 -0.00591357)
(-0.00293496 0 -0.00739942)
(-0.00291475 0 -0.00897377)
(-0.00289092 0 -0.0106418)
(-0.00286331 0 -0.0124095)
(-0.00283148 0 -0.0142845)
(-0.00279495 0 -0.0162762)
(-0.00275321 0 -0.0183957)
(-0.00270572 0 -0.0206552)
(-0.00265192 0 -0.023068)
(-0.00259125 0 -0.0256479)
(-0.00252306 0 -0.0284093)
(-0.00244668 0 -0.031367)
(-0.00236137 0 -0.0345366)
(-0.00226635 0 -0.0379343)
(-0.0021608 0 -0.0415771)
(-0.00204389 0 -0.0454833)
(-0.0019147 0 -0.0496724)
(-0.00177228 0 -0.0541655)
(-0.00161554 0 -0.0589856)
(-0.00144331 0 -0.0641587)
(-0.0012543 0 -0.0697144)
(-0.00104718 0 -0.0756875)
(-0.000820557 0 -0.0821194)
(-0.000573195 0 -0.089059)
(-0.000304316 0 -0.0965614)
(-1.43085e-05 0 -0.104683)
(0.000321827 0 -0.11423)
(0.000698039 0 -0.125074)
(0.00107839 0 -0.136277)
(0.00146026 0 -0.14788)
(0.00183973 0 -0.159938)
(0.00221041 0 -0.172522)
(0.00256264 0 -0.185712)
(0.00288233 0 -0.199598)
(0.0031499 0 -0.214288)
(0.00333685 0 -0.229914)
(0.00340254 0 -0.246629)
(0.00328798 0 -0.264601)
(0.00290837 0 -0.283987)
(0.00215876 0 -0.304934)
(0.000917005 0 -0.327663)
(-0.00097717 0 -0.3527)
(-0.0037845 0 -0.381112)
(-0.00802125 0 -0.414371)
(-0.0147202 0 -0.453432)
(-0.0255099 0 -0.496957)
(-0.00340322 0 -0.00134689)
(-0.00340702 0 -0.00310796)
(-0.00339154 0 -0.00452951)
(-0.00337682 0 -0.00595668)
(-0.00336028 0 -0.00744965)
(-0.00333994 0 -0.0090306)
(-0.00331597 0 -0.010705)
(-0.00328818 0 -0.0124791)
(-0.00325619 0 -0.0143608)
(-0.00321953 0 -0.0163594)
(-0.00317769 0 -0.018486)
(-0.00313017 0 -0.0207529)
(-0.00307643 0 -0.0231732)
(-0.00301591 0 -0.0257607)
(-0.00294799 0 -0.0285299)
(-0.00287204 0 -0.0314955)
(-0.00278734 0 -0.034673)
(-0.00269316 0 -0.0380787)
(-0.00258874 0 -0.0417297)
(-0.0024733 0 -0.0456441)
(-0.00234603 0 -0.0498415)
(-0.00220606 0 -0.0543428)
(-0.00205244 0 -0.0591713)
(-0.00188416 0 -0.0643528)
(-0.00170015 0 -0.069917)
(-0.00149937 0 -0.0758985)
(-0.00128075 0 -0.0823386)
(-0.0010435 0 -0.0892858)
(-0.000787458 0 -0.0967947)
(-0.000513678 0 -0.10492)
(-0.000199953 0 -0.114471)
(0.000145699 0 -0.125315)
(0.000487524 0 -0.136518)
(0.000821047 0 -0.148116)
(0.00113996 0 -0.160167)
(0.00143505 0 -0.172736)
(0.00169285 0 -0.185902)
(0.00189446 0 -0.199751)
(0.00201426 0 -0.214386)
(0.00201611 0 -0.22993)
(0.00185065 0 -0.246527)
(0.00144743 0 -0.264328)
(0.000707926 0 -0.283476)
(-0.000489259 0 -0.304099)
(-0.00228795 0 -0.326402)
(-0.00487779 0 -0.350862)
(-0.00855147 0 -0.378426)
(-0.0138423 0 -0.410323)
(-0.021744 0 -0.447178)
(-0.0337157 0 -0.487418)
(-0.00385883 0 -0.00135882)
(-0.00386321 0 -0.00313375)
(-0.00384732 0 -0.00456473)
(-0.00383253 0 -0.00599991)
(-0.003816 0 -0.00750004)
(-0.00379565 0 -0.00908763)
(-0.00377165 0 -0.0107685)
(-0.00374384 0 -0.012549)
(-0.00371186 0 -0.0144372)
(-0.00367525 0 -0.0164426)
(-0.00363354 0 -0.0185762)
(-0.00358624 0 -0.0208503)
(-0.00353282 0 -0.0232779)
(-0.00347276 0 -0.0258729)
(-0.00340548 0 -0.0286495)
(-0.00333036 0 -0.0316227)
(-0.00324675 0 -0.0348079)
(-0.00315395 0 -0.0382213)
(-0.00305126 0 -0.04188)
(-0.002938 0 -0.0458022)
(-0.00281343 0 -0.0500072)
(-0.00267681 0 -0.0545162)
(-0.00252733 0 -0.0593523)
(-0.00236415 0 -0.0645414)
(-0.00218646 0 -0.0701129)
(-0.00199349 0 -0.0761016)
(-0.00178455 0 -0.0825484)
(-0.00155929 0 -0.0895015)
(-0.00131821 0 -0.0970146)
(-0.00106305 0 -0.105142)
(-0.000774696 0 -0.114692)
(-0.000463136 0 -0.125532)
(-0.000163583 0 -0.136728)
(0.000117656 0 -0.148315)
(0.000371927 0 -0.160348)
(0.00058728 0 -0.172892)
(0.000746678 0 -0.186019)
(0.000826743 0 -0.199814)
(0.000796204 0 -0.214371)
(0.000611922 0 -0.229806)
(0.00021694 0 -0.246251)
(-0.000469637 0 -0.26384)
(-0.00155818 0 -0.282699)
(-0.00318341 0 -0.302937)
(-0.00550773 0 -0.324734)
(-0.00874531 0 -0.348521)
(-0.0132144 0 -0.375126)
(-0.0194619 0 -0.405559)
(-0.0284459 0 -0.440166)
(-0.041496 0 -0.477207)
(-0.0043441 0 -0.00137092)
(-0.00434915 0 -0.00315978)
(-0.00433291 0 -0.0046001)
(-0.00431809 0 -0.00604316)
(-0.00430159 0 -0.00755037)
(-0.00428127 0 -0.00914458)
(-0.00425732 0 -0.0108318)
(-0.00422961 0 -0.0126186)
(-0.00419778 0 -0.0145133)
(-0.00416139 0 -0.0165254)
(-0.00412 0 -0.0186659)
(-0.00407312 0 -0.0209469)
(-0.00402029 0 -0.0233816)
(-0.00396098 0 -0.0259838)
(-0.00389467 0 -0.0287676)
(-0.00382077 0 -0.0317481)
(-0.00373867 0 -0.0349406)
(-0.00364775 0 -0.0383612)
(-0.00354737 0 -0.0420272)
(-0.00343691 0 -0.0459565)
(-0.00331578 0 -0.0501687)
(-0.00318332 0 -0.0546846)
(-0.0030389 0 -0.0595275)
(-0.00288186 0 -0.0647231)
(-0.00271165 0 -0.0703009)
(-0.00252781 0 -0.0762954)
(-0.00233001 0 -0.0827473)
(-0.00211839 0 -0.0897043)
(-0.00189409 0 -0.0972192)
(-0.00165958 0 -0.105346)
(-0.00139905 0 -0.114891)
(-0.00112445 0 -0.125723)
(-0.000870123 0 -0.136906)
(-0.00064408 0 -0.148474)
(-0.000457228 0 -0.160481)
(-0.000324087 0 -0.172987)
(-0.000264997 0 -0.186063)
(-0.000307397 0 -0.199785)
(-0.000487578 0 -0.214245)
(-0.000854779 0 -0.229546)
(-0.00147318 0 -0.245806)
(-0.00243171 0 -0.263146)
(-0.00385038 0 -0.281669)
(-0.00587542 0 -0.301467)
(-0.0086839 0 -0.322691)
(-0.0125094 0 -0.345721)
(-0.0176901 0 -0.371272)
(-0.0247824 0 -0.400155)
(-0.0347105 0 -0.432476)
(-0.0487032 0 -0.466374)
(-0.00485862 0 -0.0013828)
(-0.0048644 0 -0.00318548)
(-0.00484791 0 -0.00463527)
(-0.0048331 0 -0.00608635)
(-0.0048166 0 -0.00760066)
(-0.00479629 0 -0.00920141)
(-0.00477239 0 -0.0108949)
(-0.00474481 0 -0.0126879)
(-0.00471321 0 -0.0145889)
(-0.00467717 0 -0.0166074)
(-0.00463625 0 -0.0187545)
(-0.00459001 0 -0.0210423)
(-0.00453798 0 -0.0234839)
(-0.0044797 0 -0.0260929)
(-0.00441466 0 -0.0288837)
(-0.00434233 0 -0.031871)
(-0.00426215 0 -0.0350703)
(-0.00417356 0 -0.0384978)
(-0.004076 0 -0.0421705)
(-0.00396894 0 -0.0461064)
(-0.00385189 0 -0.0503249)
(-0.00372434 0 -0.054847)
(-0.0035858 0 -0.0596958)
(-0.00343583 0 -0.0648969)
(-0.00327414 0 -0.0704797)
(-0.00310059 0 -0.0764786)
(-0.00291523 0 -0.0829339)
(-0.00271866 0 -0.0898927)
(-0.00251268 0 -0.0974072)
(-0.00230048 0 -0.10553)
(-0.00206973 0 -0.115067)
(-0.00183431 0 -0.125885)
(-0.00162735 0 -0.137049)
(-0.00145841 0 -0.148591)
(-0.00134048 0 -0.160562)
(-0.00129052 0 -0.173021)
(-0.00133179 0 -0.186031)
(-0.00149515 0 -0.199667)
(-0.00182129 0 -0.214009)
(-0.00236472 0 -0.229152)
(-0.00319553 0 -0.2452)
(-0.00440909 0 -0.262257)
(-0.00613269 0 -0.280406)
(-0.00852126 0 -0.299715)
(-0.011763 0 -0.320309)
(-0.0161052 0 -0.342515)
(-0.0219001 0 -0.366935)
(-0.0297078 0 -0.394201)
(-0.0404165 0 -0.42421)
(-0.0551707 0 -0.45501)
(-0.00540286 0 -0.00139459)
(-0.00540877 0 -0.0032109)
(-0.00539158 0 -0.00467024)
(-0.00537658 0 -0.00612953)
(-0.00536002 0 -0.00765103)
(-0.00533973 0 -0.00925823)
(-0.00531595 0 -0.0109577)
(-0.00528859 0 -0.0127567)
(-0.00525733 0 -0.0146637)
(-0.00522176 0 -0.0166885)
(-0.00518148 0 -0.0188419)
(-0.00513605 0 -0.0211362)
(-0.00508505 0 -0.0235842)
(-0.00502804 0 -0.0261998)
(-0.00496456 0 -0.0289971)
(-0.00489412 0 -0.0319909)
(-0.00481623 0 -0.0351966)
(-0.00473038 0 -0.0386304)
(-0.0046361 0 -0.0423091)
(-0.00453297 0 -0.0462509)
(-0.0044206 0 -0.0504751)
(-0.00429862 0 -0.0550026)
(-0.00416671 0 -0.0598562)
(-0.00402463 0 -0.0650617)
(-0.00387237 0 -0.0706483)
(-0.00371011 0 -0.07665)
(-0.0035383 0 -0.0831069)
(-0.00335799 0 -0.0900655)
(-0.00317161 0 -0.0975771)
(-0.00298303 0 -0.105694)
(-0.00278354 0 -0.115218)
(-0.00258884 0 -0.126017)
(-0.00243058 0 -0.137156)
(-0.00231968 0 -0.148666)
(-0.002271 0 -0.160593)
(-0.0023037 0 -0.172993)
(-0.00244353 0 -0.185926)
(-0.00272417 0 -0.19946)
(-0.00318998 0 -0.213667)
(-0.00389962 0 -0.228631)
(-0.00492778 0 -0.244444)
(-0.00637459 0 -0.261189)
(-0.00837218 0 -0.27893)
(-0.011081 0 -0.297713)
(-0.0146965 0 -0.317633)
(-0.0194737 0 -0.338962)
(-0.0257717 0 -0.362197)
(-0.0341465 0 -0.387803)
(-0.0454439 0 -0.415495)
(-0.0607276 0 -0.443255)
(-0.00597708 0 -0.00140823)
(-0.00598195 0 -0.0032389)
(-0.00596296 0 -0.00470694)
(-0.00594719 0 -0.00617346)
(-0.00593045 0 -0.00770147)
(-0.00591032 0 -0.00931472)
(-0.00588688 0 -0.01102)
(-0.00585997 0 -0.0128247)
(-0.00582925 0 -0.0147375)
(-0.00579435 0 -0.0167681)
(-0.00575488 0 -0.0189277)
(-0.00571045 0 -0.021228)
(-0.00566068 0 -0.0236823)
(-0.00560516 0 -0.026304)
(-0.00554349 0 -0.0291074)
(-0.00547524 0 -0.0321072)
(-0.00539996 0 -0.0353188)
(-0.00531723 0 -0.0387582)