/*--------------------------------*- C++ -*----------------------------------*\
  =========                 |
  \\      /  F ield         | OpenFOAM: The Open Source CFD Toolbox
   \\    /   O peration     | Website:  https://openfoam.org
    \\  /    A nd           | Version:  9
     \\/     M anipulation  |
\*---------------------------------------------------------------------------*/
FoamFile
{
    format      ascii;
    class       surfaceVectorField;
    location    "0.05";
    object      Uf;
}
// * * * * * * * * * * * * * * * * * * * * * * * * * * * * * * * * * * * * * //

dimensions      [0 1 -1 0 0 0 0];

internalField   nonuniform List<vector> 
9850
(
(4.28691e-06 0 -0.00192837)
(-8.45233e-06 0 -0.00115514)
(3.32706e-06 0 -0.00337811)
(-2.47159e-06 0 -0.00272274)
(3.11339e-06 0 -0.00471991)
(-3.93035e-06 0 -0.00404898)
(3.88864e-06 0 -0.00611474)
(-3.16555e-06 0 -0.00541006)
(4.97271e-06 0 -0.00758722)
(-1.09551e-06 0 -0.00684261)
(6.39426e-06 0 -0.00914373)
(1.20182e-06 0 -0.00835763)
(8.17641e-06 0 -0.0107894)
(4.0807e-06 0 -0.00995872)
(1.03262e-05 0 -0.0125321)
(7.61652e-06 0 -0.0116524)
(1.28493e-05 0 -0.014382)
(1.18437e-05 0 -0.0134478)
(1.5752e-05 0 -0.0163509)
(1.67865e-05 0 -0.0153562)
(1.90458e-05 0 -0.0184514)
(2.24695e-05 0 -0.0173899)
(2.2751e-05 0 -0.0206965)
(2.89256e-05 0 -0.0195617)
(2.68979e-05 0 -0.0230998)
(3.62016e-05 0 -0.0218851)
(3.15261e-05 0 -0.0256752)
(4.43612e-05 0 -0.0243737)
(3.66821e-05 0 -0.0284369)
(5.34834e-05 0 -0.0270415)
(4.24183e-05 0 -0.0313999)
(6.36609e-05 0 -0.0299033)
(4.87932e-05 0 -0.0345799)
(7.49986e-05 0 -0.0329744)
(5.58719e-05 0 -0.0379932)
(8.76141e-05 0 -0.0362706)
(6.37277e-05 0 -0.041657)
(0.00010164 0 -0.0398088)
(7.24442e-05 0 -0.0455896)
(0.000117226 0 -0.0436067)
(8.21192e-05 0 -0.0498103)
(0.000134546 0 -0.047683)
(9.28693e-05 0 -0.0543402)
(0.000153804 0 -0.052058)
(0.000104837 0 -0.0592025)
(0.000175242 0 -0.0567536)
(0.000118202 0 -0.064423)
(0.00019916 0 -0.0617941)
(0.000133197 0 -0.070032)
(0.000225934 0 -0.0672074)
(0.000150128 0 -0.0760662)
(0.000256049 0 -0.0730263)
(0.000169383 0 -0.0825706)
(0.000290115 0 -0.0792913)
(0.000191402 0 -0.0896008)
(0.000328849 0 -0.0860527)
(0.000216568 0 -0.0972199)
(0.000372994 0 -0.0933712)
(0.000245024 0 -0.105489)
(0.000423182 0 -0.101313)
(0.000280177 0 -0.11593)
(0.000482914 0 -0.110668)
(0.000318725 0 -0.126669)
(0.000552407 0 -0.121261)
(0.000361624 0 -0.13773)
(0.000629374 0 -0.132158)
(0.000409969 0 -0.149157)
(0.000715514 0 -0.143395)
(0.000464965 0 -0.161007)
(0.000812947 0 -0.155026)
(0.000527966 0 -0.173344)
(0.000924107 0 -0.167112)
(0.000600636 0 -0.186238)
(0.00105187 0 -0.17972)
(0.00068526 0 -0.199766)
(0.00119993 0 -0.192922)
(0.000785132 0 -0.214027)
(0.00137337 0 -0.206803)
(0.000904564 0 -0.229156)
(0.00157905 0 -0.221475)
(0.00104718 0 -0.245327)
(0.00182453 0 -0.237099)
(0.00121062 0 -0.262687)
(0.00211373 0 -0.253859)
(0.00137843 0 -0.281152)
(0.0024389 0 -0.271854)
(0.00152097 0 -0.300106)
(0.00277941 0 -0.290806)
(0.00163027 0 -0.318293)
(0.00313783 0 -0.309762)
(0.0018065 0 -0.334301)
(0.00364983 0 -0.327229)
(0.0024118 0 -0.347248)
(0.0047797 0 -0.342066)
(0.00464902 0 -0.356916)
(0.00781345 0 -0.354232)
(0.0131339 0 -0.37504)
(0.0160948 0 -0.365618)
(0.0384795 0 -0.404926)
(-1.43605e-05 0 -0.00191263)
(-4.38664e-05 0 -0.00115694)
(-1.27866e-05 0 -0.00336294)
(-3.28625e-05 0 -0.00272763)
(-1.07864e-05 0 -0.00470801)
(-3.0672e-05 0 -0.0040549)
(-8.12992e-06 0 -0.00610561)
(-2.69926e-05 0 -0.00541755)
(-5.07768e-06 0 -0.00757923)
(-2.24682e-05 0 -0.00685081)
(-1.32361e-06 0 -0.00913728)
(-1.76489e-05 0 -0.00836724)
(3.30764e-06 0 -0.0107847)
(-1.19719e-05 0 -0.00997003)
(8.91096e-06 0 -0.0125292)
(-5.21435e-06 0 -0.0116654)
(1.55452e-05 0 -0.0143809)
(2.74802e-06 0 -0.0134626)
(2.32538e-05 0 -0.0163516)
(1.2006e-05 0 -0.0153726)
(3.20805e-05 0 -0.0184538)
(2.26435e-05 0 -0.0174077)
(4.20835e-05 0 -0.0207008)
(3.47479e-05 0 -0.019581)
(5.33436e-05 0 -0.0231061)
(4.84236e-05 0 -0.0219058)
(6.59651e-05 0 -0.0256834)
(6.37987e-05 0 -0.0243958)
(8.00732e-05 0 -0.0284474)
(8.10273e-05 0 -0.0270651)
(9.58123e-05 0 -0.0314128)
(0.000100288 0 -0.0299284)
(0.000113346 0 -0.0345954)
(0.000121782 0 -0.033001)
(0.000132857 0 -0.0380115)
(0.000145737 0 -0.0362988)
(0.000154554 0 -0.0416784)
(0.000172409 0 -0.0398387)
(0.000178674 0 -0.0456144)
(0.000202089 0 -0.0436384)
(0.000205496 0 -0.0498388)
(0.00023511 0 -0.0477167)
(0.000235346 0 -0.0543729)
(0.000271863 0 -0.0520937)
(0.000268624 0 -0.0592397)
(0.00031281 0 -0.0567916)
(0.000305821 0 -0.0644653)
(0.000358514 0 -0.0618345)
(0.000347558 0 -0.0700801)
(0.000409677 0 -0.0672506)
(0.000394614 0 -0.0761207)
(0.000467182 0 -0.0730728)
(0.000447943 0 -0.0826324)
(0.000532125 0 -0.0793415)
(0.000508592 0 -0.0896706)
(0.000605767 0 -0.0861071)
(0.000577459 0 -0.0972986)
(0.000689414 0 -0.0934301)
(0.000654805 0 -0.105577)
(0.000784202 0 -0.101376)
(0.000753454 0 -0.11603)
(0.000897996 0 -0.110734)
(0.000861201 0 -0.126783)
(0.0010314 0 -0.121332)
(0.000980932 0 -0.13786)
(0.00117892 0 -0.132238)
(0.00111564 0 -0.149306)
(0.00134384 0 -0.143485)
(0.00126866 0 -0.161176)
(0.00153021 0 -0.155128)
(0.00144386 0 -0.173537)
(0.00174274 0 -0.167229)
(0.00164607 0 -0.186458)
(0.00198703 0 -0.179855)
(0.0018817 0 -0.200018)
(0.0022703 0 -0.193079)
(0.0021594 0 -0.214316)
(0.00260224 0 -0.206988)
(0.00248978 0 -0.229489)
(0.00299561 0 -0.221696)
(0.00288194 0 -0.245709)
(0.00346506 0 -0.23736)
(0.00333563 0 -0.263114)
(0.00402215 0 -0.254162)
(0.0038358 0 -0.281614)
(0.00466865 0 -0.272187)
(0.00437766 0 -0.3006)
(0.00540621 0 -0.291167)
(0.00507321 0 -0.318887)
(0.00630962 0 -0.310226)
(0.00638366 0 -0.335254)
(0.00771737 0 -0.328102)
(0.00955692 0 -0.349365)
(0.0105465 0 -0.344181)
(0.0178832 0 -0.362922)
(0.0170368 0 -0.359783)
(0.0404152 0 -0.392422)
(0.0318736 0 -0.380639)
(0.0640338 0 -0.438668)
(-6.13477e-05 0 -0.00193135)
(-9.7052e-05 0 -0.00117407)
(-5.40939e-05 0 -0.00338301)
(-8.49778e-05 0 -0.00275019)
(-4.73382e-05 0 -0.00472675)
(-7.75126e-05 0 -0.00407491)
(-4.13424e-05 0 -0.00612338)
(-7.02157e-05 0 -0.00543446)
(-3.53121e-05 0 -0.00759762)
(-6.29403e-05 0 -0.00686701)
(-2.85929e-05 0 -0.00915708)
(-5.53169e-05 0 -0.00838445)
(-2.0805e-05 0 -0.0108062)
(-4.66932e-05 0 -0.00998904)
(-1.17163e-05 0 -0.0125524)
(-3.67112e-05 0 -0.0116866)
(-1.16218e-06 0 -0.0144059)
(-2.51475e-05 0 -0.013486)
(1.09911e-05 0 -0.0163783)
(-1.18269e-05 0 -0.0153983)
(2.4868e-05 0 -0.0184821)
(3.41292e-06 0 -0.0174357)
(4.06005e-05 0 -0.0207307)
(2.07334e-05 0 -0.0196113)
(5.83411e-05 0 -0.0231375)
(4.03101e-05 0 -0.0219384)
(7.82691e-05 0 -0.0257165)
(6.23449e-05 0 -0.0244307)
(0.000100591 0 -0.028482)
(8.70699e-05 0 -0.0271024)
(0.000125541 0 -0.0314491)
(0.000114749 0 -0.0299682)
(0.000153382 0 -0.0346334)
(0.000145677 0 -0.0330433)
(0.000184412 0 -0.0380513)
(0.000180188 0 -0.0363438)
(0.000218965 0 -0.04172)
(0.000218654 0 -0.0398865)
(0.000257425 0 -0.0456578)
(0.0002615 0 -0.0436891)
(0.000300238 0 -0.0498842)
(0.000309208 0 -0.0477704)
(0.000347928 0 -0.0544204)
(0.000362341 0 -0.0521508)
(0.000401126 0 -0.0592895)
(0.000421564 0 -0.0568522)
(0.0004606 0 -0.0645177)
(0.000487679 0 -0.0618992)
(0.000527307 0 -0.0701355)
(0.000561677 0 -0.0673197)
(0.000602427 0 -0.0761796)
(0.00064479 0 -0.073147)
(0.000687372 0 -0.0826953)
(0.000738523 0 -0.0794215)
(0.000783693 0 -0.0897379)
(0.000844601 0 -0.0861936)
(0.000892761 0 -0.09737)
(0.000964815 0 -0.0935234)
(0.00101509 0 -0.105652)
(0.00110073 0 -0.101476)
(0.00117382 0 -0.116108)
(0.00126481 0 -0.11084)
(0.00134685 0 -0.126868)
(0.00145821 0 -0.121448)
(0.00153895 0 -0.137954)
(0.00167188 0 -0.132366)
(0.0017549 0 -0.149411)
(0.00191052 0 -0.143629)
(0.00200007 0 -0.161295)
(0.00217997 0 -0.155292)
(0.0022808 0 -0.173674)
(0.00248704 0 -0.167416)
(0.00260504 0 -0.186616)
(0.00283994 0 -0.180071)
(0.00298319 0 -0.200204)
(0.00324923 0 -0.193331)
(0.00342909 0 -0.214538)
(0.00372904 0 -0.207285)
(0.00395983 0 -0.229754)
(0.00429792 0 -0.22205)
(0.0045929 0 -0.246021)
(0.00497819 0 -0.237782)
(0.00534113 0 -0.263471)
(0.00579233 0 -0.25466)
(0.00621705 0 -0.282015)
(0.00676079 0 -0.272771)
(0.00728373 0 -0.301106)
(0.00792337 0 -0.291878)
(0.00881058 0 -0.319761)
(0.00943703 0 -0.311244)
(0.0115775 0 -0.337227)
(0.0118017 0 -0.329947)
(0.0173568 0 -0.354258)
(0.0161768 0 -0.348034)
(0.0298968 0 -0.375404)
(0.0250729 0 -0.368143)
(0.0572916 0 -0.421024)
(0.043196 0 -0.398902)
(0.0762071 0 -0.472698)
(-0.000120046 0 -0.00195555)
(-0.000158527 0 -0.00119229)
(-0.000110282 0 -0.00341084)
(-0.000148556 0 -0.00278055)
(-0.00010071 0 -0.00475049)
(-0.000138758 0 -0.00410326)
(-9.19438e-05 0 -0.00614415)
(-0.000129417 0 -0.00545919)
(-8.32282e-05 0 -0.00761786)
(-0.000120178 0 -0.00689044)
(-7.37404e-05 0 -0.00917838)
(-0.000110352 0 -0.00840875)
(-6.2955e-05 0 -0.0108293)
(-9.92533e-05 0 -0.0100154)
(-5.05433e-05 0 -0.0125776)
(-8.64581e-05 0 -0.0117155)
(-3.62633e-05 0 -0.0144333)
(-7.16775e-05 0 -0.0135177)
(-1.99088e-05 0 -0.0164079)
(-5.46777e-05 0 -0.0154329)
(-1.28431e-06 0 -0.018514)
(-3.52391e-05 0 -0.0174733)
(1.98156e-05 0 -0.0207647)
(-1.31398e-05 0 -0.0196519)
(4.36178e-05 0 -0.0231737)
(1.18594e-05 0 -0.0219821)
(7.03775e-05 0 -0.0257549)
(4.00287e-05 0 -0.0244776)
(0.000100382 0 -0.0285227)
(7.16733e-05 0 -0.0271525)
(0.000133955 0 -0.031492)
(0.000107137 0 -0.0300217)
(0.000171457 0 -0.0346786)
(0.000146804 0 -0.0331003)
(0.000213292 0 -0.0380988)
(0.000191107 0 -0.0364044)
(0.000259916 0 -0.0417699)
(0.000240527 0 -0.0399509)
(0.000311849 0 -0.0457102)
(0.000295611 0 -0.0437575)
(0.000369695 0 -0.0499393)
(0.000356981 0 -0.047843)
(0.000434159 0 -0.0544783)
(0.000425357 0 -0.0522279)
(0.000506085 0 -0.0593505)
(0.000501586 0 -0.0569342)
(0.000586494 0 -0.0645821)
(0.000586688 0 -0.0619866)
(0.00067664 0 -0.0702038)
(0.000681913 0 -0.0674131)
(0.000778049 0 -0.0762523)
(0.000788795 0 -0.0732471)
(0.000892534 0 -0.082773)
(0.000909192 0 -0.0795293)
(0.00102209 0 -0.089821)
(0.00104523 0 -0.0863098)
(0.00116856 0 -0.0974583)
(0.00119911 0 -0.0936488)
(0.00133293 0 -0.105744)
(0.00137279 0 -0.10161)
(0.00154733 0 -0.116206)
(0.00158299 0 -0.110983)
(0.00178135 0 -0.126975)
(0.00183155 0 -0.121604)
(0.00204102 0 -0.138073)
(0.00210604 0 -0.132539)
(0.00233264 0 -0.149546)
(0.00241229 0 -0.143824)
(0.00266341 0 -0.161452)
(0.0027577 0 -0.155512)
(0.00304194 0 -0.173856)
(0.00315086 0 -0.167668)
(0.00347903 0 -0.186831)
(0.00360226 0 -0.180362)
(0.00398886 0 -0.200461)
(0.00412548 0 -0.193671)
(0.00459023 0 -0.214849)
(0.00473863 0 -0.207686)
(0.00530702 0 -0.230133)
(0.00546554 0 -0.222527)
(0.00616661 0 -0.246481)
(0.00633572 0 -0.238355)
(0.00719812 0 -0.264025)
(0.00738252 0 -0.255348)
(0.00844494 0 -0.282702)
(0.00864502 0 -0.273602)
(0.01003 0 -0.302071)
(0.0101969 0 -0.292935)
(0.0123256 0 -0.321424)
(0.0122521 0 -0.312774)
(0.0162434 0 -0.340569)
(0.0153892 0 -0.332559)
(0.0236072 0 -0.361311)
(0.0208091 0 -0.352943)
(0.0377319 0 -0.390252)
(0.0308273 0 -0.377559)
(0.0644386 0 -0.44847)
(0.0494731 0 -0.416707)
(0.0788814 0 -0.500553)
(-0.000186602 0 -0.0019794)
(-0.000230384 0 -0.0012073)
(-0.000177653 0 -0.00344146)
(-0.000223686 0 -0.00280836)
(-0.000167763 0 -0.00477962)
(-0.000214026 0 -0.00413255)
(-0.000157883 0 -0.00617124)
(-0.000204245 0 -0.00548707)
(-0.000147607 0 -0.00764487)
(-0.000194162 0 -0.00691806)
(-0.000136216 0 -0.00920701)
(-0.000183024 0 -0.00843793)
(-0.000123156 0 -0.0108604)
(-0.000170213 0 -0.0100473)
(-0.00010805 0 -0.0126118)
(-0.000155289 0 -0.0117507)
(-9.06136e-05 0 -0.0144706)
(-0.000137924 0 -0.0135564)
(-7.05982e-05 0 -0.0164485)
(-0.000117846 0 -0.0154753)
(-4.77605e-05 0 -0.0185579)
(-9.47997e-05 0 -0.0175195)
(-2.18437e-05 0 -0.0208121)
(-6.85232e-05 0 -0.0197019)
(7.43691e-06 0 -0.0232245)
(-3.8729e-05 0 -0.0220359)
(4.04022e-05 0 -0.0258092)
(-5.09176e-06 0 -0.0245353)
(7.74119e-05 0 -0.0285806)
(3.27567e-05 0 -0.0272144)
(0.000118868 0 -0.0315538)
(7.52305e-05 0 -0.0300878)
(0.000165219 0 -0.0347442)
(0.000122793 0 -0.0331708)
(0.000216967 0 -0.0381685)
(0.000175964 0 -0.0364794)
(0.00027468 0 -0.0418438)
(0.000235325 0 -0.0400306)
(0.000339002 0 -0.0457885)
(0.00030153 0 -0.0438422)
(0.000410679 0 -0.0500223)
(0.000375327 0 -0.047933)
(0.000490581 0 -0.0545664)
(0.000457572 0 -0.0523235)
(0.00057974 0 -0.059444)
(0.000549275 0 -0.0570359)
(0.0006794 0 -0.0646817)
(0.000651646 0 -0.0620949)
(0.00079107 0 -0.0703102)
(0.000766156 0 -0.0675288)
(0.000916576 0 -0.0763664)
(0.000894596 0 -0.0733711)
(0.00105807 0 -0.0828956)
(0.00103911 0 -0.0796625)
(0.00121791 0 -0.0899529)
(0.00120215 0 -0.0864533)
(0.00139836 0 -0.0975995)
(0.00138628 0 -0.0938032)
(0.00160085 0 -0.105894)
(0.00159374 0 -0.101775)
(0.00186554 0 -0.116368)
(0.00184508 0 -0.111159)
(0.00215471 0 -0.127153)
(0.00214285 0 -0.121796)
(0.00247536 0 -0.138272)
(0.00247148 0 -0.132752)
(0.00283501 0 -0.149771)
(0.00283762 0 -0.144063)
(0.00324236 0 -0.161708)
(0.00324988 0 -0.155784)
(0.00370791 0 -0.174151)
(0.00371826 0 -0.167979)
(0.00424488 0 -0.187175)
(0.00425508 0 -0.18072)
(0.00487063 0 -0.200866)
(0.0048763 0 -0.194088)
(0.0056082 0 -0.21533)
(0.00560318 0 -0.208178)
(0.00648728 0 -0.230711)
(0.00646361 0 -0.223113)
(0.0075437 0 -0.247178)
(0.00749254 0 -0.239059)
(0.00882016 0 -0.264872)
(0.00873155 0 -0.256199)
(0.0103835 0 -0.283769)
(0.0102336 0 -0.274644)
(0.0123938 0 -0.303547)
(0.012095 0 -0.294275)
(0.0152653 0 -0.323773)
(0.0145572 0 -0.314689)
(0.019907 0 -0.344731)
(0.0182101 0 -0.335653)
(0.0279783 0 -0.368946)
(0.0241798 0 -0.358324)
(0.0421277 0 -0.403912)
(0.0343794 0 -0.386992)
(0.065708 0 -0.469191)
(0.0517803 0 -0.432427)
(0.0757239 0 -0.520447)
(-0.000267089 0 -0.00199805)
(-0.000321253 0 -0.00121863)
(-0.000259762 0 -0.00346785)
(-0.000317057 0 -0.00283113)
(-0.000250753 0 -0.00480763)
(-0.000308013 0 -0.00415922)
(-0.000240848 0 -0.00619964)
(-0.000298336 0 -0.005515)
(-0.000229907 0 -0.00767467)
(-0.00028788 0 -0.00694746)
(-0.000217392 0 -0.00923951)
(-0.000275896 0 -0.00846999)
(-0.000202779 0 -0.0108965)
(-0.000261863 0 -0.010083)
(-0.000185666 0 -0.0126517)
(-0.00024533 0 -0.0117905)
(-0.000165737 0 -0.0145147)
(-0.000225921 0 -0.0136007)
(-0.000142712 0 -0.0164967)
(-0.000203326 0 -0.0155241)
(-0.000116318 0 -0.0186104)
(-0.000177258 0 -0.0175728)
(-8.62596e-05 0 -0.0208689)
(-0.000147419 0 -0.0197598)
(-5.22082e-05 0 -0.0232858)
(-0.000113484 0 -0.0220985)
(-1.37909e-05 0 -0.025875)
(-7.50808e-05 0 -0.0246027)
(2.94129e-05 0 -0.0286511)
(-3.17884e-05 0 -0.0272866)
(7.78751e-05 0 -0.0316291)
(1.68685e-05 0 -0.030165)
(0.000132121 0 -0.0348246)
(7.14232e-05 0 -0.0332532)
(0.000192739 0 -0.0382541)
(0.000132471 0 -0.0365673)
(0.000260393 0 -0.041935)
(0.000200681 0 -0.0401241)
(0.000335838 0 -0.0458855)
(0.000276802 0 -0.0439415)
(0.000419942 0 -0.0501255)
(0.000361684 0 -0.0480386)
(0.000513718 0 -0.0546762)
(0.000456305 0 -0.0524357)
(0.000618362 0 -0.0595611)
(0.00056181 0 -0.0571552)
(0.000735302 0 -0.0648067)
(0.000679567 0 -0.062222)
(0.000866261 0 -0.070444)
(0.00081123 0 -0.0676645)
(0.00101331 0 -0.07651)
(0.000958797 0 -0.0735163)
(0.00117886 0 -0.0830502)
(0.00112464 0 -0.0798183)
(0.00136557 0 -0.0901194)
(0.00131144 0 -0.0866209)
(0.00157601 0 -0.0977783)
(0.00152204 0 -0.0939833)
(0.00181201 0 -0.106085)
(0.00175891 0 -0.101967)
(0.002121 0 -0.116575)
(0.00204602 0 -0.111365)
(0.00245852 0 -0.127382)
(0.00238652 0 -0.122021)
(0.00283231 0 -0.138527)
(0.00276177 0 -0.133002)
(0.0032508 0 -0.150058)
(0.003179 0 -0.144342)
(0.0037238 0 -0.162034)
(0.00364764 0 -0.156099)
(0.0042632 0 -0.174525)
(0.00417868 0 -0.168338)
(0.00488404 0 -0.187608)
(0.00478564 0 -0.181134)
(0.00560596 0 -0.201372)
(0.00548612 0 -0.194569)
(0.00645497 0 -0.215929)
(0.00630334 0 -0.208744)
(0.0074647 0 -0.231426)
(0.00726758 0 -0.223787)
(0.00867649 0 -0.248039)
(0.00841672 0 -0.239867)
(0.0101417 0 -0.265922)
(0.00979689 0 -0.257176)
(0.0119408 0 -0.285091)
(0.0114686 0 -0.275844)
(0.0142504 0 -0.305344)
(0.0135385 0 -0.295815)
(0.0174855 0 -0.326483)
(0.0162505 0 -0.316845)
(0.0224821 0 -0.34916)
(0.0201571 0 -0.338985)
(0.0306277 0 -0.376329)
(0.0262429 0 -0.363755)
(0.0437808 0 -0.415608)
(0.0359427 0 -0.395761)
(0.0630739 0 -0.483971)
(0.0510701 0 -0.445289)
(0.0691195 0 -0.532984)
(-0.000370844 0 -0.0020132)
(-0.000438559 0 -0.00122827)
(-0.000364349 0 -0.0034908)
(-0.000435641 0 -0.00285131)
(-0.000355791 0 -0.0048342)
(-0.000426497 0 -0.00418455)
(-0.00034575 0 -0.00622858)
(-0.000416519 0 -0.00554331)
(-0.000334208 0 -0.00770637)
(-0.000405466 0 -0.00697848)
(-0.000320751 0 -0.00927484)
(-0.000392556 0 -0.00850446)
(-0.000304872 0 -0.0109361)
(-0.000377354 0 -0.0101217)
(-0.000286123 0 -0.0126961)
(-0.00035938 0 -0.0118342)
(-0.000264139 0 -0.014564)
(-0.000338193 0 -0.0136495)
(-0.000238597 0 -0.0165511)
(-0.000313431 0 -0.0155782)
(-0.000209189 0 -0.0186698)
(-0.000284761 0 -0.0176322)
(-0.000175583 0 -0.0209333)
(-0.000251847 0 -0.0198245)
(-0.000137408 0 -0.0233554)
(-0.000214319 0 -0.0221686)
(-9.42441e-05 0 -0.0259499)
(-0.000171764 0 -0.0246783)
(-4.56184e-05 0 -0.0287314)
(-0.000123712 0 -0.0273679)
(8.99846e-06 0 -0.031715)
(-6.96324e-05 0 -0.0302521)
(7.02002e-05 0 -0.0349163)
(-8.93143e-06 0 -0.0333462)
(0.000138651 0 -0.0383518)
(5.90532e-05 0 -0.0366664)
(0.000215096 0 -0.042039)
(0.000135063 0 -0.0402297)
(0.000300386 0 -0.0459961)
(0.000219927 0 -0.0440538)
(0.000395494 0 -0.0502431)
(0.000314582 0 -0.0481579)
(0.000501548 0 -0.0548013)
(0.000420103 0 -0.0525626)
(0.000619877 0 -0.0596944)
(0.000537744 0 -0.0572902)
(0.000752058 0 -0.0649489)
(0.000668999 0 -0.0623657)
(0.000899983 0 -0.070596)
(0.000815666 0 -0.0678178)
(0.0010659 0 -0.076673)
(0.000979896 0 -0.0736802)
(0.00125243 0 -0.0832252)
(0.00116422 0 -0.079994)
(0.00146244 0 -0.0903074)
(0.0013715 0 -0.0868094)
(0.00169874 0 -0.0979799)
(0.00160477 0 -0.0941855)
(0.00196349 0 -0.1063)
(0.00186664 0 -0.102183)
(0.00231051 0 -0.116809)
(0.00218407 0 -0.111597)
(0.00268912 0 -0.127639)
(0.00256054 0 -0.122274)
(0.00310755 0 -0.138814)
(0.00297447 0 -0.133281)
(0.00357481 0 -0.15038)
(0.00343341 0 -0.144654)
(0.00410136 0 -0.162399)
(0.00394724 0 -0.15645)
(0.00469997 0 -0.174942)
(0.00452737 0 -0.168737)
(0.00538669 0 -0.188089)
(0.00518791 0 -0.181592)
(0.00618237 0 -0.201934)
(0.00594715 0 -0.1951)
(0.00711448 0 -0.216592)
(0.00682899 0 -0.209365)
(0.00821829 0 -0.232217)
(0.00786415 0 -0.224522)
(0.00953732 0 -0.24899)
(0.00909085 0 -0.240746)
(0.0111262 0 -0.267079)
(0.0105557 0 -0.258235)
(0.0130695 0 -0.286544)
(0.01232 0 -0.277139)
(0.0155424 0 -0.307287)
(0.0144888 0 -0.297464)
(0.018928 0 -0.329311)
(0.017288 0 -0.319102)
(0.0239437 0 -0.353536)
(0.0211989 0 -0.342328)
(0.0316476 0 -0.383131)
(0.0270251 0 -0.368891)
(0.0431248 0 -0.425367)
(0.0357351 0 -0.403412)
(0.0579203 0 -0.494229)
(0.0481328 0 -0.455153)
(0.060734 0 -0.539831)
(-0.000502908 0 -0.00202761)
(-0.000585185 0 -0.00123793)
(-0.000496319 0 -0.00351324)
(-0.000582803 0 -0.00287178)
(-0.000487401 0 -0.00486122)
(-0.000572839 0 -0.00421095)
(-0.000476663 0 -0.00625895)
(-0.000562012 0 -0.0055736)
(-0.000464161 0 -0.00774014)
(-0.000549947 0 -0.00701209)
(-0.000449557 0 -0.00931274)
(-0.000535817 0 -0.00854189)
(-0.000432344 0 -0.0109789)
(-0.000519264 0 -0.0101638)
(-0.000412022 0 -0.0127442)
(-0.000499784 0 -0.0118815)
(-0.000388157 0 -0.0146176)
(-0.000476871 0 -0.0137025)
(-0.000360374 0 -0.0166103)
(-0.000450097 0 -0.0156371)
(-0.000328313 0 -0.0187346)
(-0.000419074 0 -0.017697)
(-0.000291598 0 -0.0210039)
(-0.000383419 0 -0.0198953)
(-0.000249814 0 -0.0234317)
(-0.000342716 0 -0.0222454)
(-0.000202494 0 -0.0260321)
(-0.000296506 0 -0.0247613)
(-0.000149116 0 -0.0288197)
(-0.000244271 0 -0.0274571)
(-8.90959e-05 0 -0.0318095)
(-0.000185432 0 -0.0303477)
(-2.17833e-05 0 -0.0350172)
(-0.000119339 0 -0.0334485)
(5.35484e-05 0 -0.0384593)
(-4.52736e-05 0 -0.0367755)
(0.000137717 0 -0.0421534)
(3.75677e-05 0 -0.0403459)
(0.000231648 0 -0.0461178)
(0.000130079 0 -0.0441774)
(0.000336399 0 -0.0503724)
(0.000233266 0 -0.0482894)
(0.000453192 0 -0.0549388)
(0.000348278 0 -0.0527023)
(0.000583458 0 -0.0598406)
(0.000476452 0 -0.0574387)
(0.000728887 0 -0.0651047)
(0.000619378 0 -0.0625237)
(0.00089149 0 -0.0707624)
(0.000778956 0 -0.0679862)
(0.00107365 0 -0.0768509)
(0.000957443 0 -0.0738601)
(0.00127813 0 -0.083416)
(0.00115747 0 -0.0801865)
(0.00150794 0 -0.0905119)
(0.00138203 0 -0.0870157)
(0.00176604 0 -0.0981986)
(0.00163425 0 -0.0944063)
(0.00205488 0 -0.106533)
(0.00191682 0 -0.102419)
(0.00243347 0 -0.117062)
(0.00225909 0 -0.111849)
(0.00284571 0 -0.127917)
(0.00266463 0 -0.122549)
(0.00329997 0 -0.139122)
(0.00310911 0 -0.133583)
(0.00380546 0 -0.150725)
(0.00360008 0 -0.144991)
(0.0043729 0 -0.162789)
(0.00414748 0 -0.156828)
(0.00501525 0 -0.175387)
(0.00476262 0 -0.169166)
(0.00574875 0 -0.188602)
(0.00545948 0 -0.182081)
(0.00659433 0 -0.20253)
(0.00625607 0 -0.195663)
(0.00757924 0 -0.217293)
(0.00717558 0 -0.210022)
(0.00873811 0 -0.233049)
(0.00824727 0 -0.225295)
(0.0101132 0 -0.249986)
(0.00950702 0 -0.241663)
(0.0117568 0 -0.268286)
(0.010998 0 -0.259331)
(0.0137488 0 -0.288046)
(0.0127761 0 -0.278467)
(0.0162475 0 -0.309261)
(0.0149342 0 -0.299129)
(0.0195813 0 -0.332092)
(0.017665 0 -0.321325)
(0.0243236 0 -0.35764)
(0.0213614 0 -0.34549)
(0.0312084 0 -0.389106)
(0.0266348 0 -0.373481)
(0.0406921 0 -0.433119)
(0.0340537 0 -0.409735)
(0.051371 0 -0.500736)
(0.0436621 0 -0.462272)
(0.0516086 0 -0.542577)
(-0.00066452 0 -0.00204305)
(-0.000761005 0 -0.00124836)
(-0.000657381 0 -0.00353748)
(-0.000758988 0 -0.00289396)
(-0.000647624 0 -0.00489073)
(-0.000747928 0 -0.00423984)
(-0.000635776 0 -0.00629233)
(-0.000736004 0 -0.00560703)
(-0.000621969 0 -0.00777722)
(-0.000722712 0 -0.00704922)
(-0.000605943 0 -0.00935411)
(-0.000707165 0 -0.00858298)
(-0.000587212 0 -0.0110253)
(-0.000689095 0 -0.0102096)
(-0.000565237 0 -0.0127962)
(-0.000668011 0 -0.0119327)
(-0.000539521 0 -0.0146756)
(-0.000643358 0 -0.0137597)
(-0.000509624 0 -0.0166744)
(-0.00061465 0 -0.0157004)
(-0.000475132 0 -0.0188049)
(-0.000581439 0 -0.0177667)
(-0.000435618 0 -0.0210805)
(-0.000543289 0 -0.0199715)
(-0.00039062 0 -0.0235146)
(-0.000499739 0 -0.0223282)
(-0.000339626 0 -0.0261215)
(-0.000450285 0 -0.0248507)
(-0.000282065 0 -0.0289157)
(-0.000394365 0 -0.0275533)
(-0.000217306 0 -0.0319123)
(-0.000331353 0 -0.0304509)
(-0.000144645 0 -0.035127)
(-0.000260551 0 -0.0335589)
(-6.33018e-05 0 -0.0385764)
(-0.000181192 0 -0.0368934)
(2.75974e-05 0 -0.042278)
(-9.24222e-05 0 -0.0404714)
(0.00012904 0 -0.0462503)
(6.70313e-06 0 -0.044311)
(0.000242148 0 -0.0505133)
(0.00011724 0 -0.0484313)
(0.000368214 0 -0.0550885)
(0.000240392 0 -0.0528531)
(0.00050874 0 -0.0599998)
(0.000377555 0 -0.0575989)
(0.000665495 0 -0.0652741)
(0.000530383 0 -0.0626941)
(0.000840568 0 -0.070943)
(0.000700838 0 -0.0681676)
(0.00103642 0 -0.0770438)
(0.000891237 0 -0.0740535)
(0.0012559 0 -0.0836223)
(0.00110427 0 -0.0803932)
(0.0015021 0 -0.0907327)
(0.00134294 0 -0.0872367)
(0.00177806 0 -0.0984344)
(0.00161047 0 -0.0946425)
(0.00208638 0 -0.106785)
(0.00190949 0 -0.10267)
(0.00249002 0 -0.117334)
(0.00227111 0 -0.112118)
(0.00292829 0 -0.128214)
(0.00269872 0 -0.122841)
(0.00340938 0 -0.139451)
(0.00316545 0 -0.133904)
(0.00394234 0 -0.151092)
(0.00367863 0 -0.145346)
(0.00453766 0 -0.163202)
(0.00424776 0 -0.157225)
(0.00520787 0 -0.175856)
(0.00488352 0 -0.169612)
(0.00596851 0 -0.189139)
(0.00559908 0 -0.182588)
(0.00683942 0 -0.20315)
(0.0064112 0 -0.196244)
(0.00784603 0 -0.218017)
(0.00734097 0 -0.210693)
(0.00902004 0 -0.233901)
(0.00841439 0 -0.226078)
(0.0103991 0 -0.250998)
(0.00966256 0 -0.242583)
(0.0120287 0 -0.269499)
(0.0111216 0 -0.260417)
(0.0139758 0 -0.289534)
(0.0128367 0 -0.279765)
(0.0163713 0 -0.311171)
(0.0148816 0 -0.300727)
(0.0194771 0 -0.334694)
(0.0174062 0 -0.323396)
(0.0237209 0 -0.361296)
(0.0207113 0 -0.348319)
(0.0295595 0 -0.394078)
(0.025228 0 -0.377373)
(0.0369846 0 -0.438884)
(0.0312057 0 -0.414685)
(0.044086 0 -0.504186)
(0.0381627 0 -0.467006)
(0.0422464 0 -0.542372)
(-0.000854789 0 -0.00205992)
(-0.000964711 0 -0.00125951)
(-0.000847097 0 -0.00356413)
(-0.000963212 0 -0.00291787)
(-0.000836481 0 -0.00492342)
(-0.000951148 0 -0.00427128)
(-0.000823483 0 -0.00632941)
(-0.00093824 0 -0.00564373)
(-0.000808301 0 -0.00781826)
(-0.000923821 0 -0.00709008)
(-0.000790763 0 -0.00939949)
(-0.000906914 0 -0.00862797)
(-0.000770434 0 -0.0110757)
(-0.000887356 0 -0.0102593)
(-0.00074677 0 -0.0128524)
(-0.000864696 0 -0.0119879)
(-0.000719237 0 -0.014738)
(-0.000838367 0 -0.0138209)
(-0.000687337 0 -0.0167432)
(-0.000807838 0 -0.0157681)
(-0.000650601 0 -0.0188803)
(-0.000772613 0 -0.017841)
(-0.000608552 0 -0.0211626)
(-0.00073221 0 -0.0200525)
(-0.000560683 0 -0.0236036)
(-0.000686124 0 -0.0224162)
(-0.000506438 0 -0.0262175)
(-0.000633812 0 -0.0249458)
(-0.000445205 0 -0.0290188)
(-0.000574672 0 -0.0276556)
(-0.000376309 0 -0.0320227)
(-0.000508039 0 -0.0305607)
(-0.000299006 0 -0.035245)
(-0.000433178 0 -0.0336763)
(-0.00021247 0 -0.0387022)
(-0.000349281 0 -0.0370187)
(-0.000115781 0 -0.0424119)
(-0.000255456 0 -0.0406049)
(-7.9078e-06 0 -0.0463927)
(-0.000150723 0 -0.044453)
(0.000112318 0 -0.0506646)
(-3.39917e-05 0 -0.0485821)
(0.000246233 0 -0.0552491)
(9.59734e-05 0 -0.0530132)
(0.000395386 0 -0.0601705)
(0.000240604 0 -0.057769)
(0.000561587 0 -0.0654557)
(0.000401586 0 -0.0628748)
(0.000746966 0 -0.0711363)
(0.000580906 0 -0.0683597)
(0.000954018 0 -0.07725)
(0.000780894 0 -0.074258)
(0.0011856 0 -0.0838424)
(0.00100423 0 -0.0806112)
(0.00144482 0 -0.0909678)
(0.00125391 0 -0.0874694)
(0.00173469 0 -0.0986849)
(0.00153308 0 -0.0948905)
(0.00205785 0 -0.107051)
(0.00184428 0 -0.102934)
(0.00247997 0 -0.117622)
(0.00221971 0 -0.112399)
(0.00293657 0 -0.128528)
(0.00266226 0 -0.123145)
(0.00343535 0 -0.139796)
(0.00314288 0 -0.134237)
(0.00398486 0 -0.151475)
(0.00366829 0 -0.145712)
(0.00459484 0 -0.163631)
(0.00424718 0 -0.157632)
(0.00527679 0 -0.176339)
(0.00488904 0 -0.170067)
(0.00604471 0 -0.189687)
(0.00560557 0 -0.1831)
(0.00691619 0 -0.203779)
(0.00641133 0 -0.196825)
(0.00791334 0 -0.218744)
(0.00732406 0 -0.211357)
(0.00906285 0 -0.234748)
(0.00836493 0 -0.226844)
(0.010395 0 -0.251989)
(0.00955811 0 -0.243471)
(0.0119442 0 -0.270669)
(0.0109298 0 -0.26145)
(0.0137599 0 -0.29094)
(0.0125108 0 -0.280976)
(0.0159391 0 -0.31293)
(0.0143507 0 -0.302179)
(0.0186754 0 -0.336999)
(0.0165542 0 -0.32522)
(0.0222626 0 -0.364378)
(0.0193337 0 -0.350711)
(0.0269324 0 -0.397976)
(0.0229606 0 -0.380486)
(0.0323474 0 -0.442831)
(0.0274414 0 -0.418295)
(0.0363767 0 -0.505261)
(0.0319535 0 -0.469693)
(0.0328519 0 -0.54001)
(-0.00107232 0 -0.0020778)
(-0.00119533 0 -0.00127106)
(-0.00106429 0 -0.00359265)
(-0.00119455 0 -0.00294283)
(-0.00105308 0 -0.00495876)
(-0.00118173 0 -0.00430452)
(-0.00103919 0 -0.00636979)
(-0.00116814 0 -0.00568295)
(-0.00102285 0 -0.00786299)
(-0.00115291 0 -0.00713405)
(-0.00100398 0 -0.00944873)
(-0.00113491 0 -0.00867642)
(-0.000982186 0 -0.0111301)
(-0.00111409 0 -0.0103126)
(-0.000956963 0 -0.0129125)
(-0.00109005 0 -0.0120468)
(-0.000927756 0 -0.0148044)
(-0.00106224 0 -0.0138859)
(-0.000894031 0 -0.0168162)
(-0.00103009 0 -0.0158396)
(-0.000855277 0 -0.0189602)
(-0.000993095 0 -0.0179194)
(-0.000810978 0 -0.0212495)
(-0.000950722 0 -0.020138)
(-0.000760589 0 -0.0236976)
(-0.000902439 0 -0.0225088)
(-0.000703518 0 -0.0263189)
(-0.000847672 0 -0.0250458)
(-0.000639119 0 -0.0291278)
(-0.000785791 0 -0.0277633)
(-0.000566684 0 -0.0321394)
(-0.0007161 0 -0.0306761)
(-0.000485435 0 -0.0353697)
(-0.000637835 0 -0.0337997)
(-0.000394514 0 -0.0388352)
(-0.000550159 0 -0.0371503)
(-0.000292971 0 -0.0425534)
(-0.000452157 0 -0.0407451)
(-0.000179743 0 -0.0465431)
(-0.000342828 0 -0.044602)
(-5.36372e-05 0 -0.0508242)
(-0.000221066 0 -0.0487403)
(8.67062e-05 0 -0.0554186)
(-8.56214e-05 0 -0.0531811)
(0.000242854 0 -0.0603504)
(6.49464e-05 0 -0.057947)
(0.000416625 0 -0.0656468)
(0.000232324 0 -0.0630636)
(0.000610144 0 -0.0713394)
(0.000418486 0 -0.0685602)
(0.000825887 0 -0.0774663)
(0.000625726 0 -0.0744712)
(0.00106667 0 -0.0840729)
(0.000856661 0 -0.080838)
(0.00133551 0 -0.0912133)
(0.00111419 0 -0.0877107)
(0.00163531 0 -0.0989459)
(0.00140133 0 -0.0951471)
(0.00196861 0 -0.107328)
(0.00172038 0 -0.103206)
(0.00240257 0 -0.11792)
(0.002104 0 -0.112689)
(0.00286969 0 -0.128851)
(0.00255433 0 -0.123457)
(0.00337692 0 -0.14015)
(0.00304039 0 -0.134575)
(0.00393193 0 -0.151865)
(0.00356805 0 -0.146082)
(0.00454329 0 -0.164064)
(0.00414472 0 -0.158039)
(0.00522082 0 -0.176823)
(0.00477827 0 -0.170519)
(0.00597623 0 -0.190232)
(0.00547824 0 -0.183604)
(0.00682381 0 -0.204397)
(0.00625614 0 -0.19739)
(0.007781 0 -0.219449)
(0.00712536 0 -0.211996)
(0.00886777 0 -0.235557)
(0.00810091 0 -0.227568)
(0.0101048 0 -0.252921)
(0.00919833 0 -0.244295)
(0.0115129 0 -0.271745)
(0.0104319 0 -0.262389)
(0.0131204 0 -0.292201)
(0.0118153 0 -0.282048)
(0.014989 0 -0.314455)
(0.0133721 0 -0.303425)
(0.0172462 0 -0.338918)
(0.0151624 0 -0.326725)
(0.0200688 0 -0.36681)
(0.0173176 0 -0.352592)
(0.0235089 0 -0.400806)
(0.019973 0 -0.38278)
(0.0270098 0 -0.445173)
(0.0229561 0 -0.420629)
(0.0284082 0 -0.504482)
(0.025246 0 -0.470625)
(0.0235166 0 -0.536038)
(-0.00131662 0 -0.00209612)
(-0.00145305 0 -0.00128271)
(-0.00130847 0 -0.00362214)
(-0.0014531 0 -0.00296818)
(-0.00129696 0 -0.00499574)
(-0.00143975 0 -0.00433864)
(-0.00128253 0 -0.0064125)
(-0.00142579 0 -0.00572372)
(-0.0012654 0 -0.00791058)
(-0.00141007 0 -0.00718019)
(-0.00124551 0 -0.00950115)
(-0.00139131 0 -0.0087275)
(-0.00122254 0 -0.0111878)
(-0.00136953 0 -0.0103688)
(-0.00119602 0 -0.0129761)
(-0.0013444 0 -0.0121087)
(-0.0011654 0 -0.0148743)
(-0.00131537 0 -0.013954)
(-0.00113011 0 -0.0168929)
(-0.0012819 0 -0.0159144)
(-0.00108964 0 -0.019044)
(-0.00124342 0 -0.0180012)
(-0.00104343 0 -0.0213405)
(-0.00119941 0 -0.0202271)
(-0.000990907 0 -0.0237961)
(-0.0011493 0 -0.0226053)
(-0.000931466 0 -0.026425)
(-0.00109252 0 -0.02515)
(-0.000864433 0 -0.0292417)