/*--------------------------------*- C++ -*----------------------------------*\
  =========                 |
  \\      /  F ield         | OpenFOAM: The Open Source CFD Toolbox
   \\    /   O peration     | Website:  https://openfoam.org
    \\  /    A nd           | Version:  9
     \\/     M anipulation  |
\*---------------------------------------------------------------------------*/
FoamFile
{
    format      ascii;
    class       volScalarField;
    location    "0.19";
    object      alpha.water;
}
// * * * * * * * * * * * * * * * * * * * * * * * * * * * * * * * * * * * * * //

dimensions      [0 0 0 0 0 0 0];

internalField   nonuniform List<scalar> 
5000
(
3.58603e-319
3.41814e-319
3.25787e-319
3.10491e-319
2.95886e-319
2.81934e-319
2.68584e-319
2.55807e-319
2.43535e-319
2.31746e-319
2.20373e-319
2.09286e-319
1.98318e-319
1.87429e-319
1.76599e-319
1.66204e-319
1.5985e-319
1.9982e-319
1.91401e-319
1.41342e-319
1.30927e-319
1.25858e-319
1.21086e-319
1.16105e-319
1.11076e-319
1.06165e-319
1.01481e-319
9.70543e-320
9.28053e-320
8.85761e-320
7.22324e-320
7.20051e-320
7.19755e-320
7.23312e-320
7.30328e-320
7.32996e-320
7.25684e-320
7.17581e-320
7.12838e-320
7.10466e-320
7.09182e-320
7.0849e-320
7.08095e-320
7.0849e-320
7.13036e-320
7.42383e-320
8.01177e-320
7.42581e-320
7.14814e-320
7.11949e-320
3.58711e-319
3.41933e-319
3.25925e-319
3.10639e-319
2.96064e-319
2.82151e-319
2.68851e-319
2.56143e-319
2.4391e-319
2.31974e-319
2.20314e-319
2.0898e-319
1.97883e-319
1.86984e-319
1.76263e-319
1.66293e-319
1.61174e-319
1.9063e-319
1.86441e-319
1.43338e-319
1.31263e-319
1.25839e-319
1.21026e-319
1.16046e-319
1.11046e-319
1.06145e-319
1.01471e-319
9.70444e-320
9.28053e-320
8.85761e-320
7.22324e-320
7.20051e-320
7.19755e-320
7.23312e-320
7.30427e-320
7.32996e-320
7.25881e-320
7.17779e-320
7.12937e-320
7.10466e-320
7.09281e-320
7.0849e-320
7.08095e-320
7.08589e-320
7.13431e-320
7.43075e-320
7.98015e-320
7.42877e-320
7.14814e-320
7.1185e-320
3.58751e-319
3.41992e-319
3.26004e-319
3.10748e-319
2.96202e-319
2.82319e-319
2.69068e-319
2.56361e-319
2.44029e-319
2.32013e-319
2.20413e-319
2.09168e-319
1.98229e-319
1.87577e-319
1.77261e-319
1.67874e-319
1.63575e-319
1.83684e-319
1.80364e-319
1.45542e-319
1.32291e-319
1.26342e-319
1.21254e-319
1.16145e-319
1.11076e-319
1.06165e-319
1.01481e-319
9.70543e-320
9.28152e-320
8.8586e-320
7.22423e-320
7.19952e-320
7.19755e-320
7.23312e-320
7.30427e-320
7.33193e-320
7.26079e-320
7.17779e-320
7.12937e-320
7.10466e-320
7.09281e-320
7.0849e-320
7.08095e-320
7.08688e-320
7.13826e-320
7.43668e-320
7.94458e-320
7.4347e-320
7.15111e-320
7.1185e-320
3.58662e-319
3.41923e-319
3.25955e-319
3.10728e-319
2.96202e-319
2.82349e-319
2.69127e-319
2.56499e-319
2.44266e-319
2.32349e-319
2.20847e-319
2.09741e-319
1.9897e-319
1.88565e-319
1.78575e-319
1.69702e-319
1.66144e-319
1.78901e-319
1.75215e-319
1.47429e-319
1.33437e-319
1.26935e-319
1.2158e-319
1.16323e-319
1.11165e-319
1.06204e-319
1.01501e-319
9.7074e-320
9.28251e-320
8.85959e-320
7.22423e-320
7.19952e-320
7.19656e-320
7.23411e-320
7.30624e-320
7.33193e-320
7.26276e-320
7.17976e-320
7.13036e-320
7.10466e-320
7.09281e-320
7.0849e-320
7.08095e-320
7.08688e-320
7.14419e-320
7.44458e-320
7.90703e-320
7.44063e-320
7.15605e-320
7.11751e-320
3.58415e-319
3.41706e-319
3.25767e-319
3.1057e-319
2.96064e-319
2.8223e-319
2.69029e-319
2.5642e-319
2.44345e-319
2.32725e-319
2.21391e-319
2.10373e-319
1.99751e-319
1.89504e-319
1.79761e-319
1.71381e-319
1.6818e-319
1.75996e-319
1.7151e-319
1.48714e-319
1.34485e-319
1.27449e-319
1.21866e-319
1.16491e-319
1.11264e-319
1.06264e-319
1.0153e-319
9.70938e-320
9.28448e-320
8.86057e-320
7.22522e-320
7.19952e-320
7.19557e-320
7.2351e-320
7.30624e-320
7.33391e-320
7.26474e-320
7.17976e-320
7.13036e-320
7.10466e-320
7.09182e-320
7.0849e-320
7.07996e-320
7.08688e-320
7.15012e-320
7.45249e-320
7.87343e-320
7.44656e-320
7.16099e-320
7.11652e-320
3.58059e-319
3.41399e-319
3.2549e-319
3.10313e-319
2.95837e-319
2.82023e-319
2.68831e-319
2.56222e-319
2.44167e-319
2.32626e-319
2.21559e-319
2.10857e-319
2.00403e-319
1.90284e-319
1.80749e-319
1.72785e-319
1.69662e-319
1.74099e-319
1.68832e-319
1.49465e-319
1.35433e-319
1.27894e-319
1.22094e-319
1.16629e-319
1.11343e-319
1.06303e-319
1.0156e-319
9.71135e-320
9.28646e-320
8.86156e-320
7.22522e-320
7.19952e-320
7.19557e-320
7.2351e-320
7.30822e-320
7.33589e-320
7.26672e-320
7.18075e-320
7.12838e-320
7.10466e-320
7.09083e-320
7.08293e-320
7.07897e-320
7.08589e-320
7.15703e-320
7.46039e-320
7.84181e-320
7.4515e-320
7.16593e-320
7.11652e-320
3.57674e-319
3.41044e-319
3.25174e-319
3.10016e-319
2.9557e-319
2.81776e-319
2.68604e-319
2.56015e-319
2.4397e-319
2.32438e-319
2.21381e-319
2.10788e-319
2.0065e-319
1.90848e-319
1.81559e-319
1.73941e-319
1.70729e-319
1.72755e-319
1.66876e-319
1.49919e-319
1.36234e-319
1.28279e-319
1.22281e-319
1.16738e-319
1.11402e-319
1.06343e-319
1.0158e-319
9.71333e-320
9.28745e-320
8.86354e-320
7.22522e-320
7.19952e-320
7.19557e-320
7.2351e-320
7.3102e-320
7.33687e-320
7.26869e-320
7.18075e-320
7.12838e-320
7.10269e-320
7.09083e-320
7.08293e-320
7.07897e-320
7.08589e-320
7.16395e-320
7.46632e-320
7.81414e-320
7.45446e-320
7.17186e-320
7.11652e-320
3.57308e-319
3.40708e-319
3.24858e-319
3.0974e-319
2.95313e-319
2.81538e-319
2.68386e-319
2.55807e-319
2.43792e-319
2.3227e-319
2.21223e-319
2.1065e-319
2.00541e-319
1.91026e-319
1.82162e-319
1.74899e-319
1.715e-319
1.71737e-319
1.65393e-319
1.50186e-319
1.36925e-319
1.28615e-319
1.22429e-319
1.16807e-319
1.11441e-319
1.06362e-319
1.016e-319
9.71333e-320
9.28843e-320
8.86354e-320
7.22522e-320
7.19854e-320
7.19557e-320
7.23707e-320
7.3102e-320
7.33786e-320
7.26968e-320
7.18174e-320
7.12739e-320
7.10269e-320
7.08885e-320
7.08095e-320
7.077e-320
7.0849e-320
7.16988e-320
7.47126e-320
7.78944e-320
7.45841e-320
7.17779e-320
7.11652e-320
3.56992e-319
3.40411e-319
3.24601e-319
3.09502e-319
2.95096e-319
2.81341e-319
2.68199e-319
2.55649e-319
2.43634e-319
2.32132e-319
2.21104e-319
2.10561e-319
2.00512e-319
1.91075e-319
1.82557e-319
1.7567e-319
1.72034e-319
1.70897e-319
1.64227e-319
1.50354e-319
1.37508e-319
1.28902e-319
1.22528e-319
1.16856e-319
1.11461e-319
1.06362e-319
1.016e-319
9.71531e-320
9.29041e-320
8.86453e-320
7.22522e-320
7.19755e-320
7.1936e-320
7.23707e-320
7.31217e-320
7.33984e-320
7.27166e-320
7.18174e-320
7.1264e-320
7.10071e-320
7.08787e-320
7.08095e-320
7.07601e-320
7.0849e-320
7.17581e-320
7.47521e-320
7.7677e-320
7.46039e-320
7.18273e-320
7.11652e-320
3.56735e-319
3.40194e-319
3.24394e-319
3.09315e-319
2.94928e-319
2.81183e-319
2.6806e-319
2.55531e-319
2.43535e-319
2.32053e-319
2.21055e-319
2.10541e-319
2.00531e-319
1.91203e-319
1.82943e-319
1.76293e-319
1.72399e-319
1.70176e-319
1.63289e-319
1.50433e-319
1.37983e-319
1.29169e-319
1.22617e-319
1.16876e-319
1.11461e-319
1.06362e-319
1.016e-319
9.71531e-320
9.29041e-320
8.86551e-320
7.22522e-320
7.19755e-320
7.1936e-320
7.23707e-320
7.31316e-320
7.34182e-320
7.27265e-320
7.18174e-320
7.12541e-320
7.09972e-320
7.08688e-320
7.07897e-320
7.07502e-320
7.0849e-320
7.18174e-320
7.47818e-320
7.74893e-320
7.46237e-320
7.18767e-320
7.11751e-320
3.56557e-319
3.40036e-319
3.24245e-319
3.09186e-319
2.94819e-319
2.81094e-319
2.67981e-319
2.55462e-319
2.43485e-319
2.32023e-319
2.21055e-319
2.10571e-319
2.0063e-319
1.91401e-319
1.83318e-319
1.76796e-319
1.72636e-319
1.69583e-319
1.62538e-319
1.50453e-319
1.38378e-319
1.29396e-319
1.22686e-319
1.16876e-319
1.11461e-319
1.06353e-319
1.0158e-319
9.71531e-320
9.29041e-320
8.86551e-320
7.22522e-320
7.19755e-320
7.1936e-320
7.23707e-320
7.31415e-320
7.34379e-320
7.27462e-320
7.18174e-320
7.12443e-320
7.09874e-320
7.0849e-320
7.077e-320
7.07304e-320
7.0849e-320
7.18668e-320
7.48015e-320
7.73114e-320
7.46237e-320
7.19162e-320
7.11751e-320
3.56458e-319
3.39937e-319
3.24166e-319
3.09127e-319
2.9476e-319
2.81044e-319
2.67952e-319
2.55442e-319
2.43476e-319
2.32043e-319
2.21104e-319
2.1065e-319
2.00769e-319
1.91638e-319
1.83664e-319
1.77221e-319
1.72785e-319
1.69069e-319
1.61905e-319
1.50433e-319
1.38694e-319
1.29603e-319
1.22746e-319
1.16876e-319
1.11441e-319
1.06333e-319
1.0158e-319
9.71432e-320
9.29041e-320
8.86551e-320
7.22522e-320
7.19557e-320
7.19162e-320
7.23806e-320
7.31612e-320
7.34577e-320
7.2766e-320
7.18273e-320
7.12344e-320
7.09676e-320
7.08293e-320
7.07502e-320
7.07107e-320
7.0849e-320
7.19162e-320
7.48213e-320
7.71533e-320
7.46434e-320
7.19656e-320
7.1185e-320
3.56419e-319
3.39897e-319
3.24137e-319
3.09097e-319
2.9474e-319
2.81044e-319
2.67961e-319
2.55462e-319
2.43515e-319
2.32092e-319
2.21173e-319
2.10768e-319
2.00936e-319
1.91875e-319
1.84e-319
1.77577e-319
1.72883e-319
1.68634e-319
1.61362e-319
1.50354e-319
1.38941e-319
1.29801e-319
1.22805e-319
1.16876e-319
1.11422e-319
1.06313e-319
1.0156e-319
9.71333e-320
9.29041e-320
8.86551e-320
7.22522e-320
7.19557e-320
7.19162e-320
7.23806e-320
7.31711e-320
7.34676e-320
7.27858e-320
7.18371e-320
7.12245e-320
7.09478e-320
7.08194e-320
7.07304e-320
7.06909e-320
7.0849e-320
7.19557e-320
7.48213e-320
7.7015e-320
7.46434e-320
7.19952e-320
7.1185e-320
3.56419e-319
3.39897e-319
3.24147e-319
3.09107e-319
2.9476e-319
2.81064e-319
2.67991e-319
2.55511e-319
2.43574e-319
2.32171e-319
2.21262e-319
2.10887e-319
2.01114e-319
1.92132e-319
1.84316e-319
1.77883e-319
1.72943e-319
1.68239e-319
1.60868e-319
1.50255e-319
1.39139e-319
1.29979e-319
1.22864e-319
1.16866e-319
1.11402e-319
1.06283e-319
1.0154e-319
9.71234e-320
9.29041e-320
8.86551e-320
7.22522e-320
7.1936e-320
7.19063e-320
7.23806e-320
7.3181e-320
7.34873e-320
7.28055e-320
7.18371e-320
7.12146e-320
7.09281e-320
7.07996e-320
7.07107e-320
7.06711e-320
7.08391e-320
7.19854e-320
7.48213e-320
7.68766e-320
7.46434e-320
7.20348e-320
7.1185e-320
3.56439e-319
3.39937e-319
3.24176e-319
3.09147e-319
2.94799e-319
2.81113e-319
2.6804e-319
2.5557e-319
2.43644e-319
2.3225e-319
2.21381e-319
2.11025e-319
2.01302e-319
1.92369e-319
1.84603e-319
1.7814e-319
1.72963e-319
1.67893e-319
1.60433e-319
1.50137e-319
1.39297e-319
1.30137e-319
1.22924e-319
1.16866e-319
1.11382e-319
1.06264e-319
1.01521e-319
9.71135e-320
9.29041e-320
8.86551e-320
7.22522e-320
7.1936e-320
7.18964e-320
7.23905e-320
7.32008e-320
7.34972e-320
7.28253e-320
7.1847e-320
7.12047e-320
7.09083e-320
7.07798e-320
7.06909e-320
7.06514e-320
7.08293e-320
7.2015e-320
7.48213e-320
7.6758e-320
7.46434e-320
7.20743e-320
7.11751e-320
3.56498e-319
3.39976e-319
3.24226e-319
3.09206e-319
2.94858e-319
2.81173e-319
2.6811e-319
2.55639e-319
2.43732e-319
2.32349e-319
2.2149e-319
2.11164e-319
2.0148e-319
1.92607e-319
1.84869e-319
1.78358e-319
1.72982e-319
1.67577e-319
1.60038e-319
1.50018e-319
1.39425e-319
1.30285e-319
1.22993e-319
1.16876e-319
1.11362e-319
1.06244e-319
1.01501e-319
9.71135e-320
9.29041e-320
8.86551e-320
7.22423e-320
7.19162e-320
7.18866e-320
7.23905e-320
7.32008e-320
7.3517e-320
7.2845e-320
7.18569e-320
7.11949e-320
7.08885e-320
7.07502e-320
7.06711e-320
7.06217e-320
7.08293e-320
7.20545e-320
7.48213e-320
7.66493e-320
7.46237e-320
7.20941e-320
7.11751e-320
3.56557e-319
3.40046e-319
3.24285e-319
3.09265e-319
2.94918e-319
2.81242e-319
2.68179e-319
2.55718e-319
2.43812e-319
2.32448e-319
2.21598e-319
2.11312e-319
2.01658e-319
1.92824e-319
1.85097e-319
1.78536e-319
1.72982e-319
1.67291e-319
1.59682e-319
1.4989e-319
1.39534e-319
1.30433e-319
1.23062e-319
1.16876e-319
1.11343e-319
1.06224e-319
1.01481e-319
9.70938e-320
9.29041e-320
8.86551e-320
7.22423e-320
7.19162e-320
7.18767e-320
7.23905e-320
7.32205e-320
7.35367e-320
7.28648e-320
7.18569e-320
7.1185e-320
7.08787e-320
7.07304e-320
7.06415e-320
7.05921e-320
7.08293e-320
7.20941e-320
7.48213e-320
7.65505e-320
7.46237e-320
7.21237e-320
7.11652e-320
3.56626e-319
3.40115e-319
3.24364e-319
3.09325e-319
2.94997e-319
2.81311e-319
2.68258e-319
2.55798e-319
2.439e-319
2.32547e-319
2.21717e-319
2.1145e-319
2.01826e-319
1.93022e-319
1.85294e-319
1.78684e-319
1.72963e-319
1.67014e-319
1.59356e-319
1.49771e-319
1.39623e-319
1.30552e-319
1.23121e-319
1.16886e-319
1.11323e-319
1.06204e-319
1.01471e-319
9.70938e-320
9.29041e-320
8.86551e-320
7.22324e-320
7.18964e-320
7.18668e-320
7.23905e-320
7.32304e-320
7.35565e-320
7.28846e-320
7.18767e-320
7.1185e-320
7.08589e-320
7.07107e-320
7.06119e-320
7.05723e-320
7.08194e-320
7.21237e-320
7.48213e-320
7.64616e-320
7.46138e-320
7.21533e-320
7.11652e-320
3.56696e-319
3.40174e-319
3.24423e-319
3.09394e-319
2.95056e-319
2.8138e-319
2.68337e-319
2.55877e-319
2.43989e-319
2.32636e-319
2.21826e-319
2.11579e-319
2.01994e-319
1.93219e-319
1.85472e-319
1.78812e-319
1.72913e-319
1.66757e-319
1.59059e-319
1.49652e-319
1.39682e-319
1.3067e-319
1.2319e-319
1.16896e-319
1.11303e-319
1.06185e-319
1.01461e-319
9.70839e-320
9.29041e-320
8.86551e-320
7.22324e-320
7.18866e-320
7.18569e-320
7.23905e-320
7.32403e-320
7.35763e-320
7.29043e-320
7.18767e-320
7.11652e-320
7.08293e-320
7.06909e-320
7.05921e-320
7.05427e-320
7.08095e-320
7.21533e-320
7.48213e-320
7.63825e-320
7.46039e-320
7.21731e-320
7.11652e-320
3.56755e-319
3.40233e-319
3.24483e-319
3.09463e-319
2.95125e-319
2.81449e-319
2.68396e-319
2.55946e-319
2.44068e-319
2.32725e-319
2.21934e-319
2.11707e-319
2.02142e-319
1.93387e-319
1.8563e-319
1.78911e-319
1.72844e-319
1.665e-319
1.58793e-319
1.49544e-319
1.39742e-319
1.30779e-319
1.23259e-319
1.16916e-319
1.11293e-319
1.06165e-319
1.01442e-319
9.7074e-320
9.29041e-320
8.86551e-320
7.22324e-320
7.18767e-320
7.1847e-320
7.23905e-320
7.32601e-320
7.3596e-320
7.2934e-320
7.18964e-320
7.11553e-320
7.08095e-320
7.06514e-320
7.05526e-320
7.0513e-320
7.08095e-320
7.21929e-320
7.48114e-320
7.63035e-320
7.45841e-320
7.2183e-320
7.11652e-320
3.56814e-319
3.40293e-319
3.24542e-319
3.09522e-319
2.95184e-319
2.81519e-319
2.68465e-319
2.56025e-319
2.44147e-319
2.32814e-319
2.22033e-319
2.11826e-319
2.0229e-319
1.93545e-319
1.85769e-319
1.7897e-319
1.72755e-319
1.66263e-319
1.58546e-319
1.49425e-319
1.39781e-319
1.30868e-319
1.23319e-319
1.16926e-319
1.11283e-319
1.06145e-319
1.01422e-319
9.7074e-320
9.29041e-320
8.86551e-320
7.22225e-320
7.18668e-320
7.18371e-320
7.23905e-320
7.32601e-320
7.36059e-320
7.29537e-320
7.18964e-320
7.11455e-320
7.07897e-320
7.06316e-320
7.05328e-320
7.04933e-320
7.07996e-320
7.22126e-320
7.48114e-320
7.62442e-320
7.45841e-320
7.22028e-320
7.11553e-320
3.56864e-319
3.40352e-319
3.24591e-319
3.09562e-319
2.95234e-319
2.81568e-319
2.68525e-319
2.56084e-319
2.44207e-319
2.32893e-319
2.22122e-319
2.11934e-319
2.02409e-319
1.93693e-319
1.85887e-319
1.7901e-319
1.72646e-319
1.66036e-319
1.58318e-319
1.49317e-319
1.39811e-319
1.30957e-319
1.23378e-319
1.16935e-319
1.11264e-319
1.06125e-319
1.01422e-319
9.7074e-320
9.29041e-320
8.8665e-320
7.22225e-320
7.18569e-320
7.18174e-320
7.23905e-320
7.32798e-320
7.36257e-320
7.29636e-320
7.19063e-320
7.11356e-320
7.077e-320
7.0602e-320
7.04933e-320
7.04538e-320
7.07996e-320
7.22522e-320
7.48114e-320
7.6175e-320
7.45644e-320
7.22126e-320
7.11455e-320
3.56903e-319
3.40391e-319
3.24641e-319
3.09611e-319
2.95283e-319
2.81617e-319
2.68574e-319
2.56143e-319
2.44276e-319
2.32962e-319
2.22211e-319
2.12043e-319
2.02537e-319
1.93822e-319
1.85996e-319
1.7903e-319
1.72547e-319
1.65828e-319
1.58101e-319
1.49208e-319
1.3983e-319
1.31026e-319
1.23427e-319
1.16955e-319
1.11264e-319
1.06106e-319
1.01402e-319
9.70641e-320
9.29041e-320
8.8665e-320
7.22126e-320
7.18371e-320
7.18174e-320
7.23905e-320
7.32897e-320
7.36355e-320
7.29834e-320
7.19162e-320
7.11257e-320
7.07403e-320
7.05723e-320
7.04735e-320
7.0434e-320
7.07897e-320
7.22719e-320
7.48114e-320
7.61256e-320
7.45446e-320
7.22225e-320
7.11455e-320
3.56933e-319
3.40411e-319
3.2466e-319
3.09641e-319
2.95323e-319
2.81657e-319
2.68623e-319
2.56193e-319
2.44335e-319
2.33031e-319
2.2229e-319
2.12132e-319
2.02646e-319
1.93941e-319
1.86085e-319
1.79049e-319
1.72449e-319
1.65631e-319
1.57903e-319
1.49099e-319
1.3984e-319
1.31105e-319
1.23477e-319
1.16955e-319
1.11244e-319
1.06086e-319
1.01382e-319
9.70543e-320
9.29041e-320
8.86749e-320
7.22126e-320
7.18371e-320
7.17976e-320
7.23905e-320
7.32996e-320
7.36553e-320
7.30031e-320
7.19162e-320
7.11059e-320
7.07107e-320
7.05427e-320
7.0434e-320
7.03945e-320
7.07897e-320
7.23016e-320
7.48114e-320
7.60663e-320
7.45249e-320
7.22324e-320
7.11257e-320
3.56953e-319
3.40431e-319
3.2469e-319
3.0968e-319
2.95352e-319
2.81696e-319
2.68663e-319
2.56242e-319
2.44385e-319
2.331e-319
2.22369e-319
2.12231e-319
2.02765e-319
1.94049e-319
1.86164e-319
1.79049e-319
1.7235e-319
1.65453e-319
1.57706e-319
1.4899e-319
1.3984e-319
1.31155e-319
1.23516e-319
1.16975e-319
1.11234e-319
1.06066e-319
1.01382e-319
9.70543e-320
9.29041e-320
8.86749e-320
7.22126e-320
7.18174e-320
7.17976e-320
7.23905e-320
7.33193e-320
7.36751e-320
7.30229e-320
7.19261e-320
7.10862e-320
7.06909e-320
7.0513e-320
7.03945e-320
7.03747e-320
7.07897e-320
7.23312e-320
7.48114e-320
7.60169e-320
7.45051e-320
7.22324e-320
7.11158e-320
3.56953e-319
3.40451e-319
3.247e-319
3.0969e-319
2.95372e-319
2.81716e-319
2.68693e-319
2.56272e-319
2.44424e-319
2.3315e-319
2.22428e-319
2.1231e-319
2.02853e-319
1.94148e-319
1.86243e-319
1.79049e-319
1.72251e-319
1.65275e-319
1.57528e-319
1.48892e-319
1.3984e-319
1.31204e-319
1.23566e-319
1.16985e-319
1.11224e-319
1.06046e-319
1.01363e-319
9.70543e-320
9.2914e-320
8.86749e-320
7.22126e-320
7.18075e-320
7.17779e-320
7.24004e-320
7.33292e-320
7.36948e-320
7.30427e-320
7.1936e-320
7.10763e-320
7.06514e-320
7.04735e-320
7.03648e-320
7.03352e-320
7.07798e-320
7.2351e-320
7.48114e-320
7.59675e-320
7.44853e-320
7.22324e-320
7.11059e-320
3.56953e-319
3.40451e-319
3.2471e-319
3.097e-319
2.95392e-319
2.81736e-319
2.68722e-319
2.56301e-319
2.44464e-319
2.33199e-319
2.22498e-319
2.12389e-319
2.02942e-319
1.94227e-319
1.86302e-319
1.79049e-319
1.72162e-319
1.65107e-319
1.5736e-319
1.48793e-319
1.3984e-319
1.31253e-319
1.23605e-319
1.16995e-319
1.11204e-319
1.06026e-319
1.01353e-319
9.70543e-320
9.29239e-320
8.86749e-320
7.22126e-320
7.17976e-320
7.1768e-320
7.24004e-320
7.33391e-320
7.37146e-320
7.30624e-320
7.1936e-320
7.10664e-320
7.06316e-320
7.04538e-320
7.03352e-320
7.03055e-320
7.077e-320
7.23806e-320
7.48114e-320
7.5928e-320
7.44656e-320
7.22225e-320
7.10862e-320
3.56943e-319
3.40441e-319
3.247e-319
3.097e-319
2.95392e-319
2.81756e-319
2.68742e-319
2.56331e-319
2.44503e-319
2.33239e-319
2.22547e-319
2.12468e-319
2.03021e-319
1.94306e-319
1.86352e-319
1.7904e-319
1.72073e-319
1.64939e-319
1.57192e-319
1.48694e-319
1.39821e-319
1.31293e-319
1.23645e-319
1.17005e-319
1.11204e-319
1.06017e-319
1.01343e-319
9.70543e-320
9.29239e-320
8.86848e-320
7.22028e-320
7.17877e-320
7.17581e-320
7.24004e-320
7.33589e-320
7.37344e-320
7.30822e-320
7.1936e-320
7.10466e-320
7.0602e-320
7.04142e-320
7.02957e-320
7.02759e-320
7.077e-320
7.24103e-320
7.48213e-320
7.58786e-320
7.44359e-320
7.22126e-320
7.10664e-320
3.56913e-319
3.40421e-319
3.247e-319
3.097e-319
2.95392e-319
2.81756e-319
2.68752e-319
2.56351e-319
2.44533e-319
2.33278e-319
2.22606e-319
2.12527e-319
2.03101e-319
1.94385e-319
1.86391e-319
1.7902e-319
1.71974e-319
1.64791e-319
1.57034e-319
1.48595e-319
1.39811e-319
1.31323e-319
1.23675e-319
1.17015e-319
1.11185e-319
1.05997e-319
1.01323e-319
9.70444e-320
9.29239e-320
8.86947e-320
7.22028e-320
7.17779e-320
7.17482e-320
7.24004e-320
7.33687e-320
7.37541e-320
7.3102e-320
7.1936e-320
7.10269e-320
7.05723e-320
7.03747e-320
7.02561e-320
7.02364e-320
7.077e-320
7.243e-320
7.48213e-320
7.58391e-320
7.44063e-320
7.22028e-320
7.10466e-320
3.56893e-319
3.40391e-319
3.2468e-319
3.0968e-319
2.95392e-319
2.81756e-319
2.68762e-319
2.56361e-319
2.44562e-319
2.33318e-319
2.22656e-319
2.12587e-319
2.0317e-319
1.94444e-319
1.86421e-319
1.7899e-319
1.71876e-319
1.64642e-319
1.56895e-319
1.48506e-319
1.39801e-319
1.31362e-319
1.23714e-319
1.17024e-319
1.11175e-319
1.05977e-319
1.01313e-319
9.70444e-320
9.29337e-320
8.86947e-320
7.22028e-320
7.17581e-320
7.17383e-320
7.24004e-320
7.33786e-320
7.37739e-320
7.31217e-320
7.19458e-320
7.10071e-320
7.05328e-320
7.03352e-320
7.02166e-320
7.02166e-320
7.077e-320
7.24498e-320
7.48213e-320
7.57897e-320
7.43668e-320
7.2183e-320
7.10269e-320
3.56854e-319
3.40372e-319
3.24651e-319
3.0967e-319
2.95382e-319
2.81756e-319
2.68772e-319
2.56381e-319
2.44582e-319
2.33357e-319
2.22705e-319
2.12646e-319
2.03239e-319
1.94504e-319
1.8645e-319
1.7897e-319
1.71777e-319
1.64504e-319
1.56747e-319
1.48417e-319
1.39781e-319
1.31382e-319
1.23744e-319
1.17034e-319
1.11165e-319
1.05957e-319
1.01303e-319
9.70444e-320
9.29436e-320
8.87045e-320
7.21929e-320
7.17482e-320
7.17186e-320
7.24004e-320
7.33984e-320
7.37936e-320
7.31415e-320
7.19557e-320
7.09874e-320
7.0513e-320
7.03055e-320
7.01771e-320
7.01771e-320
7.07601e-320
7.24794e-320
7.48213e-320
7.57501e-320
7.43272e-320
7.21632e-320
7.10071e-320
3.56804e-319
3.40332e-319
3.24621e-319
3.09641e-319
2.95372e-319
2.81756e-319
2.68772e-319
2.56381e-319
2.44602e-319
2.33377e-319
2.22745e-319
2.12695e-319
2.03288e-319
1.94543e-319
1.8647e-319
1.78931e-319
1.71678e-319
1.64356e-319
1.56609e-319
1.48328e-319
1.39761e-319
1.31412e-319
1.23773e-319
1.17034e-319
1.11145e-319
1.05947e-319
1.01283e-319
9.70444e-320
9.29436e-320
8.87144e-320
7.21929e-320
7.17383e-320
7.17186e-320
7.24004e-320
7.33984e-320
7.38134e-320
7.31612e-320
7.19557e-320
7.09775e-320
7.04735e-320
7.0266e-320
7.01376e-320
7.01376e-320
7.07502e-320
7.24992e-320
7.48114e-320
7.57106e-320
7.42877e-320
7.21336e-320
7.09874e-320
3.56755e-319
3.40283e-319
3.24581e-319
3.09621e-319
2.95352e-319
2.81736e-319
2.68762e-319
2.5639e-319
2.44612e-319
2.33406e-319
2.22774e-319
2.12745e-319
2.03338e-319
1.94593e-319
1.8648e-319
1.78891e-319
1.71589e-319
1.64227e-319
1.5648e-319
1.48249e-319
1.39742e-319
1.31441e-319
1.23803e-319
1.17054e-319
1.11135e-319
1.05928e-319
1.01274e-319
9.70345e-320
9.29634e-320
8.87144e-320
7.21929e-320
7.17285e-320
7.16988e-320
7.24004e-320
7.34182e-320
7.38332e-320
7.3181e-320
7.19557e-320
7.09577e-320
7.04439e-320
7.02364e-320
7.0098e-320
7.01178e-320
7.07502e-320
7.2519e-320
7.48015e-320
7.56513e-320
7.42482e-320
7.21138e-320
7.09577e-320
3.56696e-319
3.40233e-319
3.24542e-319
3.09591e-319
2.95323e-319
2.81716e-319
2.68752e-319
2.564e-319
2.44622e-319
2.33426e-319
2.22804e-319
2.12784e-319
2.03387e-319
1.94632e-319
1.8649e-319
1.78852e-319
1.715e-319
1.64109e-319
1.56362e-319
1.4818e-319
1.39722e-319
1.31461e-319
1.23833e-319
1.17054e-319
1.11125e-319
1.05908e-319
1.01264e-319
9.70345e-320
9.29634e-320
8.87243e-320
7.21929e-320
7.17186e-320
7.16889e-320
7.23905e-320
7.34182e-320
7.38529e-320
7.32008e-320
7.19557e-320
7.09379e-320
7.04142e-320
7.01968e-320
7.00585e-320
7.00783e-320
7.07502e-320
7.25387e-320
7.48015e-320
7.56118e-320
7.41889e-320
7.20743e-320
7.09281e-320
3.56636e-319
3.40184e-319
3.24502e-319
3.09562e-319
2.95293e-319
2.81706e-319
2.68752e-319
2.564e-319
2.44632e-319
2.33446e-319
2.22843e-319
2.12824e-319
2.03436e-319
1.94662e-319
1.865e-319
1.78812e-319
1.71421e-319
1.6399e-319
1.56253e-319
1.48101e-319
1.39712e-319
1.31481e-319
1.23852e-319
1.17064e-319
1.11105e-319
1.05888e-319
1.01244e-319
9.70345e-320
9.29733e-320
8.87342e-320
7.21929e-320
7.17087e-320
7.1679e-320
7.23905e-320
7.34379e-320
7.38727e-320
7.32205e-320
7.19656e-320
7.09281e-320
7.03747e-320
7.01573e-320
7.0019e-320
7.00486e-320
7.07403e-320
7.25486e-320
7.47818e-320
7.55525e-320
7.41494e-320
7.20348e-320
7.09083e-320
0
3.40125e-319
3.24463e-319
3.09522e-319
2.95273e-319
2.81677e-319
2.68732e-319
2.5639e-319
2.44642e-319
2.33466e-319
2.22873e-319
2.12863e-319
2.03476e-319
1.94692e-319
1.865e-319
1.78783e-319
1.71342e-319
1.63882e-319
1.56145e-319
1.48042e-319
1.39702e-319
1.3151e-319
1.23882e-319
1.17074e-319
1.11096e-319
1.05859e-319
1.01234e-319
9.70345e-320
9.29832e-320
8.87441e-320
7.21929e-320
7.16988e-320
7.16692e-320
7.23905e-320
7.34379e-320
7.38826e-320
7.32403e-320
7.19755e-320
7.09083e-320
7.03451e-320
7.01079e-320
6.99795e-320
7.0019e-320
7.07304e-320
7.25684e-320
7.47719e-320
7.55031e-320
7.40901e-320
7.19952e-320
7.08787e-320
0
3.40065e-319
3.24404e-319
3.09483e-319
2.95234e-319
2.81657e-319
2.68712e-319
2.56381e-319
2.44642e-319
2.33476e-319
2.22903e-319
2.12903e-319
2.03506e-319
1.94721e-319
1.865e-319
1.78753e-319
1.71263e-319
1.63783e-319
1.56056e-319
1.47983e-319
1.39682e-319
1.3153e-319
1.23912e-319
1.17074e-319
1.11086e-319
1.05839e-319
1.01224e-319
9.70345e-320
9.29832e-320
8.8754e-320
7.22028e-320
7.16988e-320
7.16593e-320
7.23905e-320
7.34478e-320
7.39023e-320
7.32502e-320
7.19755e-320
7.08885e-320
7.03154e-320
7.00684e-320
6.99301e-320
6.99795e-320
7.07304e-320
7.25782e-320
7.47521e-320
7.54438e-320
7.40308e-320
7.19557e-320
7.0849e-320
0
3.39996e-319
3.24354e-319
3.09433e-319
2.95204e-319
2.81637e-319
2.68703e-319
2.56381e-319
2.44642e-319
2.33495e-319
2.22922e-319
2.12932e-319
2.03535e-319
1.94741e-319
1.865e-319
1.78713e-319
1.71194e-319
1.63694e-319
1.55967e-319
1.47923e-319
1.39672e-319
1.3154e-319
1.23931e-319
1.17074e-319
1.11066e-319
1.05809e-319
1.01204e-319
9.70345e-320
9.30029e-320
8.87638e-320
7.22028e-320
7.1679e-320
7.16494e-320
7.23905e-320
7.34577e-320
7.39122e-320
7.32699e-320
7.19755e-320
7.08688e-320
7.02759e-320
7.00289e-320
6.98905e-320
6.99597e-320
7.07304e-320
7.25881e-320
7.47324e-320
7.53845e-320
7.39715e-320
7.19162e-320
7.08194e-320
0
3.39937e-319
3.24305e-319
3.09384e-319
2.95165e-319
2.81608e-319
2.68683e-319
2.56371e-319
2.44651e-319
2.33515e-319
2.22942e-319
2.12962e-319
2.03565e-319
1.94761e-319
1.865e-319
1.78684e-319
1.71125e-319
1.63605e-319
1.55888e-319
1.47864e-319
1.39653e-319
1.3156e-319
1.23941e-319
1.17084e-319
1.11046e-319
1.05789e-319
1.01185e-319
9.70345e-320
9.30029e-320
8.87737e-320
7.22126e-320
7.1679e-320
7.16395e-320
7.23806e-320
7.34577e-320
7.3932e-320
7.32798e-320
7.19755e-320
7.0849e-320
7.02364e-320
6.99795e-320
6.98411e-320
6.99301e-320
7.07304e-320
7.2598e-320
7.47027e-320
7.53154e-320
7.38925e-320
7.18767e-320
7.07897e-320
0
3.39868e-319
3.24245e-319
3.09344e-319
2.95125e-319
2.81578e-319
2.68663e-319
2.56361e-319
2.44651e-319
2.33515e-319
2.22962e-319
2.12982e-319
2.03595e-319
1.9478e-319
1.865e-319
1.78654e-319
1.71065e-319
1.63526e-319
1.55809e-319
1.47805e-319
1.39633e-319
1.3156e-319
1.23951e-319
1.17084e-319
1.11036e-319
1.0577e-319
1.01165e-319
9.70246e-320
9.30227e-320
8.87935e-320
7.22126e-320
7.1679e-320
7.16296e-320
7.23707e-320
7.34577e-320
7.39517e-320
7.32996e-320
7.19755e-320
7.08194e-320
7.01968e-320
6.99399e-320
6.98016e-320
6.99004e-320
7.07304e-320
7.26079e-320
7.46731e-320
7.52363e-320
7.38233e-320
7.18273e-320
7.077e-320
0
3.39799e-319
3.24186e-319
3.09285e-319
2.95086e-319
2.81548e-319
2.68643e-319
2.56351e-319
2.44642e-319
2.33525e-319
2.22982e-319
2.13002e-319
2.03614e-319
1.9479e-319
1.865e-319
1.78615e-319
1.71006e-319
1.63447e-319
1.55729e-319
1.47745e-319
1.39603e-319
1.3156e-319
1.23971e-319
1.17074e-319
1.11017e-319
1.0575e-319
1.01145e-319
9.70246e-320
9.30227e-320
8.88034e-320
7.22225e-320
7.1679e-320
7.16198e-320
7.23707e-320
7.34577e-320
7.39517e-320
7.33193e-320
7.19755e-320
7.07996e-320
7.01573e-320
6.99004e-320
6.97621e-320
6.98806e-320
7.07304e-320
7.26079e-320
7.46434e-320
7.51573e-320
7.37541e-320
7.17779e-320
7.07502e-320
0
3.3972e-319
3.24127e-319
3.09236e-319
2.95046e-319
2.81519e-319
2.68614e-319
2.56341e-319
2.44642e-319
2.33535e-319
2.22992e-319
2.13021e-319
2.03634e-319
1.948e-319
1.8649e-319
1.78595e-319
1.70947e-319
1.63368e-319
1.5565e-319
1.47686e-319
1.39583e-319
1.3156e-319
1.23971e-319
1.17074e-319
1.11007e-319
1.0572e-319
1.01135e-319
9.70147e-320
9.30424e-320
8.88132e-320
7.22324e-320
7.1679e-320
7.16198e-320
7.23707e-320
7.34676e-320
7.39715e-320
7.33193e-320
7.19755e-320
7.077e-320
7.01178e-320
6.9851e-320
6.97225e-320
6.98609e-320
7.07403e-320
7.26178e-320
7.46039e-320
7.50782e-320
7.36652e-320
7.17285e-320
7.07304e-320
0
3.3966e-319
3.24058e-319
3.09186e-319
2.94997e-319
2.81479e-319
2.68594e-319
2.56321e-319
2.44642e-319
2.33535e-319
2.23001e-319
2.13041e-319
2.03654e-319
1.9482e-319
1.8648e-319
1.78555e-319
1.70897e-319
1.63299e-319
1.55571e-319
1.47637e-319
1.39554e-319
1.3156e-319
1.23981e-319
1.17074e-319
1.10987e-319
1.057e-319
1.01125e-319
9.70147e-320
9.30424e-320
8.8833e-320
7.22324e-320
7.1679e-320
7.16099e-320
7.23609e-320
7.34676e-320
7.39715e-320
7.33193e-320
7.19557e-320
7.07403e-320
7.00783e-320
6.98016e-320
6.9683e-320
6.98312e-320
7.07403e-320
7.26178e-320
7.45545e-320
7.49893e-320
7.35763e-320
7.1679e-320
7.07107e-320
0
3.39581e-319
3.23988e-319
3.09127e-319
2.94957e-319
2.81449e-319
2.68574e-319
2.56311e-319
2.44642e-319
2.33535e-319
2.23021e-319
2.13061e-319
2.03674e-319
1.9482e-319
1.8648e-319
1.78536e-319
1.70848e-319
1.6322e-319
1.55492e-319
1.47587e-319
1.39524e-319
1.3156e-319
1.23991e-319
1.17074e-319
1.10967e-319
1.05671e-319
1.01106e-319
9.70147e-320
9.30622e-320
8.88528e-320
7.22522e-320
7.1679e-320
7.16e-320
7.2351e-320
7.34676e-320
7.39715e-320
7.33193e-320
7.19458e-320
7.07107e-320
7.00289e-320
6.97621e-320
6.96435e-320
6.98115e-320
7.07502e-320
7.26178e-320
7.45051e-320
7.48905e-320
7.34873e-320
7.16296e-320
7.06909e-320
0
3.39502e-319
3.23929e-319
3.09087e-319
2.94918e-319
2.8142e-319
2.68554e-319
2.56301e-319
2.44632e-319
2.33545e-319
2.23031e-319
2.13081e-319
2.03684e-319
1.9483e-319
1.8646e-319
1.78496e-319
1.70789e-319
1.6316e-319
1.55433e-319
1.47528e-319
1.39504e-319
1.3156e-319
1.23991e-319
1.17074e-319
1.10947e-319
1.05651e-319
1.01086e-319
9.70147e-320
9.30721e-320
8.88725e-320
7.22522e-320
7.1679e-320
7.16e-320
7.2351e-320
7.34577e-320
7.39715e-320
7.33193e-320
7.19261e-320
7.06711e-320
6.99795e-320
6.97028e-320
6.9604e-320
6.97917e-320
7.07502e-320
7.26178e-320
7.44458e-320
7.47917e-320
7.33984e-320
7.15802e-320
7.0681e-320
0
3.39433e-319
3.2387e-319
3.09028e-319
2.94878e-319
2.8138e-319
2.68535e-319
2.56282e-319
2.44622e-319
2.33555e-319
2.23041e-319
2.13091e-319
2.03693e-319
1.9484e-319
1.8646e-319
1.78466e-319
1.70729e-319
1.63081e-319
1.55364e-319
1.47469e-319
1.39475e-319
1.3155e-319
1.23991e-319
1.17074e-319
1.10938e-319
1.05631e-319
1.01066e-319
9.70147e-320
9.3082e-320
8.88824e-320
7.22719e-320
7.1679e-320
7.15901e-320
7.23411e-320
7.34577e-320
7.39616e-320
7.32996e-320