/*--------------------------------*- C++ -*----------------------------------*\
  =========                 |
  \\      /  F ield         | OpenFOAM: The Open Source CFD Toolbox
   \\    /   O peration     | Website:  https://openfoam.org
    \\  /    A nd           | Version:  9
     \\/     M anipulation  |
\*---------------------------------------------------------------------------*/
FoamFile
{
    format      ascii;
    class       volScalarField;
    location    "0.19";
    object      p;
}
// * * * * * * * * * * * * * * * * * * * * * * * * * * * * * * * * * * * * * //

dimensions      [1 -1 -2 0 0 0 0];

internalField   nonuniform List<scalar> 
5000
(
3.95073
3.94968
3.94844
3.94697
3.94513
3.94269
3.93936
3.93462
3.9277
3.91725
3.901
3.87489
3.83136
3.75573
3.6179
3.35419
2.80563
1.84924
1.90349
2.73366
3.4028
3.67725
3.80603
3.86763
3.89892
3.91623
3.92708
3.93468
3.93961
3.94141
3.93995
3.93667
3.93672
3.94255
3.94785
3.94689
3.94022
3.92378
3.90731
3.89548
3.88764
3.8826
3.87959
3.88195
3.87797
3.89978
3.62923
3.89845
3.88893
3.90013
3.94825
3.94596
3.94323
3.94013
3.93644
3.93185
3.9259
3.91797
3.90711
3.8919
3.87019
3.83872
3.79254
3.72431
3.62425
3.48763
3.32797
3.05916
3.13178
3.41131
3.55739
3.69286
3.79494
3.85779
3.89534
3.91757
3.93075
3.93856
3.9429
3.94492
3.94544
3.94491
3.94513
3.9468
3.94701
3.94418
3.93977
3.93027
3.91974
3.91067
3.90371
3.89866
3.89368
3.89635
3.86896
3.89854
3.74241
3.89757
3.88074
3.90988
3.94631
3.94392
3.94107
3.93797
3.93443
3.93027
3.92521
3.91888
3.91081
3.90037
3.88687
3.86961
3.84828
3.82354
3.79678
3.77347
3.79505
3.70432
3.76152
3.86338
3.80511
3.83022
3.86038
3.88733
3.90916
3.9247
3.93509
3.94176
3.94572
3.94772
3.94843
3.94807
3.94786
3.94861
3.94825
3.94545
3.94194
3.93413
3.9258
3.91843
3.91244
3.90803
3.90161
3.90713
3.87543
3.91876
3.79585
3.91829
3.88712
3.91821
3.9448
3.94327
3.94137
3.93943
3.93738
3.93519
3.93279
3.93015
3.92724
3.9241
3.9209
3.91816
3.91697
3.9195
3.92822
3.94213
4.00421
4.0055
4.02333
4.03754
3.9481
3.9408
3.93008
3.92905
3.93326
3.93845
3.94326
3.94715
3.94978
3.9511
3.95131
3.95056
3.94998
3.95046
3.95037
3.94795
3.9449
3.93785
3.93077
3.92459
3.91949
3.91618
3.90931
3.91789
3.88845
3.93506
3.83912
3.93451
3.89928
3.92777
3.94343
3.94312
3.94257
3.94213
3.94183
3.9417
3.94181
3.94224
3.94312
3.94465
3.94714
3.95113
3.95755
3.96809
3.98555
4.00699
4.06245
4.08834
4.0936
4.07581
4.00702
3.99312
3.97067
3.96054
3.95591
3.95403
3.95398
3.95468
3.95534
3.95553
3.95512
3.95412
3.95328
3.95321
3.9528
3.95057
3.94809
3.94234
3.93673
3.9317
3.92742
3.92534
3.91852
3.92911
3.90283
3.94568
3.87827
3.94491
3.91258
3.93797
3.94199
3.94277
3.9434
3.94423
3.94529
3.94667
3.94844
3.95071
3.95361
3.95732
3.96207
3.9683
3.97683
3.98913
4.00818
4.03098
4.07264
4.09622
4.09916
4.08027
4.03369
4.01498
3.99048
3.97918
3.9716
3.96661
3.96382
3.96223
3.96118
3.96027
3.95928
3.95809
3.95703
3.95641
3.95554
3.95346
3.95157
3.94723
3.94307
3.93917
3.93567
3.93475
3.92821
3.93974
3.91732
3.95445
3.9082
3.95363
3.92603
3.94767
3.94045
3.94212
3.9437
3.9455
3.94754
3.94992
3.95273
3.95609
3.96017
3.96512
3.97121
3.97884
3.98867
4.00175
4.02026
4.04158
4.07168
4.08883
4.09124
4.07765
4.04718
4.02671
4.00292
3.99151
3.98229
3.97589
3.97167
3.9687
3.96649
3.96477
3.96325
3.96182
3.96058
3.95967
3.95865
3.95679
3.95537
3.9521
3.94905
3.94616
3.94339
3.94349
3.93772
3.94902
3.93126
3.96269
3.92978
3.96191
3.93898
3.95656
3.93881
3.9412
3.94353
3.94609
3.94888
3.95197
3.95549
3.9596
3.96446
3.97027
3.97721
3.98559
3.9958
4.00831
4.02451
4.04239
4.06392
4.0763
4.07843
4.06935
4.04997
4.03207
4.01131
3.99984
3.99003
3.98292
3.97782
3.97398
3.97107
3.96881
3.96688
3.96524
3.9639
3.96291
3.96199
3.96043
3.95935
3.95683
3.95461
3.95257
3.95049
3.95143
3.94672
3.95728
3.94403
3.97018
3.94618
3.96958
3.95085
3.96479
3.93708
3.94
3.94289
3.94598
3.94925
3.95277
3.95666
3.96105
3.96614
3.97212
3.97915
3.98737
3.99691
4.008
4.02126
4.03541
4.05088
4.0602
4.06246
4.0568
4.04473
4.0305
4.01519
4.0047
3.9952
3.98803
3.98253
3.97822
3.97492
3.97235
3.97019
3.96846
3.96714
3.96618
3.96542
3.96416
3.96337
3.96148
3.95993
3.95864
3.95719
3.95879
3.95525
3.96477
3.95548
3.97689
3.95938
3.97663
3.96151
3.97253
3.93526
3.9385
3.94173
3.94511
3.94863
3.95233
3.95629
3.96064
3.96555
3.97117
3.97767
3.98515
3.99364
4.00316
4.01395
4.02515
4.03656
4.04398
4.04656
4.04338
4.03602
4.0255
4.01449
4.00594
3.99771
3.99116
3.98579
3.98145
3.97806
3.9754
3.97321
3.97151
3.97031
3.96945
3.96885
3.96786
3.96737
3.96605
3.96511
3.96448
3.96362
3.96574
3.96333
3.9717
3.96578
3.98305
3.97032
3.9832
3.97111
3.97987
3.93333
3.93666
3.93999
3.94346
3.94706
3.95081
3.95478
3.95905
3.96373
3.96893
3.97481
3.98147
3.98891
3.99707
4.00596
4.01505
4.02385
4.02999
4.03274
4.03117
4.02676
4.01926
4.01139
4.00475
3.99809
3.99252
3.98772
3.98372
3.98052
3.97798
3.97592
3.97438
3.97337
3.97268
3.97224
3.97152
3.97131
3.9705
3.97011
3.97007
3.96976
3.97227
3.9708
3.97848
3.97492
3.98887
3.97959
3.98937
3.97981
3.98683
3.93129
3.93446
3.93765
3.94102
3.94458
3.94833
3.95229
3.95651
3.96107
3.96602
3.97147
3.97747
3.98402
3.99106
3.99852
4.00608
4.01315
4.01838
4.02106
4.02047
4.01791
4.01278
4.00727
4.00228
3.99712
3.99264
3.98863
3.98521
3.98239
3.98014
3.97832
3.97703
3.97627
3.9758
3.97557
3.97511
3.97516
3.9748
3.97488
3.97538
3.97556
3.9784
3.97779
3.98497
3.98306
3.9945
3.9876
3.99519
3.98773
3.99346
3.92916
3.93201
3.93489
3.93799
3.94134
3.94496
3.94886
3.95306
3.95754
3.96233
3.96748
3.973
3.9789
3.98511
3.99154
3.99797
4.00391
4.00846
4.01101
4.01106
4.00971
4.00644
4.00275
3.99921
3.99543
3.99202
3.98887
3.98613
3.98382
3.98195
3.98046
3.97948
3.97901
3.97878
3.97878
3.97858
3.97888
3.97892
3.97942
3.98039
3.98105
3.9841
3.98435
3.99108
3.99043
3.99999
3.99473
4.00074
3.99503
3.9998
3.92701
3.92951
3.93208
3.93492
3.93802
3.9414
3.94511
3.94915
3.95349
3.9581
3.96299
3.96816
3.97357
3.97916
3.98492
3.99056
3.99575
3.99983
4.0023
4.00284
4.00237
4.0005
3.99825
3.99595
3.9934
3.99101
3.98872
3.98668
3.98492
3.98348
3.98236
3.98171
3.98157
3.98162
3.98185
3.98189
3.98244
3.98285
3.98374
3.98514
3.98625
3.98944
3.99052
3.99681
3.99717
4.00529
4.00127
4.00608
4.00181
4.00593
3.92496
3.92727
3.92966
3.9323
3.9352
3.93838
3.94184
3.94563
3.94971
3.95408
3.95868
3.9635
3.96852
3.97366
3.97885
3.98396
3.98865
3.99243
3.99488
3.99586
3.99606
3.99525
3.99409
3.99281
3.99131
3.98983
3.98836
3.987
3.98578
3.98476
3.98403
3.98375
3.98393
3.98428
3.98475
3.98504
3.98583
3.98659
3.98785
3.98964
3.9912
3.9946
3.99619
4.00223
4.00338
4.01041
4.00738
4.01129
4.00822
4.01189
3.92297
3.92528
3.92767
3.93025
3.93305
3.9361
3.9394
3.94295
3.94677
3.95083
3.9551
3.95956
3.96419
3.96892
3.97369
3.97838
3.98269
3.98625
3.98874
3.99008
3.99081
3.99078
3.99044
3.98998
3.98933
3.98864
3.98789
3.98714
3.98643
3.98584
3.98549
3.98557
3.98609
3.98674
3.98747
3.98801
3.98903
3.99013
3.99175
3.9939
3.99587
3.99951
4.00152
4.00737
4.00914
4.01539
4.01315
4.0164
4.01434
4.01772
3.92103
3.92342
3.92592
3.92858
3.93139
3.93439
3.93758
3.94097
3.94457
3.94836
3.95233
3.95646
3.96072
3.96509
3.96948
3.9738
3.97781
3.9812
3.98371
3.98536
3.98649
3.98704
3.98731
3.98749
3.98753
3.98749
3.98735
3.98715
3.9869
3.98669
3.98672
3.98717
3.98804
3.989
3.98999
3.99078
3.99204
3.99347
3.99544
3.99794
4.00029
4.00416
4.00658
4.01229
4.01448
4.02026
4.01868
4.02145
4.02022
4.02345
3.91913
3.92162
3.92421
3.92696
3.92984
3.93285
3.936
3.93929
3.94274
3.94634
3.95009
3.95396
3.95793
3.96197
3.96604
3.97004
3.97378
3.97701
3.97957
3.98144
3.98286
3.98384
3.9846
3.98529
3.98587
3.98637
3.98675
3.98702
3.98718
3.98734
3.98773
3.98854
3.98977
3.99105
3.99232
3.99336
3.99486
3.99661
3.99893
4.00178
4.00449
4.00857
4.01139
4.01703
4.01997
4.02457
4.02394
4.02641
4.02593
4.0291
3.9172
3.91976
3.92242
3.92521
3.92814
3.93118
3.93433
3.93757
3.94093
3.9444
3.94799
3.95167
3.95543
3.95924
3.96305
3.9668
3.97033
3.97343
3.97601
3.97803
3.97968
3.981
3.98214
3.98325
3.98428
3.98522
3.98603
3.98671
3.98725
3.98776
3.98851
3.9897
3.99128
3.99289
3.99444
3.99574
3.9975
3.99957
4.00222
4.00541
4.0085
4.01277
4.01599
4.02155
4.02496
4.02898
4.02912
4.03129
4.03149
4.03469
3.91523
3.91781
3.9205
3.92331
3.92622
3.92925
3.93238
3.9356
3.93891
3.94229
3.94577
3.94932
3.95293
3.95657
3.96021
3.96378
3.96716
3.97017
3.97276
3.9749
3.97673
3.97833
3.9798
3.98126
3.98267
3.98398
3.98517
3.98621
3.9871
3.98796
3.98908
3.99063
3.99258
3.99452
3.99635
3.99793
3.99995
4.00234
4.00533
4.00886
4.01232
4.01678
4.0204
4.02591
4.02969
4.03351
4.03407
4.03611
4.03693
4.04023
3.91324
3.91578
3.91846
3.92124
3.92411
3.92708
3.93015
3.93333
3.93658
3.93991
3.94331
3.94677
3.95027
3.95381
3.95734
3.9608
3.96408
3.96703
3.96963
3.97187
3.97387
3.97571
3.97746
3.97923
3.98095
3.9826
3.98413
3.98551
3.98675
3.98794
3.98942
3.99136
3.99366
3.99594
3.99807
3.99994
4.00223
4.00495
4.00828
4.01214
4.01596
4.02065
4.02465
4.03018
4.0343
4.03798
4.03888
4.04089
4.04226
4.04573
3.91125
3.91371
3.91632
3.91903
3.92184
3.92474
3.92773
3.93083
3.93401
3.93728
3.94061
3.944
3.94743
3.95089
3.95435
3.95774
3.96095
3.96388
3.96651
3.96884
3.97099
3.97304
3.97505
3.97708
3.9791
3.98105
3.98291
3.98463
3.9862
3.98773
3.98956
3.99187
3.99454
3.99717
3.9996
4.00177
4.00434
4.00739
4.01106
4.01525
4.01944
4.02438
4.02875
4.03437
4.0388
4.04239
4.04363
4.04565
4.0475
4.05121
3.90924
3.91162
3.91412
3.91674
3.91947
3.92229
3.9252
3.92821
3.9313
3.93448
3.93774
3.94106
3.94444
3.94784
3.95124
3.95458
3.95775
3.96067
3.96334
3.96577
3.96806
3.97031
3.97254
3.97482
3.97711
3.97936
3.98152
3.98356
3.98547
3.98732
3.98951
3.99219
3.99523
3.99821
4.00096
4.00343
4.00629
4.00968
4.01369
4.01823
4.02278
4.02799
4.03273
4.03847
4.04321
4.04679
4.04832
4.05039
4.05268
4.05669
3.90724
3.90952
3.91192
3.91444
3.91707
3.91979
3.92262
3.92553
3.92853
3.93162
3.9348
3.93805
3.94136
3.94471
3.94806
3.95134
3.95448
3.95741
3.96012
3.96265
3.96509
3.96751
3.96995
3.97246
3.97501
3.97753
3.98
3.98235
3.98457
3.98674
3.98928
3.99234
3.99574
3.99908
4.00215
4.00494
4.00809
4.01182
4.01618
4.02107
4.02598
4.03148
4.0366
4.04252
4.04756
4.05118
4.05295
4.0551
4.05781
4.06218
3.90523
3.90743
3.90974
3.91216
3.91468
3.9173
3.92002
3.92284
3.92576
3.92876
3.93186
3.93503
3.93828
3.94156
3.94485
3.94809
3.95121
3.95415
3.95691
3.95953
3.96208
3.96466
3.9673
3.97002
3.97281
3.9756
3.97835
3.981
3.98352
3.986
3.98889
3.99232
3.99609
3.99979
4.0032
4.0063
4.00976
4.01382
4.01854
4.02378
4.02907
4.03486
4.04037
4.04652
4.05186
4.05555
4.05754
4.05978
4.06292
4.06769
3.90323
3.90534
3.90757
3.9099
3.91232
3.91484
3.91747
3.92019
3.92302
3.92595
3.92896
3.93206
3.93523
3.93845
3.94168
3.94488
3.94799
3.95094
3.95374
3.95642
3.95909
3.96181
3.96462
3.96754
3.97055
3.9736
3.97661
3.97954
3.98235
3.98514
3.98837
3.99217
3.99631
4.00037
4.00411
4.00753
4.01129
4.01569
4.02077
4.02637
4.03205
4.03816
4.04406
4.05046
4.05611
4.05991
4.06209
4.06444
4.06799
4.07322
3.90123
3.90326
3.90541
3.90766
3.91
3.91244
3.91498
3.91762
3.92036
3.92321
3.92614
3.92917
3.93227
3.93543
3.93861
3.94178
3.94486
3.94782
3.95063
3.95337
3.95612
3.95897
3.96194
3.96505
3.96827
3.97155
3.97481
3.97801
3.9811
3.98418
3.98774
3.99191
3.9964
4.00082
4.00489
4.00864
4.0127
4.01744
4.02288
4.02886
4.03493
4.04138
4.04767
4.05436
4.06033
4.06428
4.06661
4.06907
4.07303
4.07878
3.89923
3.9012
3.90328
3.90545
3.90772
3.91009
3.91256
3.91513
3.91779
3.92056
3.92342
3.92637
3.92941
3.93252
3.93566
3.93879
3.94185
3.94479
3.94762
3.95039
3.95322
3.95618
3.95931
3.96259
3.966
3.96949
3.97298
3.97642
3.97978
3.98314
3.98702
3.99154
3.99639
4.00115
4.00556
4.00961
4.01398
4.01906
4.02488
4.03124
4.03771
4.04451
4.05121
4.05821
4.06451
4.06864
4.0711
4.07365
4.07806
4.08438
3.89724
3.89916
3.90117
3.90329
3.9055
3.9078
3.9102
3.9127
3.91529
3.91799
3.92079
3.92368
3.92666
3.92972
3.93282
3.93591
3.93894
3.94187
3.9447
3.94751
3.95042
3.95349
3.95675
3.96019
3.96377
3.96744
3.97115
3.97482
3.97842
3.98205
3.98624
3.9911
3.99628
4.00138
4.00611
4.01047
4.01515
4.02057
4.02677
4.03352
4.0404
4.04757
4.05468
4.062
4.06866
4.07299
4.07557
4.07823
4.0831
4.09004
3.89526
3.89712
3.89909
3.90115
3.9033
3.90555
3.90788
3.91032
3.91286
3.9155
3.91824
3.92108
3.92402
3.92703
3.93008
3.93313
3.93614
3.93905
3.9419
3.94476
3.94774
3.95092
3.95429
3.95786
3.96159
3.96543
3.96932
3.9732
3.97704
3.98091
3.9854
3.99058
3.99608
4.0015
4.00655
4.01122
4.0162
4.02197
4.02855
4.03571
4.04301
4.05055
4.05808
4.06574
4.07276
4.07733
4.08003
4.08281
4.08816
4.09578
3.89328
3.8951
3.89702
3.89903
3.90114
3.90333
3.90561
3.908
3.91049
3.91308
3.91578
3.91857
3.92146
3.92443
3.92744
3.93046
3.93344
3.93636
3.93924
3.94216
3.94521
3.94847
3.95194
3.95562
3.95947
3.96345
3.96751
3.97159
3.97564
3.97975
3.98451
3.99
3.9958
4.00153
4.00689
4.01187
4.01714
4.02326
4.03023
4.03781
4.04553
4.05347
4.06141
4.06942
4.07679
4.08164
4.08451
4.08745
4.0933
4.10161
3.8913
3.89308
3.89496
3.89694
3.899
3.90115
3.90339
3.90574
3.90819
3.91074
3.91339
3.91615
3.91899
3.92191
3.92489
3.92788
3.93086
3.93379
3.93671
3.93969
3.94281
3.94614
3.94968
3.95344
3.9574
3.96151
3.96572
3.96998
3.97423
3.97856
3.98358
3.98935
3.99543
4.00146
4.00712
4.01241
4.01797
4.02444
4.03182
4.03981
4.04797
4.05631
4.06467
4.07303
4.08075
4.08592
4.08902
4.09219
4.09854
4.10757
3.88932
3.89108
3.89293
3.89486
3.89689
3.89901
3.90122
3.90353
3.90595
3.90846
3.91108
3.91379
3.91659
3.91948
3.92242
3.9254
3.92837
3.93133
3.93429
3.93731
3.94049
3.94388
3.94748
3.95131
3.95536
3.9596
3.96395
3.96838
3.97282
3.97735
3.9826
3.98864
3.99499
4.00129
4.00726
4.01285
4.01871
4.02552
4.03332
4.04172
4.05033
4.05909
4.06788
4.07658
4.08465
4.09018
4.0936
4.09705
4.10392
4.11367
3.88735
3.88908
3.8909
3.89281
3.89481
3.89691
3.89909
3.90137
3.90375
3.90623
3.9088
3.91148
3.91425
3.91711
3.92003
3.92299
3.92596
3.92893
3.93193
3.935
3.93823
3.94166
3.94532
3.94922
3.95336
3.95771
3.9622
3.96678
3.97139
3.97612
3.9816
3.98788
3.99447
4.00102
4.00729
4.01319
4.01936
4.02649
4.03473
4.04355
4.05262
4.06181
4.07103
4.08009
4.08849
4.09443
4.09825
4.10206
4.10947
4.11992
3.88537
3.88709
3.88889
3.89078
3.89275
3.89482
3.89697
3.89922
3.90157
3.90402
3.90656
3.90921
3.91196
3.9148
3.9177
3.92064
3.92361
3.92659
3.92961
3.93273
3.936
3.93948
3.94319
3.94716
3.9514
3.95585
3.96047
3.96519
3.96996
3.97486
3.98055
3.98707
3.99387
4.00067
4.00722
4.01344
4.01991
4.02739
4.03599
4.04529
4.05483
4.06448
4.07415
4.08359
4.09232
4.09872
4.10301
4.10724
4.11518
4.12635
3.8834
3.8851
3.88688
3.88875
3.8907
3.89274
3.89486
3.89709
3.89941
3.90183
3.90436
3.90699
3.90972
3.91254
3.91542
3.91834
3.92129
3.92428
3.92733
3.93049
3.9338
3.93732
3.94109
3.94513
3.94945
3.95401
3.95875
3.9636
3.96852
3.97358
3.97947
3.9862
3.99321
4.00022
4.00705
4.01359
4.02037
4.02817
4.03716
4.04694
4.05698
4.06712
4.07726
4.0871
4.0962
4.10308
4.1079
4.11259
4.12108
4.13295
3.88143
3.88311
3.88487
3.88672
3.88865
3.89066
3.89277
3.89498
3.89729
3.89969
3.9022
3.90482
3.90752
3.91031
3.91317
3.91607
3.91902
3.92201
3.92508
3.92827
3.93162
3.93518
3.939
3.94312
3.94753
3.95219
3.95703
3.96201
3.96707
3.97228
3.97835
3.98529
3.99248
3.9997
4.00679
4.01364
4.02071
4.02882
4.03822
4.0485
4.05907
4.06973
4.08039
4.09069
4.10017
4.10757
4.11293
4.11813
4.12717
4.13972
3.87946
3.88112
3.88287
3.8847
3.88662
3.88862
3.89072
3.89291
3.8952
3.89759
3.90008
3.90267
3.90536
3.90812
3.91095
3.91384
3.91678
3.91978
3.92286
3.92608
3.92946
3.93306
3.93693
3.94111
3.94561
3.95036
3.95531
3.9604
3.96559
3.97095
3.97719
3.98431
3.99169
3.9991
4.00644
4.01359
4.02094
4.02936
4.03917
4.04998
4.06111
4.07233
4.08356
4.09437
4.10429
4.11221
4.11813
4.12385
4.13346
4.14668
3.8775
3.87915
3.88088
3.8827
3.88461
3.8866
3.88868
3.89086
3.89314
3.89551
3.89798
3.90054
3.9032
3.90595
3.90877
3.91165
3.91458
3.91758
3.92068
3.92391
3.92731
3.93094
3.93486
3.93911
3.94368
3.94853
3.95358
3.95877
3.96408
3.96958
3.97599
3.98329
3.99084
3.99843
4.006
4.01344
4.02105
4.02975
4.04
4.05136
4.06309
4.07493
4.08679
4.09818
4.10858
4.11703
4.1235
4.12976
4.13995
4.15382
3.87553
3.87717
3.8789
3.88071
3.8826
3.88458
3.88665
3.88881
3.89107
3.89342
3.89587
3.89842
3.90106
3.90379
3.9066
3.90948
3.91241
3.91541
3.91851
3.92175
3.92517
3.92883
3.93279
3.93709
3.94174
3.94668
3.95182
3.95712
3.96254
3.96817
3.97473
3.9822
3.98993
3.9977
4.00549
4.01318
4.02104
4.03002
4.04071
4.05265
4.06502
4.07752
4.09007
4.10212
4.11305
4.12203
4.12904
4.13587
4.14664
4.16115
3.87357
3.8752
3.87691
3.87871
3.88059
3.88255
3.88461
3.88675
3.88899
3.89132
3.89376
3.89629
3.89893
3.90165
3.90446
3.90733
3.91026
3.91325
3.91635
3.91959
3.92302
3.92671
3.93071
3.93508
3.9398
3.94481
3.95004
3.95543
3.96096
3.96671
3.97342
3.98106
3.98896
3.9969
4.0049
4.01283
4.02089
4.03014
4.04129
4.05385
4.0669
4.08011
4.09342
4.10619
4.11768
4.12718
4.13474
4.14217
4.15354
4.16864
3.8716
3.87322
3.87492
3.8767
3.87857
3.88051
3.88255
3.88468
3.88691
3.88923
3.89166
3.89419
3.89682
3.89954
3.90233
3.90519
3.90811
3.9111
3.9142
3.91744
3.92089
3.9246
3.92864
3.93306
3.93784
3.94292
3.94823
3.95371
3.95934
3.96521
3.97205
3.97986
3.98793
3.99606
4.00425
4.01238
4.02063
4.03014
4.04175
4.05496
4.06873
4.0827
4.09681
4.11035
4.12245
4.13246
4.14058
4.14865
4.16062
4.17629
3.86963
3.87124
3.87292
3.87469
3.87655
3.87848
3.88051
3.88263
3.88485
3.88717
3.88959
3.89211
3.89472
3.89743
3.90021
3.90306
3.90597
3.90896
3.91205
3.9153
3.91877
3.92251
3.92659
3.93105
3.93588
3.94102
3.94639
3.95195
3.95768
3.96365
3.97063
3.9786
3.98685
3.99515
4.00353
4.01184
4.02025
4.03001
4.04211
4.05598
4.07049
4.08526
4.10022
4.11458
4.1273
4.13782
4.14653
4.15529
4.16787
4.18406
3.86766
3.86926
3.87094
3.8727
3.87454
3.87647
3.87849
3.8806
3.88281
3.88512
3.88753
3.89004
3.89264
3.89532
3.89809
3.90093
3.90383
3.90682
3.90992
3.91318
3.91667
3.92045
3.92456
3.92905
3.93392
3.9391
3.94453
3.95015
3.95597
3.96204
3.96913
3.97727
3.98571
3.9942
4.00275
4.01122
4.01976
4.02977
4.04236
4.05691
4.07219
4.08778
4.10363
4.11884
4.13218
4.14321
4.15253
4.16203
4.17523
4.19193
3.8657
3.86729
3.86896
3.87071
3.87255
3.87447
3.87648
3.87859
3.88078
3.88307
3.88547
3.88795
3.89054
3.89321
3.89596
3.89879
3.90169
3.90468
3.90779
3.91107
3.91459
3.9184
3.92254
3.92706
3.93194
3.93715
3.94262
3.94831
3.9542
3.96036
3.96757
3.97586
3.9845
3.99319
4.00192
4.01051
4.01918
4.02944
4.04251
4.05775
4.07381
4.09025
4.10701
4.12307
4.13703
4.14857
4.15853
4.16881
4.18265
4.19983
3.86373
3.86532
3.86698
3.86873
3.87055
3.87246
3.87446
3.87655
3.87873
3.881
3.88338
3.88585
3.88842
3.89108
3.89382
3.89665
3.89955
3.90255
3.90567
3.90898
3.91252
3.91635
3.92052
3.92505
3.92995
3.93517
3.94067
3.9464
3.95237
3.95861
3.96592
3.97438
3.98323
3.99212
4.00101
4.00972
4.01852
4.02902
4.04258
4.0585
4.07534
4.09263
4.11031
4.12722
4.1418
4.15382
4.16445
4.17555
4.19004
4.20772
3.86177
3.86334
3.86499
3.86672
3.86854
3.87043
3.87241
3.87448
3.87664
3.8789
3.88126
3.88372
3.88628
3.88893
3.89167
3.89449
3.8974
3.90041
3.90355
3.90687
3.91043
3.91429
3.91847
3.92301
3.92791
3.93314
3.93865
3.94443
3.95046
3.95678
3.96419
3.97281
3.98188
3.99099
4.00004
4.00886
4.01776
4.02852
4.04256
4.05915
4.07676
4.09491
4.1135
4.13125
4.14642
4.15892
4.17022
4.18215
4.19732
4.21555
3.8598
3.86135
3.86299
3.86471
3.8665
3.86838
3.87034
3.87239
3.87454
3.87678
3.87913
3.88158
3.88413
3.88677
3.8895
3.89232
3.89523
3.89824
3.9014
3.90473
3.90832
3.91219
3.91639
3.92093
3.92582
3.93105
3.93657
3.94238
3.94847
3.95486
3.96236
3.97115
3.98045
3.98979
3.999
4.0079
4.01693
4.02794
4.04245
4.05969
4.07805
4.09705
4.11654
4.1351
4.15082
4.16378
4.17575
4.18854
4.20442
4.22324
3.85783
3.85937
3.86098
3.86268
3.86446
3.86632
3.86826
3.8703
3.87243
3.87467
3.877
3.87943
3.88197
3.8846
3.88732
3.89013
3.89304
3.89605
3.89921
3.90256
3.90615
3.91004
3.91424
3.91879
3.92367
3.92888
3.93441
3.94025
3.94638
3.95284
3.96043
3.96937
3.97892
3.9885
3.99785
4.00685
4.016
4.02728
4.04225
4.0601
4.07919
4.09901
4.11937
4.13871
4.15495
4.16835
4.18097
4.19461
4.21125
4.23076
3.85586
3.85738
3.85898
3.86066
3.86242
3.86426
3.86619
3.86822
3.87033
3.87255
3.87486
3.87728
3.8798
3.88241
3.88511
3.88791
3.89081
3.89381
3.89697
3.90032
3.90393
3.90782
3.91203
3.91657
3.92144
3.92664
3.93217
3.93802
3.9442
3.95071
3.95838
3.96748
3.97727
3.9871
3.9966
4.00568
4.01497
4.02652
4.04193
4.06036
4.08014
4.10075
4.12194
4.14202
4.15874
4.17255
4.1858
4.20028
4.21774
4.23805
3.85389
3.8554
3.85698
3.85865
3.86039
3.86222
3.86413
3.86613
3.86823
3.87043
3.87272
3.87511
3.8776
3.88019
3.88288
3.88566
3.88854
3.89153
3.89468
3.89804
3.90164
3.90553
3.90974
3.91428
3.91913
3.92431
3.92983
3.93569
3.9419
3.94847
3.9562
3.96545
3.9755
3.98557
3.99521
4.00437
4.01382
4.02565
4.04147
4.06045
4.08088
4.10223
4.1242
4.14495
4.16212
4.17631
4.19017
4.20548
4.22383
4.24506
3.85192
3.85341
3.85498
3.85663
3.85836
3.86017
3.86206
3.86404
3.86611
3.86828
3.87054
3.87291
3.87537
3.87794
3.8806
3.88336
3.88622
3.88921
3.89235
3.89569
3.89929
3.90318
3.90738
3.9119
3.91674
3.92189
3.92739
3.93325
3.93949
3.9461
3.95389
3.96328
3.97357
3.98389
3.99366
4.0029
4.01251
4.02463
4.04085
4.06032
4.08136
4.1034
4.12609
4.14745
4.16501
4.17957
4.19401
4.21014
4.22945
4.25176
3.84995
3.85142
3.85298
3.8546
3.85631
3.85809
3.85996
3.86191
3.86396
3.8661
3.86833
3.87067
3.87311
3.87565
3.87828
3.88102
3.88386
3.88683
3.88995
3.89328
3.89687
3.90075
3.90495
3.90945
3.91426
3.91938
3.92484
3.9307
3.93696
3.94359
3.95144
3.96095
3.97146
3.98202
3.99192
4.00124
4.01102
4.02344
4.04003
4.05995
4.08153
4.10421
4.12755
4.14944
4.16735
4.18227
4.19726
4.21421
4.23456
4.25809
3.84797
3.84943
3.85096
3.85256
3.85424
3.85599
3.85783
3.85976
3.86177
3.86388
3.86609
3.86839
3.8708
3.87331
3.87592
3.87864
3.88146
3.8844
3.88751
3.89082
3.89439
3.89826
3.90243
3.90691
3.91169
3.91676
3.92219
3.92803
3.93429
3.94095
3.94882
3.95844
3.96916
3.97993
3.98995
3.99935
4.00932
4.02203
4.03897
4.05929
4.08136
4.10461
4.12852
4.15086
4.1691
4.18435
4.19986
4.21763
4.23912
4.26402
3.846
3.84742
3.84892
3.8505
3.85214
3.85387
3.85567
3.85757
3.85955
3.86163
3.8638
3.86608
3.86846
3.87094
3.87352
3.87621
3.87901
3.88193
3.88501
3.8883
3.89185
3.8957
3.89985
3.9043
3.90903
3.91405
3.91943
3.92523
3.93148
3.93815
3.94605
3.95574
3.96664
3.97761
3.98772
3.99719
4.00736
4.02036
4.03762
4.0583
4.08079
4.10454
4.12893
4.15165
4.17018
4.18577
4.20178
4.22038
4.2431
4.26951
3.84402
3.84541
3.84688
3.84842
3.85003
3.85172
3.8535
3.85535
3.8573
3.85934
3.86148
3.86373
3.86607
3.86852
3.87108
3.87374
3.87651
3.87941
3.88247
3.88573
3.88926
3.89308
3.8972
3.90161
3.90629
3.91124
3.91655
3.92231
3.92854
3.9352
3.94309
3.95285
3.96389
3.975
3.9852
3.99474
4.0051
4.01839
4.03594
4.05692
4.07977
4.10394
4.12874
4.15177
4.17057
4.18648
4.20296
4.22241
4.24647
4.27451
3.84204
3.8434
3.84483
3.84634
3.84791
3.84957
3.8513
3.85312
3.85503
3.85703
3.85914
3.86134
3.86365
3.86606
3.86859
3.87122
3.87396
3.87684
3.87987
3.88311
3.88661
3.8904
3.8945
3.89885
3.90346
3.90833
3.91356
3.91925
3.92544
3.93208
3.93995
3.94974
3.96087
3.9721
3.98235
3.99196
4.00249
4.01607
4.03389
4.05512
4.07826
4.10278
4.1279
4.15117
4.17022
4.18643
4.20337
4.22371
4.24919
4.27897
3.84006
3.84138
3.84278
3.84425
3.84578
3.8474
3.84909
3.85087
3.85274
3.8547
3.85676
3.85892
3.86119
3.86357
3.86605
3.86866
3.87137
3.87422
3.87723
3.88045
3.88392
3.88768
3.89173
3.89603
3.90054
3.90531
3.91043
3.91605
3.92218
3.92878
3.93661
3.94639
3.95757
3.96887
3.97916
3.98882
3.99952
4.01336
4.03141
4.05283
4.07621
4.10099
4.12635
4.14981
4.16911
4.18561
4.20298
4.22425
4.25125
4.28283
3.83808
3.83936
3.84072
3.84215
3.84364
3.84521
3.84686
3.84859
3.85042
3.85233
3.85434
3.85646
3.85869
3.86102
3.86348
3.86605
3.86874
3.87156
3.87455
3.87775
3.88119
3.88491
3.88891
3.89313
3.89754
3.90218
3.90718
3.9127
3.91876
3.92529
3.93306
3.94281
3.95396
3.96529
3.9756
3.98529
3.99613
4.01021
4.02846
4.05003
4.07356
4.09853
4.12406
4.14768
4.16718
4.18396
4.20178
4.22403
4.25261
4.28601
3.83609
3.83734
3.83865
3.84003
3.84149
3.84301
3.84461
3.84629
3.84806
3.84993
3.85189
3.85396
3.85614
3.85843
3.86085
3.86338
3.86605
3.86886
3.87182
3.87499
3.87841
3.88209
3.88603
3.89015
3.89444
3.89893
3.90378
3.90918
3.91515
3.9216
3.92929
3.93895
3.95003
3.96133
3.97164
3.98134
3.99231
4.0066
4.02501
4.04666
4.07028
4.09536
4.12098
4.14472
4.16442
4.18145
4.19973
4.22303
4.25324
4.28844
3.83411
3.83531
3.83657
3.83791
3.83931
3.84078
3.84233
3.84396
3.84568
3.84749
3.8494
3.85141
3.85354
3.85579
3.85816
3.86066
3.8633
3.86608
3.86903
3.87218
3.87557
3.87921
3.88307
3.88709
3.89123
3.89554
3.90023
3.90549
3.91135
3.91769
3.92527
3.93482
3.94576
3.95698
3.96727
3.97697
3.98804
4.0025
4.02102
4.04268
4.06632
4.09143
4.11707
4.14089
4.16078
4.17804
4.19683
4.22123
4.25308
4.29002
3.83212
3.83327
3.83449
3.83577
3.83711
3.83853
3.84002
3.84159
3.84325
3.845
3.84685
3.84881
3.85088
3.85308
3.85541
3.85787
3.86048
3.86324
3.86617
3.8693
3.87266
3.87625
3.88003
3.88392
3.88789
3.89201
3.8965
3.9016
3.90732
3.91355
3.921
3.93039
3.94114
3.95223
3.96246
3.97216
3.9833
3.99789
4.01645
4.03806
4.06164
4.0867
4.1123
4.13617
4.1562
4.17371
4.19305
4.2186
4.25207
4.29066
3.83013
3.83122
3.83238
3.83361
3.8349
3.83625
3.83768
3.83918
3.84078
3.84246
3.84425
3.84614
3.84815
3.85029
3.85256
3.85498
3.85756
3.86029
3.8632
3.86632
3.86964
3.87318
3.87687
3.88063
3.88441
3.88831
3.89258
3.8975
3.90307
3.90915
3.91646
3.92564
3.93614
3.94704
3.95721
3.9669
3.9781
3.99275
4.01129
4.03277
4.0562
4.08113
4.10662
4.13049
4.15065
4.16842
4.18837
4.21511
4.25014
4.29025
3.82813
3.82917
3.83027
3.83143
3.83265
3.83394
3.8353
3.83673
3.83825
3.83986
3.84157
3.84339
3.84533
3.84741
3.84962
3.85199
3.85452
3.85723
3.86012
3.86321
3.86651
3.86998
3.87358
3.87719
3.88077
3.88442
3.88845
3.89316
3.89857
3.90449
3.91163
3.92056
3.93074
3.94142
3.95151
3.96119
3.97241
3.98707
4.0055
4.02676
4.04997
4.07468
4.1
4.1238
4.14407
4.16214
4.18276
4.2107
4.24719
4.28866
3.82614
3.82711
3.82814
3.82923
3.83038
3.83159
3.83287
3.83423
3.83567
3.83719
3.83882
3.84056
3.84242
3.84442
3.84656
3.84887
3.85136
3.85403
3.8569
3.85996
3.86322
3.86663
3.87012
3.87357
3.87693
3.88033
3.8841
3.88857
3.89379
3.89955
3.90649
3.91514
3.92495
3.93535
3.94534
3.95502
3.96624
3.98084
3.99906
4.02003
4.04292
4.06732
4.09238
4.11607
4.13642
4.15482
4.17618
4.20529
4.24311
4.28577
3.82414
3.82504
3.826
3.82701
3.82808
3.82921
3.8304
3.83167
3.83302
3.83445
3.83599
3.83763
3.83941
3.84132
3.84338
3.84562
3.84805
3.85068
3.85351
3.85655
3.85976
3.8631
3.86648
3.86975
3.87288
3.87601
3.87949
3.88372
3.88873
3.8943
3.90103
3.90935
3.91876
3.92883
3.9387
3.94838
3.95957
3.97402
3.99195
4.01252
4.035
4.05901
4.08373
4.10724
4.12766
4.14643
4.16856
4.19879
4.23778
4.28146
3.82214
3.82296
3.82384
3.82477
3.82575
3.82679
3.82789
3.82906
3.83031
3.83164
3.83307
3.83462
3.83629
3.8381
3.84008
3.84224
3.8446
3.84717
3.84996
3.85295
3.85611
3.85937
3.86261
3.8657
3.8686
3.87144
3.87463
3.87858
3.88337
3.88874
3.89524
3.90319
3.91215
3.92186
3.93159
3.94127
3.9524
3.96661
3.98413
4.00422
4.0262
4.04973
4.07403
4.09729
4.11775
4.13692
4.15983
4.19108
4.23106
4.27558
3.82013
3.82087
3.82166
3.8225
3.82339
3.82433
3.82533
3.82639
3.82753
3.82876
3.83008
3.83151
3.83307
3.83477
3.83665
3.83871
3.84099
3.84349
3.84622
3.84915
3.85224
3.85539
3.85849
3.86139
3.86404
3.8666
3.86949
3.87315
3.8777
3.88285
3.88909
3.89665
3.90512
3.91444
3.92399
3.93367
3.94468
3.95856
3.97558
3.99509
4.0165
4.03945
4.06325
4.08618
4.10665
4.12624
4.14989
4.18202
4.22282
4.268
3.81813
3.81878
3.81947
3.82021
3.821
3.82183
3.82272
3.82368
3.8247
3.82581
3.82701
3.82831
3.82975
3.83133
3.83309
3.83505
3.83722
3.83963
3.84228
3.84513
3.84812
3.85116
3.85409
3.85678
3.85918
3.86147
3.86405
3.86741
3.8717
3.87662
3.88258
3.88971
3.89769
3.90656
3.91591
3.92554
3.93638
3.94983
3.96626
3.98512
4.00586
4.02817
4.05137
4.0739
4.09435
4.11432
4.13863
4.17149
4.21291
4.25857
3.81612
3.81667
3.81727
3.81791
3.81859
3.81931
3.82009
3.82092
3.82182
3.8228
3.82387
3.82504
3.82634
3.82779
3.82942
3.83125
3.8333
3.8356
3.83813
3.84088
3.84375
3.84664
3.84938
3.85185
3.854
3.85601
3.85831
3.86136
3.86537
3.87004
3.8757
3.88238
3.88983
3.89824
3.90734
3.91686
3.92746
3.94038
3.95613
3.97426
3.99427
4.01586
4.03839
4.06043
4.0808
4.10109
4.12594
4.15935
4.20118
4.24712
3.81411
3.81457
3.81506
3.81559
3.81616
3.81677
3.81742
3.81812
3.81889
3.81974
3.82066
3.82169
3.82285
3.82415
3.82562
3.8273
3.82921
3.83137
3.83377
3.83637
3.8391
3.8418
3.84434
3.84656
3.84847
3.85023
3.85223
3.85498
3.8587
3.86311
3.86843
3.87464
3.88157
3.88948
3.89825
3.9076
3.91786
3.93016
3.94516
3.96251
3.98173
4.00253
4.0243
4.04578
4.06597
4.08647
4.11171
4.14545
4.18746
4.23347
3.8121
3.81245
3.81284
3.81326
3.81371
3.8142
3.81472
3.81529
3.81592
3.81662
3.8174
3.81827
3.81927
3.8204
3.82171
3.82322
3.82496
3.82695
3.82918
3.83161
3.83414
3.83663
3.83892
3.84089
3.84254
3.84409
3.84579
3.84828
3.85169
3.85582
3.86077
3.86649
3.87289
3.88029
3.88866
3.89772
3.90753
3.91913
3.93332
3.94983
3.96821
3.98815
4.0091
4.02992
4.04983
4.07039
4.09581
4.12965
4.17159
4.21744
3.81009
3.81034
3.81062
3.81092
3.81125
3.8116
3.81199
3.81243
3.81291
3.81345
3.81407
3.81478
3.8156
3.81655
3.81767
3.81899
3.82054
3.82232
3.82435
3.82656
3.82886
3.8311
3.83312
3.83481
3.8362
3.83751
3.83906
3.84125
3.84435
3.84816
3.85272
3.85794
3.86381
3.87065
3.87854
3.88719
3.89643
3.90725
3.92059
3.93622
3.95371
3.97274
3.99277
4.01285
4.03233
4.05277
4.07815
4.11182
4.1534
4.1988
3.80808
3.80822
3.80838
3.80856
3.80876
3.80899
3.80924
3.80953
3.80985
3.81024
3.81068
3.81121
3.81184
3.8126
3.81351
3.81461
3.81593
3.81749
3.81927
3.82123
3.82327
3.82521
3.82692
3.8283
3.82944
3.83055
3.83194
3.83389
3.83668
3.84016
3.84428
3.84899
3.85433
3.8606
3.86791
3.876
3.88454
3.89451
3.90695
3.92168
3.93822
3.95627
3.9753
3.99452
4.01342
4.03352
4.05861
4.09182
4.13271
4.17735
3.80607
3.8061
3.80614
3.8062
3.80627
3.80635
3.80646
3.80659
3.80676
3.80696
3.80723
3.80756
3.80799
3.80853
3.80922
3.81008
3.81115