/*--------------------------------*- C++ -*----------------------------------*\
  =========                 |
  \\      /  F ield         | OpenFOAM: The Open Source CFD Toolbox
   \\    /   O peration     | Website:  https://openfoam.org
    \\  /    A nd           | Version:  9
     \\/     M anipulation  |
\*---------------------------------------------------------------------------*/
FoamFile
{
    format      ascii;
    class       volScalarField;
    location    "0.19";
    object      p_rgh;
}
// * * * * * * * * * * * * * * * * * * * * * * * * * * * * * * * * * * * * * //

dimensions      [1 -1 -2 0 0 0 0];

internalField   nonuniform List<scalar> 
5000
(
-0.000500902
-0.0015462
-0.00278618
-0.00425688
-0.00610482
-0.00853824
-0.0118738
-0.0166063
-0.0235333
-0.0339809
-0.0502295
-0.0763428
-0.11987
-0.195504
-0.333334
-0.597038
-1.1456
-2.10199
-2.04774
-1.21757
-0.548431
-0.273985
-0.145197
-0.0835959
-0.0523116
-0.0350002
-0.0241475
-0.01655
-0.0116223
-0.00982084
-0.0112823
-0.0145578
-0.0145137
-0.00868436
-0.00337892
-0.00434012
-0.0110105
-0.0274519
-0.0439225
-0.0557527
-0.063591
-0.0686344
-0.0716384
-0.0692851
-0.0732612
-0.0514492
-0.321997
-0.0527831
-0.0623024
-0.0510974
-0.00101386
-0.00331273
-0.00603851
-0.00913377
-0.0128246
-0.0174216
-0.0233675
-0.0313002
-0.0421614
-0.0573695
-0.0790772
-0.11055
-0.156728
-0.22496
-0.325021
-0.461637
-0.621301
-0.890105
-0.817489
-0.537963
-0.391877
-0.256404
-0.154331
-0.0914753
-0.0539251
-0.0316998
-0.0185149
-0.0107088
-0.00636883
-0.0043531
-0.00382811
-0.00435516
-0.00413538
-0.0024694
-0.00225562
-0.00508446
-0.00949533
-0.0189943
-0.0295278
-0.0385933
-0.0455602
-0.0506115
-0.0555884
-0.0529199
-0.0803102
-0.0507261
-0.206861
-0.0516988
-0.0685272
-0.0393878
-0.000996433
-0.00338865
-0.00623177
-0.00934081
-0.0128716
-0.0170312
-0.0220949
-0.0284248
-0.0364999
-0.0469313
-0.0604345
-0.0777003
-0.099029
-0.12377
-0.150523
-0.17384
-0.152253
-0.24299
-0.185785
-0.0839269
-0.1422
-0.117088
-0.0869286
-0.0599713
-0.0381472
-0.0226019
-0.012221
-0.00554477
-0.00158526
0.000412165
0.00112209
0.000765694
0.00055515
0.0012989
0.000945272
-0.00185227
-0.00536789
-0.0131735
-0.0215087
-0.0288761
-0.0348673
-0.0392777
-0.0456981
-0.0401737
-0.0718719
-0.0285453
-0.151452
-0.0290206
-0.0601822
-0.0290917
-0.000542891
-0.00207861
-0.00397321
-0.00591694
-0.00796217
-0.0101586
-0.0125545
-0.0151932
-0.018102
-0.0212485
-0.0244433
-0.0271833
-0.0283698
-0.025841
-0.0171265
-0.00321661
0.0588617
0.0601593
0.0779851
0.0921993
0.00275485
-0.00454788
-0.0152593
-0.0162925
-0.0120862
-0.00689682
-0.0020856
0.00180268
0.00443471
0.00575566
0.00597016
0.00521157
0.00463637
0.00511311
0.00502226
0.00260355
-0.000442707
-0.00749421
-0.0145787
-0.0207542
-0.0258547
-0.0291625
-0.0360357
-0.0274522
-0.0568911
-0.0102838
-0.106222
-0.0108358
-0.0460602
-0.0175703
5.26744e-05
-0.000261915
-0.000814777
-0.00124786
-0.00154906
-0.00168171
-0.00157683
-0.00114522
-0.000258427
0.00127221
0.00375818
0.00774792
0.0141656
0.0247048
0.0421689
0.0636067
0.119071
0.144953
0.15022
0.132426
0.0636365
0.0497384
0.0272873
0.0171557
0.0125282
0.0106505
0.0105935
0.0113022
0.0119621
0.012145
0.011735
0.0107337
0.00989654
0.00982661
0.00941946
0.00718789
0.00470612
-0.00104446
-0.00665252
-0.0116792
-0.0159637
-0.0180382
-0.0248629
-0.0142693
-0.0405532
0.00229571
-0.0651163
0.00152418
-0.0308068
-0.00540956
0.00057151
0.00135173
0.00197766
0.00280628
0.00387382
0.00524879
0.00701696
0.00928815
0.0121943
0.0159001
0.0206482
0.0268806
0.0354055
0.0477137
0.0667574
0.0895618
0.131218
0.154803
0.157742
0.138852
0.0922673
0.0735647
0.0490581
0.0377619
0.0301802
0.025194
0.0223995
0.0208113
0.0197612
0.0188527
0.0178551
0.0166667
0.0156061
0.0149886
0.0141236
0.0120356
0.0101545
0.00581216
0.00165159
-0.00224607
-0.0057501
-0.00667322
-0.0132126
-0.00167944
-0.0240969
0.0130334
-0.0332179
0.0122069
-0.0153903
0.00625296
0.00098818
0.00266533
0.00424203
0.00603802
0.00808667
0.0104612
0.0132669
0.0166343
0.0207074
0.0256589
0.0317472
0.0393849
0.0492147
0.0622966
0.0808047
0.102124
0.132221
0.149367
0.151777
0.138192
0.107719
0.0872531
0.0634661
0.0520565
0.0428359
0.0364313
0.0322138
0.0292377
0.0270334
0.0253149
0.023793
0.0223633
0.0211175
0.020213
0.019192
0.0173321
0.0159136
0.0126381
0.00959286
0.0066993
0.00393468
0.00403048
-0.00173425
0.00956639
-0.00820032
0.0232316
-0.00968049
0.0224483
-0.00047426
0.0171003
0.00131037
0.00369938
0.00603559
0.00858883
0.011379
0.0144742
0.0179941
0.0220989
0.0269654
0.0327701
0.0397175
0.0480949
0.0583009
0.0708107
0.0870186
0.104889
0.126427
0.1388
0.140931
0.131851
0.112478
0.0945734
0.073813
0.0623485
0.0525302
0.0454214
0.0403239
0.0364846
0.0335752
0.0313128
0.0293863
0.0277424
0.0264065
0.0254166
0.0244964
0.0229344
0.0218508
0.0193321
0.0171105
0.0150717
0.0129891
0.0139311
0.00921895
0.019779
0.00653262
0.0326815
0.00868512
0.0320846
0.0133539
0.0272922
0.00154711
0.00446596
0.00735958
0.0104419
0.0137162
0.0172392
0.0211213
0.0255172
0.0306077
0.0365809
0.0436118
0.0518353
0.0613807
0.0724657
0.0857279
0.0998714
0.115346
0.124668
0.126927
0.121262
0.109194
0.0949609
0.0796553
0.0691635
0.0596689
0.0524975
0.0469911
0.042688
0.0393849
0.0368113
0.0346587
0.032921
0.0316009
0.0306458
0.0298826
0.0286213
0.0278353
0.0259431
0.0244004
0.0231061
0.0216539
0.0232565
0.0197129
0.0292391
0.0199474
0.0413553
0.0238466
0.0410982
0.0259786
0.0370007
0.00168586
0.00492637
0.00815688
0.0115363
0.0150558
0.0187551
0.0227182
0.0270713
0.0319733
0.037595
0.0440969
0.0515808
0.0600716
0.0695895
0.0803742
0.0915801
0.102992
0.110404
0.11299
0.109809
0.102448
0.0919287
0.0809178
0.072367
0.0641397
0.0575838
0.0522184
0.0478814
0.0444834
0.0418251
0.0396338
0.0379411
0.0367343
0.035882
0.0352739
0.0342904
0.0337982
0.0324777
0.0315408
0.0309128
0.0300518
0.0321632
0.0297537
0.038128
0.0322098
0.0494827
0.0367504
0.0496264
0.037541
0.0462994
0.00172084
0.00505324
0.00838423
0.0118531
0.0154471
0.0191969
0.0231667
0.0274396
0.0321154
0.0373205
0.0431997
0.0498557
0.0572956
0.0654602
0.0743514
0.083444
0.0922356
0.0983807
0.101128
0.0995631
0.0951503
0.0876462
0.0797836
0.0731368
0.0664758
0.0609091
0.0561103
0.0521139
0.0489068
0.046373
0.0443051
0.0427711
0.0417559
0.0410658
0.0406328
0.0399139
0.039703
0.0388942
0.0384966
0.038464
0.0381511
0.0406636
0.0391919
0.0468677
0.0433105
0.0572619
0.0479795
0.0577586
0.0481988
0.0552218
0.00163815
0.00481078
0.00799736
0.0113713
0.0149318
0.01868
0.02264
0.0268642
0.0314171
0.0363723
0.0418171
0.0478169
0.0543708
0.061413
0.0688762
0.0764274
0.083505
0.0887288
0.0914156
0.0908262
0.0882589
0.0831308
0.077625
0.0726286
0.0674729
0.0629931
0.0589808
0.0555586
0.0527464
0.0504965
0.0486765
0.0473867
0.0466232
0.0461476
0.0459193
0.0454607
0.0455131
0.0451532
0.0452302
0.0457269
0.0459135
0.0487474
0.0481392
0.0553258
0.0534146
0.0648546
0.0579532
0.0655437
0.0580867
0.0638096
0.00147441
0.00432421
0.0072048
0.0103051
0.0136509
0.0172704
0.0211759
0.0253697
0.0298544
0.0346475
0.0397905
0.0453187
0.051218
0.0574207
0.0638511
0.0702856
0.0762238
0.080774
0.0833259
0.0833727
0.0820272
0.0787503
0.0750683
0.0715192
0.0677396
0.0643339
0.0611864
0.0584431
0.056135
0.0542657
0.0527757
0.0517906
0.0513214
0.0510976
0.0510929
0.0508901
0.0511925
0.0512347
0.0517355
0.0527053
0.0533588
0.056414
0.0566674
0.0633896
0.0627408
0.0723028
0.0670442
0.0730504
0.0673393
0.0721185
0.00128878
0.00378447
0.00635635
0.0091936
0.0122929
0.0156795
0.0193874
0.023423
0.0277632
0.0323797
0.037267
0.042431
0.0478464
0.0534386
0.0591954
0.0648378
0.0700238
0.0741104
0.0765748
0.0771158
0.0766452
0.0747769
0.072529
0.0702251
0.0676721
0.0652815
0.0629985
0.0609589
0.0591964
0.0577518
0.0566346
0.0559905
0.0558418
0.0558931
0.0561224
0.0561698
0.0567148
0.0571291
0.0580204
0.0594155
0.0605257
0.0637179
0.0647926
0.0710886
0.0714413
0.0795653
0.075548
0.0803563
0.0760905
0.080207
0.00119379
0.0035065
0.0058946
0.00853798
0.0114421
0.0146153
0.0180822
0.0218633
0.0259526
0.0303164
0.0349197
0.0397418
0.0447557
0.0498986
0.055088
0.0601979
0.0648886
0.0686682
0.0711209
0.0720942
0.0722951
0.0714843
0.0703264
0.0690508
0.0675436
0.066067
0.0645954
0.0632346
0.0620147
0.0610018
0.0602708
0.0599849
0.0601706
0.060513
0.060986
0.0612799
0.0620635
0.0628297
0.064092
0.0658764
0.0674351
0.0708366
0.0724296
0.0784647
0.0796161
0.0866524
0.083615
0.0875243
0.0844583
0.0881264
0.0011734
0.0034774
0.00586962
0.00845059
0.0112524
0.0142991
0.0175972
0.0211519
0.0249662
0.0290251
0.0332992
0.0377618
0.0423865
0.0471226
0.0518896
0.056575
0.0608922
0.064451
0.0669354
0.0682835
0.0690089
0.0689815
0.0686403
0.0681807
0.0675279
0.066836
0.0660852
0.0653438
0.0646332
0.0640358
0.0636879
0.0637665
0.0642943
0.0649393
0.0656679
0.0662073
0.0672283
0.0683316
0.0699525
0.0721025
0.0740724
0.0777084
0.0797185
0.0855739
0.0873434
0.0935857
0.091349
0.0946019
0.092535
0.0959171
0.00119617
0.00358
0.00608371
0.00873754
0.0115509
0.0145487
0.0177419
0.021134
0.0247282
0.02852
0.0324916
0.0366211
0.040886
0.0452487
0.049643
0.0539629
0.0579718
0.0613582
0.0638719
0.0655229
0.0666488
0.067199
0.0674748
0.0676561
0.067689
0.06765
0.067514
0.0673147
0.0670642
0.0668566
0.0668832
0.0673281
0.0682038
0.0691613
0.0701559
0.0709432
0.0722036
0.0736333
0.0756034
0.0781057
0.0804525
0.0843182
0.0867379
0.0924514
0.0946378
0.100419
0.098844
0.101611
0.100386
0.103609
0.00125211
0.00374029
0.00633712
0.00908414
0.0119668
0.0149778
0.0181231
0.0214136
0.0248594
0.0284618
0.0322089
0.0360798
0.0400515
0.0440949
0.0481617
0.0521631
0.0559077
0.0591374
0.0616951
0.0635606
0.0649821
0.0659648
0.0667204
0.0674133
0.0679972
0.0684947
0.0688725
0.0691394
0.0693012
0.0694599
0.0698534
0.0706664
0.0718961
0.0731747
0.0744412
0.0754831
0.0769885
0.0787386
0.0810511
0.0839001
0.0866106
0.0906973
0.0935176
0.0991568
0.102093
0.106694
0.106065
0.108533
0.108055
0.111223
0.00129016
0.00384898
0.00650338
0.0092986
0.0122271
0.0152685
0.0184117
0.021657
0.0250122
0.0284846
0.0320719
0.0357576
0.0395168
0.0433213
0.0471339
0.0508818
0.0544156
0.0575167
0.0600921
0.0621135
0.0637617
0.0650828
0.0662278
0.0673387
0.0683703
0.0693102
0.0701205
0.0707932
0.0713331
0.0718417
0.0725987
0.0737846
0.0753677
0.0769759
0.0785231
0.079827
0.0815857
0.083655
0.0863065
0.0894987
0.0925833
0.0968578
0.100077
0.105631
0.109044
0.113065
0.113206
0.115377
0.115579
0.118774
0.00128269
0.00385556
0.00654822
0.00935333
0.0122702
0.0152987
0.01843
0.021651
0.0249546
0.0283422
0.0318158
0.0353674
0.0389775
0.0426201
0.0462601
0.0498307
0.0532109
0.0562196
0.0588061
0.0609452
0.0627785
0.0643784
0.0658509
0.0673118
0.0687157
0.0700303
0.0712161
0.0722561
0.0731516
0.0740042
0.075123
0.0766822
0.0786243
0.0805665
0.0824022
0.0839789
0.0860009
0.0883916
0.0913812
0.0949097
0.0983724
0.102832
0.106447
0.111956
0.115742
0.119554
0.120115
0.122155
0.122977
0.126273
0.00125351
0.00379222
0.00647351
0.00925219
0.0121195
0.0150879
0.0181631
0.0213365
0.024594
0.0279241
0.0313204
0.034777
0.0382825
0.0418174
0.045348
0.0488065
0.052085
0.0550397
0.0576428
0.059882
0.0618782
0.0637173
0.0654732
0.0672361
0.0689616
0.0706082
0.072136
0.0735217
0.0747612
0.0759521
0.0774314
0.079367
0.0816699
0.0839504
0.0860818
0.0879476
0.09024
0.0929585
0.0962857
0.100146
0.103972
0.108662
0.112658
0.11819
0.122311
0.125988
0.126893
0.128901
0.130267
0.133737
0.00121956
0.00368557
0.00629144
0.00900504
0.0118102
0.0147073
0.0177026
0.0207974
0.0239843
0.0272503
0.0305815
0.0339685
0.0374009
0.040863
0.0443217
0.0477082
0.0509219
0.0538518
0.0564815
0.0588165
0.0609646
0.0630161
0.0650232
0.0670557
0.0690722
0.0710267
0.0728785
0.0745974
0.0761726
0.0776972
0.0795346
0.081845
0.0845119
0.087137
0.0895728
0.0917406
0.0943111
0.0973639
0.10103
0.105225
0.109412
0.114356
0.118725
0.124338
0.128772
0.132366
0.133601
0.135623
0.137471
0.141182
0.00117828
0.00355052
0.00605273
0.00867394
0.0114009
0.0142226
0.0171354
0.0201401
0.0232363
0.0264185
0.0296763
0.0329975
0.0363708
0.0397765
0.0431787
0.0465108
0.0496808
0.052604
0.0552714
0.0577037
0.0599979
0.0622425
0.0644773
0.0667573
0.0690455
0.0712932
0.0734567
0.0754985
0.0774005
0.0792521
0.0814438
0.0841284
0.0871618
0.0901399
0.0928891
0.0953679
0.0982244
0.101614
0.105625
0.110162
0.114711
0.119921
0.124663
0.130409
0.135148
0.138724
0.14025
0.142319
0.144613
0.148624
0.00113241
0.00341287
0.0058182
0.00833662
0.0109622
0.0136891
0.0165115
0.0194252
0.0224283
0.0255197
0.0286954
0.0319468
0.0352589
0.0386076
0.0419547
0.0452381
0.0483771
0.0513058
0.0540197
0.0565492
0.0589817
0.0614027
0.063846
0.0663561
0.0689008
0.0714288
0.0738915
0.0762439
0.0784621
0.0806328
0.0831748
0.0862336
0.0896354
0.0929729
0.0960481
0.0988367
0.10199
0.105717
0.110079
0.114965
0.11988
0.125372
0.130492
0.136418
0.141459
0.145072
0.146845
0.148993
0.15171
0.156076
0.00108862
0.00328501
0.00560259
0.0080213
0.0105387
0.0131581
0.0158795
0.0186991
0.0216131
0.0246193
0.0277144
0.0308909
0.0341335
0.0374179
0.0407076
0.0439466
0.0470643
0.0500054
0.052767
0.0553848
0.0579418
0.0605214
0.0631555
0.0658801
0.0686664
0.07146
0.0742069
0.0768559
0.0793783
0.08186
0.0847483
0.0881805
0.0919513
0.09565
0.099058
0.102162
0.105617
0.109682
0.114399
0.119642
0.124928
0.130722
0.136227
0.142374
0.147717
0.151407
0.153397
0.155643
0.158774
0.163546
0.00104775
0.00316118
0.00539198
0.00772053
0.0101434
0.0126645
0.0152879
0.0180139
0.0208407
0.0237648
0.0267811
0.0298807
0.0330502
0.0362686
0.0395033
0.0427042
0.0458059
0.0487576
0.0515565
0.0542443
0.0569066
0.0596272
0.0624362
0.0653609
0.0683735
0.0714165
0.0744306
0.0773607
0.0801748
0.0829592
0.0861886
0.0899912
0.0941285
0.0981869
0.10193
0.105354
0.109111
0.113514
0.118591
0.124194
0.129872
0.135982
0.141878
0.14828
0.153931
0.157734
0.159911
0.162263
0.165808
0.171038
0.00100973
0.0030437
0.00519171
0.00743969
0.00978303
0.0122227
0.0147619
0.017403
0.0201463
0.0229892
0.0259265
0.0289503
0.0320499
0.0352079
0.0383943
0.041561
0.044645
0.0475968
0.0504156
0.0531532
0.0559032
0.0587506
0.0617216
0.064833
0.0680559
0.0713301
0.0745933
0.0777879
0.0808805
0.0839579
0.0875206
0.0916871
0.0961849
0.100598
0.104675
0.108419
0.112477
0.117222
0.122664
0.128639
0.134711
0.141158
0.147452
0.154139
0.160109
0.164059
0.166391
0.168847
0.172816
0.178562
0.000977013
0.00294369
0.00502057
0.00719666
0.00946845
0.0118366
0.0143033
0.0168698
0.0195366
0.0223023
0.0251643
0.0281179
0.0311552
0.0342602
0.0374027
0.0405344
0.0435934
0.0465336
0.0493593
0.0521345
0.0549626
0.0579277
0.0610493
0.0643326
0.0677473
0.0712328
0.0747253
0.0781669
0.0815235
0.0848819
0.0887667
0.0932866
0.0981345
0.102895
0.107301
0.111357
0.115725
0.120809
0.126624
0.132982
0.139455
0.146254
0.152954
0.15995
0.166255
0.170383
0.172843
0.175398
0.179808
0.186127
0.000950226
0.0028626
0.00488078
0.00699425
0.00920109
0.0115035
0.0139037
0.0164025
0.019
0.0216967
0.0244926
0.0273858
0.0303693
0.033426
0.0365247
0.0396175
0.0426466
0.0455713
0.0484031
0.0512168
0.0541214
0.057197
0.0604552
0.0638916
0.0674763
0.0711507
0.0748517
0.078522
0.0821267
0.0857518
0.0899444
0.0948037
0.0999875
0.105085
0.109815
0.11418
0.118852
0.124278
0.130474
0.137226
0.144108
0.151274
0.158387
0.16571
0.172365
0.1767
0.179275
0.181933
0.186804
0.193748
0.000927286
0.00279264
0.00476009
0.00681969
0.00896982
0.0112131
0.0135525
0.0159897
0.0185266
0.0211652
0.0239067
0.0267492
0.0296844
0.0326944
0.0357483
0.0388017
0.0418034
0.0447198
0.0475685
0.0504294
0.0534111
0.0565871
0.0599626
0.0635288
0.0672592
0.0710995
0.0749884
0.0788694
0.0827058
0.0865818
0.0910658
0.0962478
0.101751
0.107171
0.11222
0.116892
0.121864
0.127636
0.134219
0.141376
0.148676
0.156221
0.163749
0.171412
0.178426
0.183001
0.185702
0.188482
0.193833
0.201445
0.000906694
0.00272935
0.00465123
0.00666369
0.00876484
0.0109572
0.0132445
0.0156303
0.0181176
0.0207092
0.0234054
0.0262028
0.029092
0.0320561
0.0350672
0.0380864
0.04107
0.043991
0.0468703
0.0497868
0.0528426
0.0561038
0.0595739
0.0632454
0.0670983
0.0710839
0.0751427
0.0792178
0.0832699
0.0873806
0.0921387
0.0976252
0.103428
0.109158
0.11452
0.119496
0.124767
0.130886
0.137863
0.145436
0.153159
0.161096
0.169042
0.177051
0.184423
0.189274
0.192142
0.195084
0.200931
0.209242
0.000888681
0.00267417
0.00455629
0.00652792
0.00858765
0.0107385
0.0129848
0.0153303
0.0177782
0.02033
0.0229848
0.0257388
0.0285837
0.0315049
0.0344791
0.0374728
0.0404483
0.0433844
0.0463031
0.0492774
0.0523993
0.0557286
0.0592725
0.0630292
0.066987
0.0711021
0.075316
0.0795708
0.0838237
0.0881531
0.0931682
0.0989407
0.105024
0.111047
0.116717
0.121997
0.127567
0.134032
0.141416
0.1494
0.15756
0.165901
0.174266
0.182624
0.190346
0.195514
0.198617
0.20178
0.208136
0.217161
0.000873849
0.00262906
0.00447885
0.00641738
0.00844401
0.0105622
0.012776
0.0150884
0.0175012
0.0200152
0.0226297
0.0253423
0.0281471
0.0310323
0.0339776
0.036953
0.0399261
0.0428806
0.0458393
0.0488677
0.0520462
0.0554301
0.0590335
0.0628638
0.0669162
0.0711506
0.0755083
0.0799301
0.0843697
0.0889027
0.0941583
0.100198
0.10654
0.112839
0.118811
0.124399
0.130268
0.137073
0.144874
0.153278
0.161883
0.170641
0.179429
0.188136
0.1962
0.20173
0.20515
0.208603
0.215478
0.225222
0.000862139
0.00259338
0.0044178
0.00633032
0.00833039
0.010421
0.0126054
0.0148859
0.0172641
0.0197415
0.0223191
0.0249963
0.027769
0.0306265
0.0335492
0.0365094
0.0394796
0.0424495
0.0454436
0.04852
0.0517479
0.055179
0.0588365
0.0627366
0.0668797
0.0712272
0.0757194
0.080296
0.0849091
0.0896313
0.0951114
0.1014
0.107981
0.114537
0.120803
0.126705
0.132875
0.140002
0.148241
0.15707
0.166132
0.175323
0.184543
0.193606
0.202004
0.207945
0.211766
0.215577
0.222981
0.233439
0.000852616
0.00256384
0.00436672
0.00625646
0.00823201
0.0102958
0.012451
0.0147003
0.0170467
0.019493
0.0220417
0.0246927
0.0274416
0.0302768
0.0331789
0.0361225
0.0390859
0.0420661
0.0450899
0.048209
0.051482
0.0549583
0.0586698
0.0626406
0.0668737
0.0713297
0.0759478
0.0806676
0.0854411
0.0903391
0.0960289
0.102548
0.10935
0.116144
0.122696
0.128916
0.135392
0.142866
0.151465
0.160769
0.17031
0.179958
0.189627
0.199063
0.2078
0.214194
0.218488
0.222719
0.23066
0.241825
0.000843954
0.00253647
0.00431851
0.00618569
0.00813691
0.0101749
0.0123038
0.0145273
0.0168494
0.0192736
0.021802
0.0244334
0.027162
0.0299756
0.0328553
0.0357795
0.038733
0.0417197
0.0447686
0.0479257
0.0512408
0.0547616
0.0585281
0.0625709
0.0668933
0.0714536
0.0761892
0.0810409
0.0859626
0.0910246
0.0969104
0.103644
0.11065
0.117664
0.124491
0.131029
0.137808
0.145607
0.154599
0.164382
0.174422
0.184556
0.194703
0.204545
0.213639
0.220521
0.225338
0.230034
0.238523
0.250385
0.000835619
0.00251013
0.00427227
0.00611859
0.00804864
0.010066
0.0121755
0.0143812
0.0166868
0.019095
0.0216065
0.0242188
0.0269255
0.0297149
0.0325704
0.0354748
0.0384187
0.0414109
0.044481
0.0476704
0.0510229
0.0545856
0.058406
0.0625201
0.0669298
0.07159
0.0764357
0.081409
0.0864684
0.0916841
0.0977537
0.104688
0.111883
0.119102
0.126192
0.133043
0.140116
0.148226
0.157626
0.167907
0.178475
0.189131
0.199796
0.210091
0.219575
0.22697
0.232335
0.23753
0.246575
0.259124
0.000828453
0.0024877
0.00423383
0.00606446
0.00797967
0.00998324
0.0120796
0.0142722
0.0165636
0.0189553
0.0214473
0.0240373
0.0267196
0.0294844
0.0323179
0.0352064
0.038144
0.0411416
0.0442282
0.0474422
0.0508245
0.0544242
0.0582952
0.0624777
0.0669716
0.0717274
0.0766769
0.0817637
0.0869518
0.0923127
0.0985552
0.105678
0.113054
0.120464
0.127802
0.134956
0.142309
0.15072
0.160537
0.171342
0.182472
0.193694
0.204928
0.215737
0.225654
0.233575
0.239494
0.245211
0.254823
0.268046
0.000823424
0.00247189
0.00420719
0.0060274
0.00793232
0.00992508
0.0120092
0.0141873
0.0164614
0.0188331
0.0213029
0.0238697
0.0265295
0.0292744
0.0320922
0.034971
0.0379059
0.0409077
0.0440045
0.0472339
0.0506379
0.0542689
0.0581864
0.0624334
0.0670077
0.071855
0.0769032
0.0820969
0.0874066
0.0929052
0.0993111
0.106613
0.114164
0.121757
0.129329
0.136765
0.14438
0.15308
0.163327
0.174687
0.186417
0.198252
0.210114
0.221507
0.231905
0.240356
0.246825
0.253084
0.263273
0.27715
0.000819902
0.00246039
0.00418705
0.00599778
0.00789175
0.00987145
0.0119401
0.0141002
0.0163546
0.0187058
0.0211556
0.023704
0.0263482
0.0290805
0.0318896
0.0347633
0.0376964
0.040699
0.0437989
0.0470356
0.050455
0.0541136
0.0580745
0.0623821
0.0670321
0.071966
0.0771079
0.082403
0.0878278
0.0934569
0.100017
0.107492
0.115215
0.122985
0.130777
0.138473
0.146325
0.155304
0.165993
0.17794
0.190311
0.20281
0.215362
0.227409
0.238335
0.247314
0.254327
0.261154
0.271928
0.286435
0.000815936
0.00244726
0.00416308
0.00596124
0.00784074
0.00980422
0.0118554
0.0139978
0.016235
0.0185706
0.0210069
0.0235443
0.0261794
0.0289044
0.0317075
0.0345762
0.0375051
0.040504
0.0436016
0.0468412
0.0502738
0.0539592
0.0579618
0.0623257
0.067045
0.0720586
0.0772877
0.0826781
0.0882116
0.0939639
0.10067
0.108312
0.116208
0.124154
0.132153
0.14008
0.148144
0.157391
0.168537
0.181102
0.194152
0.207365
0.220668
0.233435
0.244931
0.254431
0.261991
0.269419
0.280787
0.295891
0.000810409
0.00242951
0.00413142
0.00591455
0.00777839
0.0097263
0.0117628
0.013892
0.0161179
0.018444
0.0208723
0.0234023
0.02603
0.0287471
0.0315418
0.0344021
0.037323
0.0403152
0.0434092
0.0466521
0.0500996
0.0538136
0.0578568
0.0622714
0.0670509
0.0721341
0.0774415
0.0829199
0.0885549
0.0944224
0.101266
0.109073
0.117144
0.125268
0.133461
0.141593
0.149841
0.159347
0.170964
0.184173
0.197939
0.21191
0.226019
0.239562
0.251658
0.261675
0.269796
0.277866
0.289835
0.305502
0.000804311
0.00241048
0.00409879
0.00586859
0.00771994
0.00965666
0.0116834
0.0138043
0.0160227
0.0183414
0.0207616
0.023282
0.0258985
0.0286031
0.0313849
0.0342333
0.0371447
0.0401309
0.0432242
0.0464748
0.0499416
0.0536862
0.0577679
0.0622258
0.0670537
0.0721935
0.0775677
0.0831252
0.088854
0.0948283
0.101801
0.10977
0.118023
0.126328
0.134706
0.143015
0.151423
0.161182
0.17328
0.187154
0.201666
0.216433
0.231395
0.245756
0.258471
0.268998
0.277704
0.286465
0.299044
0.315238
0.0007995
0.00239566
0.0040742
0.00583506
0.00767837
0.00960774
0.0116273
0.0137406
0.0159502
0.0182584
0.0206659
0.0231718
0.0257722
0.0284605
0.0312273
0.0340637
0.0369678
0.0399524
0.0430509
0.0463152
0.0498055
0.0535817
0.057698
0.06219
0.0670529
0.0722344
0.0776623
0.0832893
0.0891037
0.0951761
0.10227
0.110401
0.118842
0.127335
0.13589
0.144352
0.1529
0.162907
0.175493
0.190047
0.205325
0.220919
0.236768
0.251972
0.265314
0.276348
0.285669
0.295167
0.308368
0.325063
0.000796434
0.00238606
0.00405812
0.00581259
0.00764912
0.00957077
0.0115812
0.0136833
0.0158798
0.0181728
0.0205635
0.0230517
0.0256347
0.028307
0.031061
0.0338892
0.0367909
0.0397797
0.0428895
0.0461724
0.0496885
0.0534949
0.0576404
0.0621567
0.0670414
0.0722499
0.0777185
0.083405
0.0892971
0.0954596
0.102667
0.11096
0.1196
0.128288
0.137014
0.145607
0.154282
0.164536
0.177611
0.192849
0.208906
0.225347
0.242105
0.258165
0.272129
0.283664
0.293628
0.303908
0.317744
0.334929
0.000793543
0.00237665
0.00404137
0.00578738
0.00761392
0.00952381
0.0115206
0.0136074
0.0157873
0.018063
0.0204364
0.0229082
0.0254765
0.0281369
0.0308825
0.0337072
0.036611
0.0396083
0.0427329
0.0460365
0.0495779
0.0534112
0.0575798
0.0621115
0.0670067
0.0722292
0.0777267
0.0834633
0.0894259
0.095671
0.102984
0.11144
0.120289
0.129184
0.138074
0.146783
0.155576
0.166077
0.179641
0.195559
0.212397
0.229694
0.24737
0.264284
0.278857
0.290883
0.301511
0.312606
0.327097
0.344783
0.000788801
0.00236138
0.00401411
0.00574663
0.00755823
0.00945196
0.0114318
0.0135014
0.0156644
0.0179241
0.020283
0.0227418
0.0252993
0.0279513
0.0306916
0.0335149
0.0364223
0.0394286
0.0425679
0.0458909
0.0494549
0.0533106
0.0574964
0.0620366
0.0669334
0.07216
0.0776762
0.0834545
0.0894806
0.0958017
0.103215
0.111833
0.120904
0.130016
0.139066
0.147878
0.156786
0.167539
0.181584
0.19817
0.215779
0.233932
0.252523
0.270276
0.285438
0.29794
0.30924
0.321174
0.336346
0.354567
0.000781651
0.00233882
0.00397484
0.0056898
0.00748338
0.00935914
0.0113215
0.0133747
0.0155225
0.0177684
0.0201148
0.0225626
0.0251102
0.0277538
0.0304877
0.0333077
0.036216
0.0392284
0.0423789
0.0457176
0.0492997
0.0531728
0.0573709
0.0619145
0.0668069
0.07203
0.0775565
0.0833686
0.0894519
0.0958427
0.103348
0.11213
0.121433
0.130775
0.139979
0.148885
0.157912
0.168923
0.183438
0.20067
0.219034
0.23803
0.25752
0.276088
0.291807
0.304767
0.316736
0.329519
0.345407
0.364227
0.000773303
0.00231284
0.00393057
0.00562725
0.00740295
0.00926156
0.0112077
0.0132456
0.015379
0.017611
0.019944
0.0223785
0.024913
0.0275441
0.030267
0.0330786
0.0359826
0.0389958
0.0421524
0.0455014
0.0490963
0.0529818
0.0571879
0.0617312
0.0666151
0.0718289
0.0773583
0.0831967
0.0893303
0.0957849
0.103376
0.112318
0.121864
0.131445
0.1408
0.149793
0.158947
0.170223
0.185193
0.203043
0.222134
0.241952
0.262313
0.281659
0.297901
0.311295
0.323918
0.337551
0.3542
0.373708
0.000765361
0.00228832
0.00388928
0.00556947
0.00732902
0.00917175
0.0111022
0.0131242
0.0152413
0.0174565
0.0197717
0.0221878
0.0247036
0.0273164
0.0300224
0.03282
0.0357141
0.0387224
0.0418791
0.0452325
0.0488345
0.0527275
0.0569374
0.061477
0.0663488
0.0715481
0.0770736
0.0829304
0.0891072
0.0956193
0.103288
0.112386
0.122181
0.132008
0.141509
0.150586
0.159878
0.171427
0.186835
0.205267
0.225051
0.245658
0.26685
0.286926
0.30365
0.317456
0.33071
0.345186
0.362652
0.38296
0.000758287
0.00226662
0.00385272
0.00551782
0.00726181
0.00908821
0.0110012
0.0130046
0.0151015
0.0172951
0.0195875
0.0219798
0.0244717
0.0270612
0.0297459
0.0325252
0.0354051
0.0384036
0.0415548
0.0449064
0.0485095
0.0524044
0.0566138
0.061146
0.0660018
0.0711814
0.0766956
0.0825623
0.0887743
0.0953368
0.103074
0.112321
0.122366
0.132442
0.142083
0.151242
0.160686
0.172516
0.188341
0.207316
0.227749
0.249102
0.271074
0.291822
0.308986
0.32318
0.337039
0.352348
0.370698
0.391934
0.000751078
0.00224472
0.00381547
0.00546429
0.00719068
0.00899791
0.01089
0.0128707
0.0149433
0.017111
0.0193766
0.0217417
0.0242066
0.0267705
0.0294316
0.0321902
0.0350528
0.0380374
0.0411779
0.0445216
0.0481195
0.0520107
0.0562146
0.060735
0.0655699
0.0707236
0.0762185
0.082086
0.088324
0.094929
0.102725
0.11211
0.122398
0.132719
0.142493
0.151735
0.161343
0.173462
0.189682
0.209154
0.230188
0.252236
0.274926
0.29628
0.31384
0.328403
0.34284
0.358972
0.378282
0.40059
0.000742156
0.00221797
0.00376984
0.00539843
0.007103
0.00888676
0.0107538
0.0127079
0.0147529
0.0168921
0.0191288
0.0214652
0.0239022
0.0264395
0.0290762
0.0318129
0.034656
0.0376232
0.0407481
0.0440782
0.0476648
0.0515464
0.0557395
0.0602427
0.0650507
0.0701709
0.0756374
0.0814956
0.0877496
0.0943874
0.10223
0.111739
0.122256
0.132812
0.14271
0.152033
0.161819
0.174232
0.190823
0.210746
0.232326
0.255008
0.278347
0.300231
0.318148
0.333064
0.34805
0.365002
0.385356
0.408885
0.000730502
0.00218343
0.00371126
0.00531451
0.00699244
0.00874838
0.0105866
0.0125112
0.0145261
0.0166351
0.0188418
0.0211486
0.0235571
0.0260674
0.0286788
0.0313922
0.0342136
0.0371603
0.0402655
0.043577
0.0471468
0.0510134
0.0551901
0.0596698
0.0644431
0.0695206
0.0749483
0.0807861
0.0870445
0.0937039
0.101579
0.111195
0.121918
0.13269
0.142701
0.152104
0.162076
0.174786
0.191723
0.212047
0.234115
0.257366
0.281274
0.303613
0.321852
0.337108
0.352618
0.370389
0.39188
0.416779
0.000716109
0.00214119
0.00364016
0.00521354
0.00686073
0.00858527
0.0103917
0.0122841
0.0142668
0.0163438
0.0185187
0.0207945
0.0231729
0.0256544
0.0282389
0.030927
0.0337247
0.0366484
0.0397308
0.04302
0.0465687
0.0504154
0.0545698
0.0590184
0.0637475
0.068771
0.0741476
0.0799526
0.0862027
0.0928704
0.100763
0.110463
0.121363
0.132323
0.142433
0.151913
0.162075
0.175081
0.192339
0.213015
0.235508
0.259255
0.283652
0.306368
0.3249
0.340486
0.356494
0.375095
0.39782
0.424231
0.000699629
0.0020933
0.00355997
0.00510025
0.0067137
0.00840399
0.0101758
0.0120334
0.0139812
0.0160233
0.0181636
0.0204054
0.0227508
0.0252009
0.0277559
0.0304167
0.0331888
0.036088
0.039146
0.0424107
0.0459354
0.0497577
0.0538835
0.0582923
0.0629654
0.067921
0.073232
0.0789905
0.0852179
0.0918785
0.0997715
0.109529
0.120567
0.131683
0.141875
0.151424
0.161775
0.175072
0.192624
0.2136
0.236453
0.260622
0.285424
0.308447
0.32725
0.343155
0.359637
0.37909
0.403147
0.431192
0.000681715
0.00204171
0.00347384
0.00497873
0.00655599
0.00820939
0.00994368
0.0117633
0.0136727
0.0156762
0.0177781
0.0199821
0.0222909
0.0247064
0.0272293
0.029861
0.0326065
0.0354808
0.0385143
0.0417541
0.0452528
0.0490467
0.0531369
0.0574952
0.0620979
0.0669687
0.0721975
0.0778939
0.0840827
0.0907192
0.0985932
0.108379
0.119509
0.130741
0.140996
0.150604
0.161136
0.174713
0.19253
0.213757
0.236904
0.261417
0.28654
0.309808
0.328865
0.345075
0.362011
0.382351
0.407834
0.437612
0.000662594
0.00198704
0.00338266
0.00484991
0.00638843
0.00800202
0.00969551
0.0114735
0.0133405
0.0153014
0.0173609
0.0195232
0.021792
0.0241699
0.0266585
0.0292597
0.0319784
0.0348285
0.0378387
0.0410541
0.0445257
0.0482871
0.0523338
0.0566292
0.0611447
0.0659112
0.0710385
0.0766554
0.0827887
0.0893823
0.0972167
0.106999
0.11817
0.129472
0.139769
0.149423
0.160121
0.173962
0.192013
0.213436
0.236811
0.26159
0.286953
0.310419
0.329709
0.34621
0.363587
0.384858
0.411854
0.443429
0.000642075
0.00192862
0.00328522
0.00471202
0.0062087
0.00777908
0.00942812
0.0111606
0.0129814
0.0148958
0.016909
0.0190261
0.0212517
0.0235894
0.0260419
0.0286117
0.0313038
0.0341308
0.0371194
0.0403117
0.0437555
0.0474802
0.0514746
0.055693
0.0601023
0.0647425
0.0697468
0.0752655
0.0813251
0.0878559
0.0956293
0.105371
0.116527
0.127852
0.138168
0.147852
0.158698
0.172779
0.191029
0.212593
0.236127
0.261094
0.286621
0.310243
0.329748
0.346522
0.364343
0.386598
0.415177
0.448574
0.000619806
0.00186525
0.0031795
0.00456233
0.00601346
0.0075368
0.00913749
0.0108205
0.0125913
0.0144553
0.0164187
0.0184872
0.0206664
0.0229613
0.0253756
0.0279127
0.030578
0.033383
0.0363516
0.0395222
0.0429376
0.0466214
0.050554
0.0546805
0.0589633
0.0634535
0.0683114
0.0737118
0.0796789
0.0861268
0.093817
0.103481
0.114561
0.12586
0.136171