/*--------------------------------*- C++ -*----------------------------------*\
  =========                 |
  \\      /  F ield         | OpenFOAM: The Open Source CFD Toolbox
   \\    /   O peration     | Website:  https://openfoam.org
    \\  /    A nd           | Version:  9
     \\/     M anipulation  |
\*---------------------------------------------------------------------------*/
FoamFile
{
    format      ascii;
    class       surfaceScalarField;
    location    "0.19";
    object      phi;
}
// * * * * * * * * * * * * * * * * * * * * * * * * * * * * * * * * * * * * * //

dimensions      [0 3 -1 0 0 0 0];

internalField   nonuniform List<scalar> 
9850
(
-3.88437e-08
3.42629e-06
-3.86945e-08
3.59773e-06
-3.83702e-08
3.77936e-06
-3.78462e-08
3.97139e-06
-3.70504e-08
4.17479e-06
-3.58598e-08
4.391e-06
-3.40718e-08
4.62207e-06
-3.13485e-08
4.87094e-06
-2.71155e-08
5.14165e-06
-2.03661e-08
5.43974e-06
-9.28094e-09
5.77245e-06
9.58213e-09
6.14892e-06
4.31149e-08
6.58015e-06
1.05949e-07
7.07855e-06
2.316e-07
7.64884e-06
5.08879e-07
8.19294e-06
1.20375e-06
7.87774e-06
-4.43609e-07
1.25955e-06
-1.44592e-06
8.70953e-07
-5.59515e-07
8.39351e-06
-2.46326e-07
1.04484e-05
-1.29416e-07
1.08986e-05
-8.09894e-08
1.11625e-05
-6.0098e-08
1.15101e-05
-5.09589e-08
1.19365e-05
-4.6977e-08
1.24086e-05
-4.50434e-08
1.28929e-05
-4.34151e-08
1.33677e-05
-4.14792e-08
1.38624e-05
-3.9689e-08
1.44828e-05
-3.90033e-08
1.78668e-05
-4.06328e-08
1.80831e-05
-4.31338e-08
1.81084e-05
-4.305e-08
1.77698e-05
-4.02057e-08
1.71257e-05
-3.70082e-08
1.68907e-05
-3.28963e-08
1.75592e-05
-3.28774e-08
1.83288e-05
-3.5063e-08
1.87829e-05
-3.69888e-08
1.90117e-05
-3.83282e-08
1.91353e-05
-3.9433e-08
1.92067e-05
-4.14843e-08
1.92412e-05
-4.18865e-08
1.9194e-05
-2.46734e-08
1.87763e-05
4.16764e-08
1.60291e-05
-1.23907e-07
1.11075e-05
-5.96143e-08
1.59544e-05
-4.30837e-08
1.85858e-05
1.88619e-05
-3.48317e-08
3.42626e-06
-3.42349e-08
3.59714e-06
-3.301e-08
3.77813e-06
-3.10324e-08
3.96941e-06
-2.80676e-08
4.17183e-06
-2.37459e-08
4.38668e-06
-1.74905e-08
4.61582e-06
-8.39747e-09
4.86185e-06
4.96323e-09
5.1283e-06
2.48737e-08
5.41984e-06
5.50164e-08
5.74232e-06
1.01384e-07
6.10255e-06
1.73745e-07
6.50779e-06
2.8779e-07
6.9645e-06
4.67242e-07
7.46939e-06
7.4536e-07
7.91483e-06
1.16389e-06
7.45921e-06
-1.44296e-07
2.56774e-06
-1.25725e-06
1.9839e-06
-7.15202e-07
7.85146e-06
-4.29519e-07
1.01627e-05
-2.52449e-07
1.07215e-05
-1.5312e-07
1.10631e-05
-1.00511e-07
1.14575e-05
-7.34622e-08
1.19094e-05
-5.98077e-08
1.2395e-05
-5.24635e-08
1.28856e-05
-4.73271e-08
1.33625e-05
-4.28772e-08
1.38579e-05
-3.9416e-08
1.44793e-05
-3.80618e-08
1.78655e-05
-4.08777e-08
1.80859e-05
-4.48398e-08
1.81123e-05
-4.36676e-08
1.77686e-05
-3.80217e-08
1.712e-05
-3.18815e-08
1.68846e-05
-2.34596e-08
1.75508e-05
-2.20693e-08
1.83274e-05
-2.59854e-08
1.87868e-05
-3.04672e-08
1.90162e-05
-3.40074e-08
1.91388e-05
-3.65022e-08
1.92092e-05
-3.97516e-08
1.92445e-05
-3.69769e-08
1.91913e-05
3.24495e-09
1.8736e-05
8.25566e-08
1.59498e-05
-1.68335e-07
1.13584e-05
-9.41008e-08
1.58802e-05
-5.63887e-08
1.85481e-05
1.88586e-05
-3.37894e-08
3.42597e-06
-3.28399e-08
3.59619e-06
-3.10159e-08
3.77631e-06
-2.81077e-08
3.9665e-06
-2.38084e-08
4.16752e-06
-1.76633e-08
4.38053e-06
-9.0002e-09
4.60716e-06
3.17331e-09
4.84967e-06
2.03218e-08
5.11114e-06
4.45937e-08
5.39556e-06
7.91022e-08
5.70781e-06
1.28255e-07
6.0534e-06
1.98106e-07
6.43793e-06
2.97058e-07
6.86555e-06
4.39917e-07
7.32653e-06
6.63953e-07
7.6908e-06
1.00686e-06
7.1163e-06
-2.43954e-09
3.57704e-06
-1.00432e-06
2.98579e-06
-6.37583e-07
7.48471e-06
-3.9724e-07
9.92234e-06
-2.59598e-07
1.05839e-05
-1.72316e-07
1.09758e-05
-1.17471e-07
1.14027e-05
-8.50682e-08
1.1877e-05
-6.69678e-08
1.23769e-05
-5.65039e-08
1.28751e-05
-4.91419e-08
1.33552e-05
-4.31316e-08
1.38519e-05
-3.87317e-08
1.44749e-05
-3.70915e-08
1.78638e-05
-4.05105e-08
1.80893e-05
-4.4912e-08
1.81167e-05
-4.26813e-08
1.77664e-05
-3.53242e-08
1.71127e-05
-2.75666e-08
1.68768e-05
-1.63827e-08
1.75396e-05
-1.37564e-08
1.83248e-05
-1.85674e-08
1.87916e-05
-2.47266e-08
1.90223e-05
-2.99101e-08
1.9144e-05
-3.3484e-08
1.92128e-05
-3.69143e-08
1.92479e-05
-3.47739e-08
1.91891e-05
1.92451e-08
1.8682e-05
9.96876e-08
1.58693e-05
-1.87561e-07
1.16456e-05
-1.15923e-07
1.58085e-05
-6.57544e-08
1.84979e-05
1.88551e-05
-3.79584e-08
3.42555e-06
-3.69483e-08
3.59518e-06
-3.50771e-08
3.77443e-06
-3.21259e-08
3.96355e-06
-2.78253e-08
4.16322e-06
-2.17987e-08
4.3745e-06
-1.35112e-08
4.59887e-06
-2.21633e-09
4.83838e-06
1.31247e-08
5.09581e-06
3.39492e-08
5.37474e-06
6.22364e-08
5.67952e-06
1.00731e-07
6.0149e-06
1.53341e-07
6.38532e-06
2.26392e-07
6.7925e-06
3.35206e-07
7.21772e-06
5.22273e-07
7.50373e-06
7.57167e-07
6.8814e-06
6.5449e-08
4.26876e-06
-7.4287e-07
3.7941e-06
-5.27751e-07
7.2696e-06
-3.11463e-07
9.70605e-06
-2.08501e-07
1.04809e-05
-1.47807e-07
1.09152e-05
-1.07379e-07
1.13622e-05
-8.15816e-08
1.18512e-05
-6.60466e-08
1.23613e-05
-5.62173e-08
1.28653e-05
-4.86122e-08
1.33476e-05
-4.20666e-08
1.38454e-05
-3.7251e-08
1.44701e-05
-3.56105e-08
1.78622e-05
-3.96551e-08
1.80934e-05
-4.45332e-08
1.81216e-05
-4.13742e-08
1.77632e-05
-3.26312e-08
1.71039e-05
-2.35429e-08
1.68677e-05
-1.02526e-08
1.75263e-05
-6.66582e-09
1.83212e-05
-1.22862e-08
1.87972e-05
-1.98719e-08
1.90299e-05
-2.64605e-08
1.91506e-05
-3.12853e-08
1.92176e-05
-3.58954e-08
1.92525e-05
-3.58287e-08
1.91891e-05
2.67611e-08
1.86194e-05
1.03453e-07
1.57927e-05
-1.9245e-07
1.19415e-05
-1.28972e-07
1.5745e-05
-7.17453e-08
1.84407e-05
1.88526e-05
-4.83366e-08
3.42513e-06
-4.75153e-08
3.59436e-06
-4.6022e-08
3.77294e-06
-4.36801e-08
3.96121e-06
-4.02936e-08
4.15984e-06
-3.56007e-08
4.36981e-06
-2.9245e-08
4.59251e-06
-2.07258e-08
4.82986e-06
-9.34691e-09
5.08443e-06
5.85755e-09
5.35954e-06
2.62559e-08
5.65912e-06
5.38612e-08
5.98728e-06
9.17673e-08
6.34742e-06
1.45594e-07
6.73868e-06
2.30471e-07
7.13285e-06
3.83623e-07
7.35059e-06
5.41725e-07
6.72331e-06
7.61891e-08
4.73428e-06
-5.34029e-07
4.40431e-06
-4.30159e-07
7.16574e-06
-2.36584e-07
9.51248e-06
-1.52156e-07
1.03965e-05
-1.09651e-07
1.08726e-05
-8.32962e-08
1.13359e-05
-6.72035e-08
1.18351e-05
-5.76583e-08
1.23518e-05
-5.11381e-08
1.28588e-05
-4.51618e-08
1.33416e-05
-3.92874e-08
1.38395e-05
-3.48155e-08
1.44657e-05
-3.36169e-08
1.7861e-05
-3.83443e-08
1.80981e-05
-4.36045e-08
1.81269e-05
-3.98342e-08
1.77594e-05
-3.00604e-08
1.70942e-05
-1.97512e-08
1.68574e-05
-5.13417e-09
1.75117e-05
-8.23003e-10
1.83169e-05
-7.04737e-09
1.88034e-05
-1.58693e-08
1.90387e-05
-2.37926e-08
1.91585e-05
-3.01101e-08
1.92239e-05
-3.6104e-08
1.92585e-05
-3.745e-08
1.91904e-05
2.86788e-08
1.85533e-05
9.42883e-08
1.5727e-05
-1.85774e-07
1.22216e-05
-1.36268e-07
1.56955e-05
-7.67829e-08
1.83812e-05
1.88504e-05
-6.28633e-08
3.4248e-06
-6.22866e-08
3.59378e-06
-6.12714e-08
3.77192e-06
-5.96734e-08
3.95961e-06
-5.73534e-08
4.15752e-06
-5.41382e-08
4.36659e-06
-4.97835e-08
4.58816e-06
-4.39414e-08
4.82402e-06
-3.61168e-08
5.07661e-06
-2.55958e-08
5.34902e-06
-1.13352e-08
5.64486e-06
8.20879e-09
5.96775e-06
3.55648e-08
6.32006e-06
7.62378e-08
6.698e-06
1.46173e-07
7.06292e-06
2.76857e-07
7.21989e-06
3.89789e-07
6.61037e-06
5.8239e-08
5.06584e-06
-3.9982e-07
4.86237e-06
-3.52926e-07
7.11885e-06
-1.79399e-07
9.33896e-06
-1.04559e-07
1.03217e-05
-7.3912e-08
1.0842e-05
-5.78776e-08
1.13198e-05
-4.98048e-08
1.1827e-05
-4.5986e-08
1.2348e-05
-4.33068e-08
1.28561e-05
-3.96998e-08
1.3338e-05
-3.53024e-08
1.38351e-05
-3.16798e-08
1.4462e-05
-3.12268e-08
1.78605e-05
-3.66139e-08
1.81035e-05
-4.21809e-08
1.81324e-05
-3.82281e-08
1.77555e-05
-2.77581e-08
1.70837e-05
-1.63917e-08
1.68461e-05
-9.62303e-10
1.74963e-05
3.83125e-09
1.83121e-05
-2.83353e-09
1.88101e-05
-1.27007e-08
1.90486e-05
-2.18661e-08
1.91677e-05
-2.97333e-08
1.92318e-05
-3.69222e-08
1.92657e-05
-3.85965e-08
1.91921e-05
2.66906e-08
1.8488e-05
7.93449e-08
1.56744e-05
-1.75497e-07
1.24764e-05
-1.39202e-07
1.56592e-05
-8.12586e-08
1.83233e-05
1.88478e-05
-7.89414e-08
3.42457e-06
-7.85772e-08
3.59342e-06
-7.79494e-08
3.7713e-06
-7.69576e-08
3.95862e-06
-7.55047e-08
4.15606e-06
-7.34662e-08
4.36455e-06
-7.06636e-08
4.58535e-06
-6.68422e-08
4.8202e-06
-6.16423e-08
5.07141e-06
-5.45391e-08
5.34191e-06
-4.4719e-08
5.63502e-06
-3.08761e-08
5.95391e-06
-1.06674e-08
6.29986e-06
2.20702e-08
6.66526e-06
8.43982e-08
7.0006e-06
1.9982e-07
7.10447e-06
2.81943e-07
6.52825e-06
3.33702e-08
5.31442e-06
-3.14641e-07
5.21037e-06
-2.94206e-07
7.09841e-06
-1.3793e-07
9.18269e-06
-6.66193e-08
1.02504e-05
-4.33299e-08
1.08187e-05
-3.53741e-08
1.13119e-05
-3.35101e-08
1.18252e-05
-3.4251e-08
1.23487e-05
-3.49728e-08
1.28568e-05
-3.38029e-08
1.33368e-05
-3.09005e-08
1.38322e-05
-2.82424e-08
1.44594e-05
-2.8606e-08
1.78609e-05
-3.46154e-08
1.81095e-05
-4.04983e-08
1.81383e-05
-3.66388e-08
1.77516e-05
-2.58253e-08
1.70729e-05
-1.35367e-08
1.68338e-05
2.45444e-09
1.74803e-05
7.53386e-09
1.8307e-05
4.86329e-10
1.88171e-05
-1.03043e-08
1.90594e-05
-2.06125e-08
1.9178e-05
-3.00181e-08
1.92412e-05
-3.85233e-08
1.92742e-05
-3.9709e-08
1.91933e-05
2.24416e-08
1.84259e-05
6.32821e-08
1.56336e-05
-1.6553e-07
1.27053e-05
-1.39411e-07
1.56331e-05
-8.47671e-08
1.82686e-05
1.88448e-05
-9.43746e-08
3.42442e-06
-9.41658e-08
3.59321e-06
-9.38189e-08
3.77096e-06
-9.32621e-08
3.95807e-06
-9.24266e-08
4.15523e-06
-9.12249e-08
4.36335e-06
-8.95271e-08
4.58365e-06
-8.71396e-08
4.81782e-06
-8.37742e-08
5.06806e-06
-7.89898e-08
5.33713e-06
-7.20773e-08
5.62811e-06
-6.18085e-08
5.94364e-06
-4.55658e-08
6.28361e-06
-1.63087e-08
6.63599e-06
4.26661e-08
6.94163e-06
1.44992e-07
7.00214e-06
2.03377e-07
6.46986e-06
1.09048e-08
5.50689e-06
-2.56485e-07
5.47776e-06
-2.49805e-07
7.09173e-06
-1.10443e-07
9.04333e-06
-3.99837e-08
1.01799e-05
-2.00919e-08
1.07988e-05
-1.71666e-08
1.1309e-05
-1.97723e-08
1.18278e-05
-2.40463e-08
1.2353e-05
-2.74641e-08
1.28603e-05
-2.82601e-08
1.33376e-05
-2.67167e-08
1.38307e-05
-2.49213e-08
1.44576e-05
-2.60143e-08
1.7862e-05
-3.26024e-08
1.81161e-05
-3.88821e-08
1.81446e-05
-3.53069e-08
1.77481e-05
-2.4328e-08
1.70619e-05
-1.1204e-08
1.68206e-05
5.26124e-09
1.74638e-05
1.05191e-08
1.83018e-05
3.08707e-09
1.88246e-05
-8.5846e-09
1.90711e-05
-1.99767e-08
1.91894e-05
-3.08594e-08
1.92521e-05
-4.05387e-08
1.92839e-05
-4.1289e-08
1.9194e-05
1.70267e-08
1.83675e-05
4.77701e-08
1.56028e-05
-1.56578e-07
1.29096e-05
-1.38099e-07
1.56146e-05
-8.71251e-08
1.82177e-05
1.88415e-05
-1.07809e-07
3.42432e-06
-1.07698e-07
3.5931e-06
-1.07526e-07
3.77079e-06
-1.07245e-07
3.95778e-06
-1.06799e-07
4.15478e-06
-1.06113e-07
4.36265e-06
-1.05074e-07
4.58261e-06
-1.03513e-07
4.81626e-06
-1.01171e-07
5.06571e-06
-9.76177e-08
5.33357e-06
-9.21107e-08
5.6226e-06
-8.33137e-08
5.93485e-06
-6.83238e-08
6.26863e-06
-3.97718e-08
6.60745e-06
1.72984e-08
6.88457e-06
1.07084e-07
6.91234e-06
1.47094e-07
6.42983e-06
-5.53344e-09
5.65952e-06
-2.14059e-07
5.6863e-06
-2.16224e-07
7.0939e-06
-9.42087e-08
8.92131e-06
-2.34093e-08
1.01091e-05
-4.18721e-09
1.07796e-05
-4.00061e-09
1.13088e-05
-9.39557e-09
1.18332e-05
-1.60727e-08
1.23597e-05
-2.14504e-08
1.28656e-05
-2.37413e-08
1.33399e-05
-2.32245e-08
1.38301e-05
-2.20773e-08
1.44564e-05
-2.37375e-08
1.78636e-05
-3.08247e-08
1.81232e-05
-3.7506e-08
1.81513e-05
-3.43029e-08
1.77449e-05
-2.32683e-08
1.70509e-05
-9.41628e-09
1.68068e-05
7.49737e-09
1.74469e-05
1.29099e-08
1.82964e-05
5.08937e-09
1.88324e-05
-7.45602e-09
1.90836e-05
-1.99213e-08
1.92019e-05
-3.22096e-08
1.92644e-05
-4.34834e-08
1.92952e-05
-4.34254e-08
1.91939e-05
1.09838e-08
1.83131e-05
3.35725e-08
1.55802e-05
-1.48533e-07
1.30917e-05
-1.35876e-07
1.5602e-05
-8.84403e-08
1.81702e-05
1.88384e-05
-1.18389e-07
3.42425e-06
-1.18316e-07
3.59303e-06
-1.18212e-07
3.77069e-06
-1.18037e-07
3.95761e-06
-1.17742e-07
4.15448e-06
-1.17245e-07
4.36216e-06
-1.16433e-07
4.58181e-06
-1.15133e-07
4.81497e-06
-1.13075e-07
5.06366e-06
-1.09803e-07
5.33028e-06
-1.04531e-07
5.61732e-06
-9.5813e-08
5.92614e-06
-8.05044e-08
6.25332e-06
-5.12976e-08
6.57823e-06
3.95881e-09
6.82932e-06
8.18465e-08
6.83446e-06
1.08068e-07
6.40361e-06
-1.56403e-08
5.78323e-06
-1.81989e-07
5.85265e-06
-1.91302e-07
7.10321e-06
-8.68135e-08
8.81682e-06
-1.67066e-08
1.0039e-05
3.89275e-09
1.0759e-05
3.53423e-09
1.13091e-05
-3.00764e-09
1.18397e-05
-1.092e-08
1.23676e-05
-1.74105e-08
1.28721e-05
-2.0602e-08
1.33431e-05
-2.07218e-08
1.38303e-05
-1.99687e-08
1.44557e-05
-2.20027e-08
1.78657e-05
-2.94767e-08
1.81306e-05
-3.65108e-08
1.81583e-05
-3.36539e-08
1.7742e-05
-2.26091e-08
1.70398e-05
-8.15669e-09
1.67923e-05
9.17373e-09
1.74296e-05
1.47508e-08
1.82908e-05
6.55216e-09
1.88406e-05
-6.85524e-09
1.9097e-05
-2.03976e-08
1.92154e-05
-3.39665e-08
1.9278e-05
-4.67314e-08
1.93079e-05
-4.57013e-08
1.91929e-05
4.66276e-09
1.82628e-05
2.11598e-08
1.55637e-05
-1.41197e-07
1.32541e-05
-1.33085e-07
1.55939e-05
-8.89916e-08
1.81261e-05
1.88356e-05
-1.25773e-07
3.42418e-06
-1.25695e-07
3.59295e-06
-1.25573e-07
3.77057e-06
-1.25369e-07
3.95741e-06
-1.25033e-07
4.15413e-06
-1.24481e-07
4.36159e-06
-1.23583e-07
4.58091e-06
-1.2215e-07
4.81355e-06
-1.19892e-07
5.06141e-06
-1.16329e-07
5.32672e-06
-1.10631e-07
5.61162e-06
-1.01248e-07
5.91676e-06
-8.48976e-08
6.23696e-06
-5.47192e-08
6.54805e-06
-1.69132e-09
6.77629e-06
6.53005e-08
6.76747e-06
8.15343e-08
6.38738e-06
-2.10682e-08
5.88583e-06
-1.57727e-07
5.98931e-06
-1.73411e-07
7.1189e-06
-8.57696e-08
8.72918e-06
-1.74966e-08
9.97072e-06
5.27936e-09
1.07362e-05
5.86786e-09
1.13085e-05
-5.82317e-10
1.18462e-05
-8.72299e-09
1.23757e-05
-1.55284e-08
1.28789e-05
-1.90278e-08
1.33466e-05
-1.93654e-08
1.38306e-05
-1.87375e-08
1.4455e-05
-2.09496e-08
1.78679e-05
-2.86918e-08
1.81384e-05
-3.59953e-08
1.81656e-05
-3.33884e-08
1.77394e-05
-2.23019e-08
1.70287e-05
-7.35776e-09
1.67774e-05
1.0326e-08
1.74119e-05
1.60652e-08
1.82851e-05
7.50497e-09
1.88492e-05
-6.73716e-09
1.91113e-05
-2.13391e-08
1.923e-05
-3.61375e-08
1.92928e-05
-5.01634e-08
1.93219e-05
-4.88603e-08
1.91916e-05
-1.77919e-09
1.82157e-05
1.05977e-08
1.55513e-05
-1.34443e-07
1.33991e-05
-1.30043e-07
1.55895e-05
-8.91531e-08
1.80853e-05
1.88334e-05
-1.3023e-07
3.42411e-06
-1.30113e-07
3.59284e-06
-1.29925e-07
3.77037e-06
-1.29618e-07
3.9571e-06
-1.29121e-07
4.15364e-06
-1.28348e-07
4.36083e-06
-1.27176e-07
4.57974e-06
-1.25409e-07
4.81178e-06
-1.2273e-07
5.05872e-06
-1.18629e-07
5.32261e-06
-1.12235e-07
5.60522e-06
-1.01927e-07
5.90646e-06
-8.44108e-08
6.21946e-06
-5.35418e-08
6.51718e-06
-3.27079e-09
6.72601e-06
5.40425e-08
6.71016e-06
6.31019e-08
6.37832e-06
-2.41205e-08
5.97305e-06
-1.39922e-07
6.10511e-06
-1.61078e-07
7.14005e-06
-8.88154e-08
8.65692e-06
-2.33837e-08
9.90528e-06
1.74222e-09
1.07111e-05
4.09281e-09
1.13062e-05
-1.49838e-09
1.18518e-05
-9.17489e-09
1.23834e-05
-1.56926e-08
1.28854e-05
-1.89992e-08
1.33499e-05
-1.91742e-08
1.38308e-05
-1.84224e-08
1.44543e-05
-2.06433e-08
1.78701e-05
-2.85532e-08
1.81463e-05
-3.6029e-08
1.81731e-05
-3.35269e-08
1.77369e-05
-2.23025e-08
1.70175e-05
-6.93958e-09
1.6762e-05
1.10041e-08
1.7394e-05
1.68729e-08
1.82792e-05
7.96553e-09
1.88581e-05
-7.08505e-09
1.91263e-05
-2.27098e-08
1.92456e-05
-3.89501e-08
1.9309e-05
-5.39441e-08
1.93369e-05
-5.27382e-08
1.91904e-05
-8.23942e-09
1.81712e-05
1.61615e-09
1.55415e-05
-1.28329e-07
1.35291e-05
-1.27091e-07
1.55882e-05
-8.93149e-08
1.80475e-05
1.88318e-05
-1.32277e-07
3.42401e-06
-1.32101e-07
3.59267e-06
-1.31806e-07
3.77009e-06
-1.31353e-07
3.95664e-06
-1.30666e-07
4.15294e-06
-1.29642e-07
4.35981e-06
-1.28145e-07
4.57825e-06
-1.25966e-07
4.8096e-06
-1.22782e-07
5.05554e-06
-1.18076e-07
5.3179e-06
-1.10963e-07
5.59811e-06
-9.97893e-08
5.89529e-06
-8.13465e-08
6.20102e-06
-5.03417e-08
6.48617e-06
-3.28874e-09
6.67895e-06
4.55417e-08
6.66132e-06
4.92891e-08
6.37458e-06
-2.67093e-08
6.04905e-06
-1.27482e-07
6.20589e-06
-1.52822e-07
7.16539e-06
-9.39362e-08
8.59803e-06
-3.21132e-08
9.84346e-06
-4.94767e-09
1.06839e-05
-5.47568e-10
1.13018e-05
-4.90624e-09
1.18561e-05
-1.17321e-08
1.23902e-05
-1.75819e-08
1.28913e-05
-2.03386e-08
1.33526e-05
-2.0057e-08
1.38305e-05
-1.89845e-08
1.44532e-05
-2.10881e-08
1.78722e-05
-2.9089e-08
1.81543e-05
-3.66399e-08
1.81806e-05
-3.4077e-08
1.77343e-05
-2.25909e-08
1.7006e-05
-6.85015e-09
1.67463e-05
1.12506e-08
1.73759e-05
1.71928e-08
1.82732e-05
7.95155e-09
1.88673e-05
-7.8759e-09
1.91422e-05
-2.44434e-08
1.92622e-05
-4.17402e-08
1.93263e-05
-5.80442e-08
1.93532e-05
-5.71851e-08
1.91895e-05
-1.46878e-08
1.81287e-05
-6.29505e-09
1.55331e-05
-1.23047e-07
1.36458e-05
-1.24548e-07
1.55897e-05
-8.97877e-08
1.80127e-05
1.88306e-05
-1.3241e-07
3.42389e-06
-1.32191e-07
3.59244e-06
-1.31812e-07
3.7697e-06
-1.31208e-07
3.95604e-06
-1.30314e-07
4.15206e-06
-1.29041e-07
4.35853e-06
-1.27241e-07
4.57644e-06
-1.24689e-07
4.80705e-06
-1.21052e-07
5.05191e-06
-1.15817e-07
5.31267e-06
-1.08102e-07
5.59039e-06
-9.62616e-08
5.88345e-06
-7.72566e-08
6.18201e-06
-4.66785e-08
6.45559e-06
-3.17787e-09
6.63544e-06
3.82103e-08
6.61994e-06
3.78209e-08
6.37497e-06
-2.98343e-08
6.11672e-06
-1.19194e-07
6.29525e-06
-1.47226e-07
7.19342e-06
-9.95544e-08
8.55035e-06
-4.18867e-08
9.78579e-06
-1.32794e-08
1.06553e-05
-6.93175e-09
1.12954e-05
-9.98134e-09
1.18592e-05
-1.58135e-08
1.23961e-05
-2.08072e-08
1.28963e-05
-2.28011e-08
1.33546e-05
-2.1869e-08
1.38295e-05
-2.03406e-08
1.44517e-05
-2.22417e-08
1.78741e-05
-3.02789e-08
1.81623e-05
-3.78154e-08
1.81882e-05
-3.50457e-08
1.77316e-05
-2.31852e-08
1.69942e-05
-7.08392e-09
1.67302e-05
1.10944e-08
1.73577e-05
1.70519e-08
1.82673e-05
7.48658e-09
1.88769e-05
-9.07418e-09
1.91587e-05
-2.65911e-08
1.92797e-05
-4.48984e-08
1.93446e-05
-6.25171e-08
1.93709e-05
-6.20565e-08
1.91891e-05
-2.11339e-08
1.80878e-05
-1.3692e-08
1.55257e-05
-1.18837e-07
1.3751e-05
-1.22634e-07
1.55935e-05
-9.0736e-08
1.79808e-05
1.88299e-05
-1.31171e-07
3.42374e-06
-1.30894e-07
3.59216e-06
-1.30439e-07
3.76923e-06
-1.29715e-07
3.95532e-06
-1.28653e-07
4.15101e-06
-1.27167e-07
4.35705e-06
-1.25112e-07
4.57437e-06
-1.22261e-07
4.80419e-06
-1.1828e-07
5.04793e-06
-1.12656e-07
5.30705e-06
-1.04513e-07
5.58225e-06
-9.2248e-08
5.87118e-06
-7.306e-08
6.16282e-06
-4.34176e-08
6.42595e-06
-3.59914e-09
6.59563e-06
3.12548e-08
6.58509e-06
2.75477e-08
6.37868e-06
-3.3635e-08
6.17789e-06
-1.13771e-07
6.37538e-06
-1.43106e-07
7.22275e-06
-1.04611e-07
8.51186e-06
-5.13986e-08
9.73258e-06
-2.20797e-08
1.0626e-05
-1.41433e-08
1.12875e-05
-1.60227e-08
1.18611e-05
-2.08988e-08
1.24009e-05
-2.4999e-08
1.29004e-05
-2.61418e-08
1.33558e-05
-2.44585e-08
1.38279e-05
-2.23932e-08
1.44496e-05
-2.40312e-08
1.78757e-05
-3.20583e-08
1.81704e-05
-3.95076e-08
1.81956e-05
-3.64288e-08
1.77285e-05
-2.41342e-08
1.69819e-05
-7.67667e-09
1.67137e-05
1.0551e-08
1.73394e-05
1.64903e-08
1.82614e-05
6.6012e-09
1.88868e-05
-1.06652e-08
1.9176e-05
-2.91563e-08
1.92982e-05
-4.85825e-08
1.9364e-05
-6.73635e-08
1.93896e-05
-6.72236e-08
1.91889e-05
-2.75958e-08
1.80481e-05
-2.0946e-08
1.5519e-05
-1.15841e-07
1.38459e-05
-1.21422e-07
1.55991e-05
-9.21682e-08
1.79516e-05
1.88294e-05
-1.2902e-07
3.42357e-06
-1.28705e-07
3.59185e-06
-1.28169e-07
3.7687e-06
-1.27352e-07
3.95451e-06
-1.2618e-07
4.14984e-06
-1.24546e-07
4.35541e-06
-1.22298e-07
4.57212e-06
-1.19221e-07
4.80111e-06
-1.14992e-07
5.04371e-06
-1.09104e-07
5.30117e-06
-1.00694e-07
5.57384e-06
-8.82175e-08
5.8587e-06
-6.91483e-08
6.14375e-06
-4.0775e-08
6.39758e-06
-4.66158e-09
6.55952e-06
2.4464e-08
6.55597e-06
1.81186e-08
6.38502e-06
-3.775e-08
6.23376e-06
-1.10063e-07
6.44769e-06
-1.39636e-07
7.25232e-06
-1.08578e-07
8.4808e-06
-5.98991e-08
9.6839e-06
-3.05776e-08
1.05967e-05
-2.15215e-08
1.12785e-05
-2.24887e-08
1.1862e-05
-2.65611e-08
1.2405e-05
-2.98401e-08
1.29037e-05
-3.01414e-08
1.33561e-05
-2.76857e-08
1.38254e-05
-2.50467e-08
1.4447e-05
-2.6372e-08
1.78771e-05
-3.43403e-08
1.81783e-05
-4.16488e-08
1.82029e-05
-3.82236e-08
1.7725e-05
-2.54938e-08
1.69691e-05
-8.68062e-09
1.66969e-05
9.62536e-09
1.73211e-05
1.55582e-08
1.82554e-05
5.34868e-09
1.8897e-05
-1.26066e-08
1.91939e-05
-3.20541e-08
1.93177e-05
-5.25982e-08
1.93846e-05
-7.24533e-08
1.94095e-05
-7.25561e-08
1.9189e-05
-3.40046e-08
1.80096e-05
-2.82316e-08
1.55132e-05
-1.13968e-07
1.39316e-05
-1.20837e-07
1.5606e-05
-9.39833e-08
1.79247e-05
1.88293e-05
-1.26351e-07
3.42338e-06
-1.26024e-07
3.5915e-06
-1.25431e-07
3.76812e-06
-1.24538e-07
3.95363e-06
-1.23279e-07
4.14857e-06
-1.21535e-07
4.35366e-06
-1.19155e-07
4.56974e-06
-1.15929e-07
4.79789e-06
-1.11546e-07
5.03933e-06
-1.05506e-07
5.29514e-06
-9.69587e-08
5.56529e-06
-8.44376e-08
5.84618e-06
-6.57124e-08
6.12502e-06
-3.88189e-08
6.37068e-06
-6.26918e-09
6.52697e-06
1.79115e-08
6.53178e-06
9.56442e-09
6.39337e-06
-4.17259e-08
6.28505e-06
-1.07241e-07
6.5132e-06
-1.36381e-07
7.28147e-06
-1.11381e-07
8.45581e-06
-6.71492e-08
9.63967e-06
-3.83977e-08
1.05679e-05
-2.86705e-08
1.12687e-05
-2.90108e-08
1.18624e-05
-3.24834e-08
1.24085e-05
-3.50695e-08
1.29062e-05
-3.46117e-08
1.33556e-05
-3.14238e-08
1.38222e-05
-2.82089e-08
1.44438e-05
-2.91792e-08
1.7878e-05
-3.7033e-08
1.81862e-05
-4.41647e-08
1.82101e-05
-4.0409e-08
1.77213e-05
-2.72955e-08
1.6956e-05
-1.01309e-08
1.66798e-05
8.32101e-09
1.73027e-05
1.43033e-08
1.82494e-05
3.79297e-09
1.89075e-05
-1.48393e-08
1.92126e-05
-3.52144e-08
1.9338e-05
-5.68767e-08
1.94062e-05
-7.76745e-08
1.94303e-05
-7.79206e-08
1.91893e-05
-4.01173e-08
1.79718e-05
-3.56329e-08
1.55088e-05
-1.12961e-07
1.40089e-05
-1.20734e-07
1.56138e-05
-9.60547e-08
1.79e-05
1.88295e-05
-1.23484e-07
3.42318e-06
-1.23125e-07
3.59114e-06
-1.2251e-07
3.76751e-06
-1.21579e-07
3.9527e-06
-1.20253e-07
4.14725e-06
-1.18424e-07
4.35184e-06
-1.15954e-07
4.56727e-06
-1.12644e-07
4.79457e-06
-1.08185e-07
5.03486e-06
-1.0208e-07
5.28902e-06
-9.34976e-08
5.55671e-06
-8.10578e-08
5.83374e-06
-6.28296e-08
6.1068e-06
-3.75067e-08
6.34536e-06
-8.27309e-09
6.49774e-06
1.17252e-08
6.51178e-06
1.97464e-09
6.40312e-06
-4.52452e-08
6.33227e-06
-1.04848e-07
6.57281e-06
-1.33235e-07
7.30986e-06
-1.13244e-07
8.43582e-06
-7.32596e-08
9.59969e-06
-4.54708e-08
1.05401e-05
-3.54226e-08
1.12587e-05
-3.53797e-08
1.18623e-05
-3.84447e-08
1.24115e-05
-4.04984e-08
1.29083e-05
-3.9399e-08
1.33545e-05
-3.55547e-08
1.38184e-05
-3.17875e-08
1.444e-05
-3.23716e-08
1.78786e-05
-4.00599e-08
1.81939e-05
-4.69909e-08
1.8217e-05
-4.29536e-08
1.77173e-05
-2.95292e-08
1.69426e-05
-1.20188e-08
1.66622e-05
6.6514e-09
1.7284e-05
1.27595e-08
1.82433e-05
1.98485e-09
1.89183e-05
-1.73152e-08
1.92319e-05
-3.8553e-08
1.93593e-05
-6.13415e-08
1.9429e-05
-8.29536e-08
1.94519e-05
-8.32841e-08
1.91896e-05
-4.70408e-08
1.79355e-05
-4.23789e-08
1.55041e-05
-1.12506e-07
1.4079e-05
-1.20967e-07
1.56222e-05
-9.83133e-08
1.78774e-05
1.88302e-05
-1.20631e-07
3.42298e-06
-1.20236e-07
3.59076e-06
-1.19611e-07
3.76687e-06
-1.18667e-07
3.95174e-06
-1.17309e-07
4.14589e-06
-1.15436e-07
4.34997e-06
-1.1292e-07
4.56477e-06
-1.09568e-07
4.79123e-06
-1.0508e-07
5.03036e-06
-9.89667e-08
5.2829e-06
-9.04218e-08
5.54816e-06
-7.81613e-08
5.82148e-06
-6.05385e-08
6.08918e-06
-3.68032e-08
6.32163e-06
-1.05796e-08
6.47152e-06
5.944e-09
6.49526e-06
-4.70042e-09
6.41376e-06
-4.82873e-08
6.37585e-06
-1.02762e-07
6.62728e-06
-1.303e-07
7.33739e-06
-1.14518e-07
8.42003e-06
-7.85104e-08
9.56368e-06
-5.19068e-08
1.05135e-05
-4.17673e-08
1.12485e-05
-4.15152e-08
1.18621e-05
-4.43354e-08
1.24144e-05
-4.60004e-08
1.291e-05
-4.43813e-08
1.33529e-05
-3.99682e-08
1.3814e-05
-3.56879e-08
1.44357e-05
-3.58744e-08
1.78788e-05
-4.33596e-08
1.82013e-05
-5.00826e-08
1.82237e-05
-4.58215e-08
1.7713e-05
-3.21442e-08
1.69289e-05
-1.42879e-08
1.66444e-05
4.6481e-09
1.72651e-05
1.09445e-08
1.8237e-05
-4.93966e-11
1.89292e-05
-2.00141e-08
1.92518e-05
-4.21519e-08
1.93814e-05
-6.59342e-08
1.94528e-05
-8.81994e-08
1.94742e-05
-8.83588e-08
1.91898e-05
-5.31143e-08
1.79003e-05
-4.86488e-08
1.54996e-05
-1.12443e-07
1.41428e-05
-1.21464e-07
1.56312e-05
-1.00799e-07
1.78567e-05
1.88314e-05
-1.17943e-07
3.42276e-06
-1.17546e-07
3.59037e-06
-1.16904e-07
3.76622e-06
-1.1594e-07
3.95076e-06
-1.14568e-07
4.14451e-06
-1.12689e-07
4.34809e-06
-1.10171e-07
4.56225e-06
-1.06821e-07
4.78788e-06
-1.02343e-07
5.02589e-06
-9.62646e-08
5.27683e-06
-8.7815e-08
5.53971e-06
-7.58114e-08
5.80948e-06
-5.88682e-08
6.07224e-06
-3.66899e-08
6.29945e-06
-1.31562e-08
6.44798e-06
5.11233e-10
6.48159e-06
-1.0647e-08
6.42492e-06
-5.09897e-08
6.4162e-06
-1.01039e-07
6.67733e-06
-1.27735e-07
7.36409e-06
-1.15529e-07
8.40783e-06
-8.31948e-08
9.53134e-06
-5.78743e-08
1.04882e-05
-4.77723e-08
1.12384e-05
-4.74143e-08
1.18617e-05
-5.01051e-08
1.24171e-05
-5.15023e-08
1.29114e-05
-4.94707e-08
1.33509e-05
-4.45654e-08
1.38091e-05
-3.98153e-08
1.4431e-05
-3.96158e-08
1.78786e-05
-4.6887e-08
1.82086e-05
-5.34177e-08
1.82302e-05
-4.89819e-08
1.77086e-05
-3.50711e-08
1.6915e-05
-1.68526e-08
1.66262e-05
2.35839e-09
1.72459e-05
8.8672e-09
1.82305e-05
-2.30648e-09
1.89404e-05
-2.29041e-08
1.92724e-05
-4.59085e-08
1.94044e-05
-7.06057e-08
1.94775e-05
-9.33814e-08
1.94969e-05
-9.32484e-08
1.91897e-05
-5.89959e-08
1.7866e-05
-5.46523e-08
1.54953e-05
-1.1268e-07
1.42009e-05
-1.22296e-07
1.56409e-05
-1.03656e-07
1.78381e-05
1.88331e-05
-1.15525e-07
3.42255e-06
-1.15143e-07
3.58998e-06
-1.14488e-07
3.76557e-06
-1.13504e-07
3.94979e-06
-1.12128e-07
4.14314e-06
-1.10263e-07
4.34622e-06
-1.07771e-07
4.55975e-06
-1.04457e-07
4.78456e-06
-1.0003e-07
5.02147e-06
-9.40342e-08
5.27084e-06
-8.57337e-08
5.53142e-06
-7.40468e-08
5.79779e-06
-5.78256e-08
6.05601e-06
-3.71406e-08
6.27876e-06
-1.59935e-08
6.42683e-06
-4.67374e-09
6.47027e-06
-1.61007e-08
6.43634e-06
-5.35523e-08
6.45365e-06
-9.97728e-08
6.72355e-06
-1.25655e-07
7.38997e-06
-1.16495e-07
8.39867e-06
-8.75221e-08
9.50237e-06
-6.35146e-08
1.04642e-05
-5.35205e-08
1.12284e-05
-5.31121e-08
1.18613e-05
-5.57503e-08
1.24197e-05
-5.69697e-08
1.29126e-05
-5.46054e-08
1.33485e-05
-4.92659e-08
1.38037e-05
-4.40854e-08
1.44258e-05
-4.35358e-08
1.78781e-05
-5.06196e-08
1.82157e-05
-5.69891e-08
1.82366e-05
-5.24056e-08
1.7704e-05
-3.8268e-08
1.69009e-05
-1.96299e-08
1.66075e-05
-1.68709e-10
1.72264e-05
6.53836e-09
1.82238e-05
-4.79079e-09
1.89517e-05
-2.59775e-08
1.92936e-05
-4.97968e-08
1.94282e-05
-7.53577e-08
1.9503e-05
-9.85367e-08
1.95201e-05
-9.8055e-08
1.91892e-05
-6.46633e-08
1.78327e-05
-6.03047e-08
1.54909e-05
-1.132e-07
1.42538e-05
-1.2358e-07
1.56512e-05
-1.07057e-07
1.78216e-05
1.88353e-05
-1.13443e-07
3.42234e-06
-1.13064e-07
3.5896e-06
-1.12413e-07
3.76493e-06
-1.11439e-07
3.94883e-06
-1.10079e-07
4.14179e-06
-1.08237e-07
4.34438e-06
-1.05781e-07
4.55729e-06
-1.02521e-07
4.7813e-06
-9.8176e-08
5.01712e-06
-9.22992e-08
5.26496e-06
-8.41894e-08
5.52331e-06
-7.28589e-08
5.78646e-06
-5.73744e-08
6.04052e-06
-3.81005e-08
6.25948e-06
-1.90695e-08
6.4078e-06
-9.70187e-09
6.4609e-06
-2.12416e-08
6.44789e-06
-5.61232e-08
6.48854e-06
-9.89988e-08
6.76643e-06
-1.24079e-07
7.41505e-06
-1.175e-07
8.39209e-06
-9.15907e-08
9.47646e-06
-6.89034e-08
1.04415e-05
-5.90714e-08
1.12186e-05
-5.86481e-08
1.18609e-05
-6.12854e-08
1.24223e-05
-6.23903e-08
1.29137e-05
-5.97464e-08
1.33459e-05
-5.40099e-08
1.3798e-05
-4.8435e-08
1.44202e-05
-4.75892e-08
1.78772e-05
-5.45371e-08
1.82226e-05
-6.07886e-08
1.82429e-05
-5.60596e-08
1.76993e-05
-4.16074e-08
1.68864e-05
-2.25616e-08
1.65885e-05
-2.89172e-09
1.72067e-05
3.97064e-09
1.8217e-05
-7.50798e-09
1.89632e-05
-2.92491e-08
1.93153e-05
-5.38551e-08
1.94528e-05
-8.02296e-08
1.95294e-05
-1.03733e-07
1.95436e-05
-1.0288e-07
1.91883e-05
-7.02167e-08
1.78e-05
-6.5704e-08
1.54864e-05
-1.14066e-07
1.43021e-05
-1.2541e-07
1.56626e-05
-1.11134e-07
1.78073e-05
1.8838e-05
-1.11755e-07
3.42213e-06
-1.11372e-07
3.58922e-06
-1.1074e-07
3.7643e-06
-1.09795e-07
3.94788e-06
-1.08464e-07
4.14045e-06
-1.06654e-07
4.34257e-06
-1.04241e-07
4.55488e-06
-1.01047e-07
4.77811e-06
-9.67977e-08
5.01287e-06
-9.10578e-08
5.25922e-06
-8.31568e-08
5.5154e-06
-7.22009e-08
5.7755e-06
-5.7446e-08
6.02577e-06
-3.94925e-08
6.24153e-06
-2.23416e-08
6.39065e-06
-1.46205e-08
6.45319e-06
-2.61647e-08
6.45943e-06
-5.87571e-08
6.52113e-06
-9.86774e-08
6.80635e-06
-1.2295e-07
7.43932e-06
-1.18542e-07
8.38768e-06
-9.54177e-08
9.45333e-06
-7.40565e-08
1.04202e-05
-6.44486e-08
1.1209e-05
-6.40476e-08
1.18605e-05
-6.67236e-08
1.2425e-05
-6.77592e-08
1.29147e-05
-6.48709e-08
1.3343e-05
-5.87616e-08
1.37919e-05
-5.28222e-08
1.44143e-05
-5.17371e-08
1.78761e-05
-5.86138e-08
1.82295e-05
-6.47945e-08
1.8249e-05
-5.99282e-08
1.76944e-05
-4.51407e-08
1.68716e-05
-2.56477e-08
1.6569e-05
-5.78566e-09
1.71869e-05
1.17881e-09
1.821e-05
-1.04569e-08
1.89749e-05
-3.27288e-08
1.93376e-05
-5.80987e-08
1.94782e-05
-8.5265e-08
1.95566e-05
-1.09052e-07
1.95674e-05
-1.07838e-07
1.91871e-05
-7.57746e-08
1.77679e-05
-7.09285e-08
1.54816e-05
-1.15326e-07
1.43465e-05
-1.2783e-07
1.56751e-05
-1.15952e-07
1.77954e-05
1.88412e-05
-1.10513e-07
3.42193e-06
-1.10137e-07
3.58884e-06
-1.0952e-07
3.76367e-06
-1.08596e-07
3.94695e-06
-1.07293e-07
4.13914e-06
-1.0552e-07
4.3408e-06
-1.0316e-07
4.55253e-06
-1.0004e-07
4.77499e-06
-9.58914e-08
5.00872e-06
-9.02905e-08
5.25362e-06
-8.26016e-08
5.50771e-06
-7.2019e-08
5.76492e-06
-5.79696e-08
6.01172e-06
-4.1241e-08
6.22481e-06
-2.57609e-08
6.37518e-06
-1.9437e-08
6.44686e-06
-3.09053e-08
6.4709e-06
-6.1447e-08
6.55167e-06
-9.8733e-08
6.84363e-06
-1.22191e-07
7.46278e-06
-1.19597e-07
8.38508e-06
-9.8995e-08
9.43273e-06
-7.89621e-08
1.04001e-05
-6.96503e-08
1.11997e-05
-6.93163e-08
1.18601e-05
-7.20672e-08
1.24278e-05
-7.30698e-08
1.29157e-05
-6.99649e-08
1.33399e-05
-6.35034e-08
1.37854e-05
-5.72254e-08
1.4408e-05
-5.59497e-08
1.78748e-05
-6.28151e-08
1.82364e-05
-6.89713e-08
1.82552e-05
-6.39797e-08
1.76894e-05
-4.88455e-08
1.68565e-05
-2.88989e-08
1.6549e-05
-8.84812e-09
1.71668e-05
-1.81921e-09
1.8203e-05
-1.36251e-08
1.89867e-05
-3.64169e-08
1.93604e-05
-6.25427e-08
1.95043e-05
-9.0501e-08
1.95846e-05
-1.14568e-07
1.95915e-05
-1.13021e-07
1.91856e-05
-8.14079e-08
1.77363e-05
-7.60383e-08
1.54762e-05
-1.16983e-07
1.43875e-05
-1.30828e-07
1.56889e-05
-1.21512e-07
1.77861e-05
1.88451e-05
-1.09736e-07
3.42172e-06
-1.09369e-07
3.58847e-06