/*--------------------------------*- C++ -*----------------------------------*\
  =========                 |
  \\      /  F ield         | OpenFOAM: The Open Source CFD Toolbox
   \\    /   O peration     | Website:  https://openfoam.org
    \\  /    A nd           | Version:  9
     \\/     M anipulation  |
\*---------------------------------------------------------------------------*/
FoamFile
{
    format      ascii;
    class       surfaceVectorField;
    location    "0.19";
    object      Uf;
}
// * * * * * * * * * * * * * * * * * * * * * * * * * * * * * * * * * * * * * //

dimensions      [0 1 -1 0 0 0 0];

internalField   nonuniform List<vector> 
9850
(
(0.000399297 0 0.0042413)
(0.000918388 0 0.00283543)
(0.000436609 0 0.00779992)
(0.000905581 0 0.00569666)
(0.000517676 0 0.0123775)
(0.00108121 0 0.00974631)
(0.000648673 0 0.0179503)
(0.00133232 0 0.0146801)
(0.000847624 0 0.0248701)
(0.00171974 0 0.0207059)
(0.00114527 0 0.033746)
(0.00229191 0 0.0282812)
(0.00159229 0 0.0454952)
(0.0031272 0 0.0381267)
(0.00227311 0 0.0614212)
(0.00434875 0 0.0512911)
(0.00333136 0 0.0832942)
(0.0061539 0 0.0692205)
(0.00501869 0 0.113413)
(0.00886144 0 0.0938045)
(0.00779 0 0.154652)
(0.0129992 0 0.127372)
(0.0125058 0 0.210561)
(0.0194585 0 0.172613)
(0.020889 0 0.285598)
(0.0297794 0 0.232447)
(0.0365976 0 0.384305)
(0.0466385 0 0.309673)
(0.0680103 0 0.495322)
(0.0744844 0 0.403133)
(0.13733 0 0.470418)
(0.124457 0 0.470677)
(0.311048 0 -1.19069)
(0.222299 0 0.198668)
(-0.100792 0 -2.80271)
(0.265296 0 -2.33662)
(-0.35137 0 -1.33085)
(-0.362512 0 -2.492)
(-0.129769 0 0.356948)
(-0.201201 0 -0.0312866)
(-0.0514711 0 0.523981)
(-0.101829 0 0.48427)
(-0.0222437 0 0.446274)
(-0.0505361 0 0.465922)
(-0.0101371 0 0.369883)
(-0.0265077 0 0.389024)
(-0.00491426 0 0.320757)
(-0.0136924 0 0.33498)
(-0.0026295 0 0.287359)
(-0.00729851 0 0.299432)
(-0.00163402 0 0.258314)
(-0.00416762 0 0.2717)
(-0.00115062 0 0.226058)
(-0.00261243 0 0.242681)
(-0.000743534 0 0.191316)
(-0.00167145 0 0.20754)
(-0.000259565 0 0.167961)
(-0.000847524 0 0.173346)
(0.000187969 0 0.172471)
(-5.98598e-05 0 0.161448)
(0.000359396 0 0.203395)
(0.000476795 0 0.185246)
(-4.79624e-05 0 0.223365)
(0.00032505 0 0.221292)
(-0.000673219 0 0.197333)
(-0.000535724 0 0.225505)
(-0.000652272 0 0.115658)
(-0.00100337 0 0.169075)
(5.881e-05 0 0.0424728)
(-0.00028542 0 0.0617267)
(0.000858181 0 0.0786864)
(0.000868787 0 0.0225659)
(0.00188617 0 0.198461)
(0.00238417 0 0.133984)
(0.00189087 0 0.300164)
(0.00336146 0 0.262252)
(0.00134447 0 0.357013)
(0.00290184 0 0.337921)
(0.000863019 0 0.386458)
(0.00204031 0 0.376062)
(0.000528187 0 0.402763)
(0.00134951 0 0.396664)
(0.000251986 0 0.411531)
(0.000863644 0 0.408567)
(-0.000260837 0 0.410513)
(0.000103091 0 0.414316)
(-0.000361395 0 0.37283)
(0.000486975 0 0.406452)
(0.00394187 0 0.11306)
(-0.00155611 0 0.336821)
(0.0205293 0 -0.537798)
(0.0254511 0 -0.121037)
(-0.0208664 0 -0.544196)
(-5.97234e-05 0 -0.941305)
(-0.00479335 0 0.0907422)
(-0.0269848 0 -0.133488)
(-0.000660701 0 0.32913)
(-0.000345787 0 0.305084)
(-0.00245686 0 0.351088)
(0.0014023 0 0.00418534)
(0.0015304 0 0.0028069)
(0.00155152 0 0.00746035)
(0.00153968 0 0.00523252)
(0.00185773 0 0.0117863)
(0.00188783 0 0.00883865)
(0.00235214 0 0.0170813)
(0.00237841 0 0.0132835)
(0.00309333 0 0.0236511)
(0.00312625 0 0.0187102)
(0.00417376 0 0.0320564)
(0.00421589 0 0.0255077)
(0.0057376 0 0.0431411)
(0.00577401 0 0.0342991)
(0.00801086 0 0.0580905)
(0.00799077 0 0.0459859)
(0.011351 0 0.0784757)
(0.0111544 0 0.0617882)
(0.0163286 0 0.106254)
(0.0157033 0 0.0832442)
(0.0238643 0 0.143699)
(0.0223066 0 0.112128)
(0.0354561 0 0.193242)
(0.031985 0 0.150256)
(0.0535465 0 0.257165)
(0.0463184 0 0.199181)
(0.0820577 0 0.335536)
(0.0676854 0 0.259691)
(0.126921 0 0.406397)
(0.0986782 0 0.328159)
(0.19645 0 0.28835)
(0.144179 0 0.359903)
(0.301083 0 -0.964519)
(0.250799 0 0.039749)
(-0.0259638 0 -2.21805)
(0.246817 0 -1.86308)
(-0.304203 0 -1.24289)
(-0.258633 0 -2.10794)
(-0.16869 0 0.16712)
(-0.23482 0 -0.209608)
(-0.0972694 0 0.453075)
(-0.109854 0 0.394673)
(-0.0530021 0 0.415198)
(-0.0669815 0 0.412983)
(-0.0281698 0 0.355584)
(-0.039474 0 0.360714)
(-0.0150176 0 0.313901)
(-0.0221456 0 0.320684)
(-0.00825532 0 0.28386)
(-0.0125043 0 0.292425)
(-0.0048417 0 0.256341)
(-0.00728563 0 0.268328)
(-0.00300565 0 0.224746)
(-0.0044641 0 0.240952)
(-0.00172153 0 0.19029)
(-0.00270723 0 0.206387)
(-0.000609061 0 0.167124)
(-0.00128287 0 0.172394)
(0.000256239 0 0.171831)
(-5.50373e-05 0 0.160742)
(0.000594793 0 0.20304)
(0.000758479 0 0.185021)
(-0.000109205 0 0.223227)
(0.000553118 0 0.221761)
(-0.00109972 0 0.19707)
(-0.000721386 0 0.226165)
(-0.000806664 0 0.115139)
(-0.00127745 0 0.16888)
(0.000604801 0 0.0419543)
(3.28504e-05 0 0.0607858)
(0.00213986 0 0.078015)
(0.0016891 0 0.0215426)
(0.00424533 0 0.197775)
(0.00403389 0 0.13258)
(0.00459291 0 0.299836)
(0.00583191 0 0.26202)
(0.00361388 0 0.35679)
(0.00521738 0 0.338574)
(0.00249343 0 0.386133)
(0.00381712 0 0.376809)
(0.00160837 0 0.402334)
(0.00261093 0 0.397254)
(0.000984691 0 0.411157)
(0.00182055 0 0.408983)
(0.000172336 0 0.409949)
(0.000277348 0 0.414858)
(0.000866016 0 0.37033)
(0.00202044 0 0.405989)
(0.0109215 0 0.105252)
(-0.00255715 0 0.330118)
(0.0307494 0 -0.527245)
(0.040007 0 -0.134256)
(-0.0319736 0 -0.533309)
(-4.69152e-05 0 -0.899489)
(-0.013415 0 0.0833929)
(-0.0429851 0 -0.14586)
(-0.00398694 0 0.326862)
(-0.000966959 0 0.298798)
(-0.00557414 0 0.350551)
(0.00166288 0 0.00382676)
(0.00110421 0 0.00257596)
(0.00190027 0 0.00658861)
(0.00114653 0 0.00449243)
(0.00235627 0 0.010342)
(0.00157369 0 0.00748354)
(0.00308332 0 0.0149665)
(0.00216068 0 0.0112248)
(0.00415814 0 0.0206978)
(0.00304623 0 0.0158106)
(0.00569441 0 0.0280049)
(0.00431926 0 0.0215582)
(0.00786018 0 0.0375992)
(0.0061023 0 0.0289915)
(0.0109036 0 0.0504696)
(0.00857302 0 0.038875)
(0.0151907 0 0.0678942)
(0.0119851 0 0.0522387)
(0.0212587 0 0.0913876)
(0.0167041 0 0.0703609)
(0.0298858 0 0.122546)
(0.0232499 0 0.0946698)
(0.0421739 0 0.162775)
(0.0323461 0 0.126551)
(0.0596366 0 0.212801)
(0.0450433 0 0.167068)
(0.0843746 0 0.270201)
(0.0630204 0 0.216326)
(0.12009 0 0.30796)
(0.0881595 0 0.268472)
(0.176098 0 0.141631)
(0.120259 0 0.270675)
(0.261825 0 -0.830173)
(0.221259 0 -0.0904534)
(0.00950035 0 -1.79578)
(0.207082 0 -1.49773)
(-0.24097 0 -1.13577)
(-0.170866 0 -1.7622)
(-0.149285 0 0.0249195)
(-0.215586 0 -0.330258)
(-0.0891998 0 0.375793)
(-0.0848876 0 0.319295)
(-0.0547893 0 0.373224)
(-0.0596819 0 0.371832)
(-0.0329688 0 0.332981)
(-0.0368367 0 0.335837)
(-0.0192576 0 0.302103)
(-0.0220406 0 0.305781)
(-0.0111568 0 0.277913)
(-0.0132363 0 0.28403)
(-0.00663172 0 0.253363)
(-0.00801823 0 0.263858)
(-0.00401576 0 0.223053)
(-0.00498246 0 0.238489)
(-0.00217526 0 0.189047)
(-0.00295771 0 0.204735)
(-0.000672674 0 0.166144)
(-0.00125982 0 0.171108)
(0.000427308 0 0.171276)
(0.000169809 0 0.159844)
(0.000837365 0 0.203251)
(0.00110386 0 0.184747)
(-1.74005e-05 0 0.223986)
(0.000843806 0 0.222331)
(-0.00111778 0 0.197407)
(-0.00071125 0 0.226899)
(-0.000560098 0 0.114466)
(-0.00125618 0 0.168508)
(0.00127918 0 0.0407422)
(0.000575539 0 0.0595597)
(0.00321857 0 0.076499)
(0.00247309 0 0.0202497)
(0.00601456 0 0.196769)
(0.00533555 0 0.130716)
(0.00667114 0 0.30015)
(0.00783425 0 0.261582)
(0.00546838 0 0.357746)
(0.00714346 0 0.339376)
(0.00392859 0 0.387069)
(0.00533803 0 0.377835)
(0.00263271 0 0.40307)
(0.00370473 0 0.398118)
(0.00173923 0 0.411829)
(0.00274343 0 0.409579)
(0.000881656 0 0.410174)
(0.000324558 0 0.415429)
(0.00141675 0 0.36611)
(0.00326313 0 0.405632)
(0.0149215 0 0.0931654)
(-0.00389679 0 0.321114)
(0.0350321 0 -0.509324)
(0.0476714 0 -0.147663)
(-0.0367799 0 -0.514894)
(0.000130258 0 -0.851615)
(-0.0188704 0 0.0720328)
(-0.0518629 0 -0.1578)
(-0.00632838 0 0.32283)
(-0.00125464 0 0.290437)
(-0.00825883 0 0.349956)
(0.000620635 0 0.00325994)
(-0.000725906 0 0.00223065)
(0.000873155 0 0.00544903)
(-0.00068528 0 0.00370742)
(0.00134095 0 0.00849935)
(-0.000279456 0 0.00609672)
(0.00207876 0 0.0122967)
(0.000246198 0 0.00913912)
(0.00315391 0 0.0170232)
(0.00104047 0 0.0129129)
(0.00466056 0 0.0230637)
(0.00216919 0 0.0176871)
(0.00673243 0 0.0310136)
(0.00372255 0 0.0239173)
(0.00955615 0 0.0417038)
(0.00583144 0 0.0322831)
(0.0133914 0 0.0561959)
(0.00867525 0 0.0437035)
(0.0185975 0 0.0757133)
(0.0125042 0 0.0593136)
(0.0256693 0 0.101475)
(0.0176667 0 0.0803604)
(0.035293 0 0.134415)
(0.0246402 0 0.107986)
(0.0484455 0 0.174613)
(0.0341009 0 0.142883)
(0.0667082 0 0.218037)
(0.0473101 0 0.184311)
(0.0939118 0 0.232414)
(0.0667218 0 0.223011)
(0.140679 0 0.0401573)
(0.0901766 0 0.196163)
(0.199402 0 -0.743669)
(0.173657 0 -0.179646)
(0.0264725 0 -1.48926)
(0.161453 0 -1.24734)
(-0.175607 0 -1.01984)
(-0.110509 0 -1.48327)
(-0.121827 0 -0.0629582)
(-0.177319 0 -0.401026)
(-0.0677554 0 0.314965)
(-0.0612298 0 0.251463)
(-0.0420149 0 0.33965)
(-0.0451388 0 0.341048)
(-0.0268414 0 0.31313)
(-0.0266328 0 0.318538)
(-0.0167346 0 0.290591)
(-0.0163875 0 0.294796)
(-0.0102852 0 0.271654)
(-0.0102471 0 0.277348)
(-0.00640141 0 0.250077)
(-0.0064035 0 0.260022)
(-0.00394409 0 0.221131)
(-0.00409179 0 0.236174)
(-0.00204282 0 0.187637)
(-0.00238067 0 0.203028)
(-0.000406416 0 0.165071)
(-0.000755751 0 0.169708)
(0.000797477 0 0.17074)
(0.000675002 0 0.158862)
(0.0012076 0 0.203643)
(0.00160418 0 0.184474)
(0.00019646 0 0.224991)
(0.00123667 0 0.223005)
(-0.00102306 0 0.197808)
(-0.00056776 0 0.227712)
(-0.000233319 0 0.113594)
(-0.00111494 0 0.167982)
(0.00195243 0 0.0392207)
(0.00113198 0 0.0581027)
(0.00422451 0 0.0746135)
(0.00324027 0 0.018735)
(0.00754709 0 0.195505)
(0.00649041 0 0.128501)
(0.00844377 0 0.30058)
(0.00951391 0 0.260984)
(0.00703867 0 0.359118)
(0.0087533 0 0.340312)
(0.00514225 0 0.388504)
(0.00661724 0 0.3791)
(0.0034951 0 0.404266)
(0.00458945 0 0.399216)
(0.00228892 0 0.412861)
(0.00351605 0 0.410383)
(0.00113638 0 0.410706)
(0.00016298 0 0.416198)
(0.00115306 0 0.360963)
(0.003768 0 0.405621)
(0.0168005 0 0.0807254)
(-0.00498385 0 0.310683)
(0.0359735 0 -0.490412)
(0.0502368 0 -0.160445)
(-0.0380023 0 -0.495023)
(0.000164833 0 -0.802297)
(-0.0221328 0 0.0609542)
(-0.0554238 0 -0.16838)
(-0.0078261 0 0.317905)
(-0.0018412 0 0.280899)
(-0.0102277 0 0.349541)
(-0.00197392 0 0.0026881)
(-0.00382973 0 0.00189276)
(-0.0017686 0 0.00439144)
(-0.00381998 0 0.00306838)
(-0.00139527 0 0.00681386)
(-0.00349101 0 0.00499063)
(-0.000809806 0 0.00987988)
(-0.00310321 0 0.00748648)
(3.68219e-05 0 0.013748)
(-0.00251267 0 0.0106336)
(0.00121005 0 0.0187531)
(-0.00167686 0 0.0146731)
(0.00279897 0 0.0254243)
(-0.00053492 0 0.0200235)
(0.00492879 0 0.034508)
(0.00100256 0 0.0273081)
(0.0077735 0 0.0469596)
(0.00305727 0 0.037372)
(0.0115746 0 0.0638731)
(0.00580167 0 0.0512489)
(0.0166742 0 0.086311)
(0.00948288 0 0.0700404)
(0.0235755 0 0.115012)
(0.0144521 0 0.0946701)
(0.033052 0 0.149654)
(0.0211976 0 0.12546)
(0.0465087 0 0.184339)
(0.0306809 0 0.16072)
(0.067728 0 0.180752)
(0.0458885 0 0.187549)
(0.106016 0 -0.0251966)
(0.0656405 0 0.135168)
(0.145541 0 -0.676896)
(0.130611 0 -0.239676)
(0.0291575 0 -1.26148)
(0.121005 0 -1.07883)
(-0.123397 0 -0.910967)
(-0.0720643 0 -1.27269)
(-0.0974296 0 -0.113308)
(-0.139946 0 -0.435193)
(-0.0490358 0 0.269772)
(-0.0460706 0 0.190755)
(-0.0279288 0 0.317785)
(-0.0308146 0 0.315805)
(-0.0173025 0 0.300198)
(-0.0153418 0 0.306422)
(-0.0107138 0 0.28241)
(-0.00907094 0 0.287635)
(-0.00669064 0 0.266774)
(-0.00549796 0 0.273179)
(-0.00430434 0 0.24722)
(-0.00333447 0 0.257664)
(-0.00267429 0 0.219227)
(-0.002147 0 0.23464)
(-0.00118022 0 0.186115)
(-0.00109586 0 0.201687)
(0.000288376 0 0.163882)
(0.000187649 0 0.168452)
(0.00140635 0 0.170103)
(0.00144387 0 0.15795)
(0.00170601 0 0.203923)
(0.00225301 0 0.184274)
(0.000524158 0 0.225832)
(0.00172816 0 0.223792)
(-0.000790892 0 0.197975)
(-0.000281966 0 0.228589)
(0.000151674 0 0.112519)
(-0.000856364 0 0.167354)
(0.00259512 0 0.0375948)
(0.00164432 0 0.0564739)
(0.00517243 0 0.0725989)
(0.00396148 0 0.0170167)
(0.00882669 0 0.194008)
(0.00751949 0 0.126065)
(0.00990448 0 0.300799)
(0.0108759 0 0.260266)
(0.00834839 0 0.36039)
(0.0100604 0 0.34135)
(0.00614291 0 0.389899)
(0.00767123 0 0.38057)
(0.00416209 0 0.405432)
(0.00526598 0 0.400537)
(0.00258271 0 0.413848)
(0.00409358 0 0.411436)
(0.00108422 0 0.411256)
(-0.000143276 0 0.417197)
(0.000747743 0 0.355508)
(0.00369319 0 0.405845)
(0.0172799 0 0.0693039)
(-0.00531096 0 0.299661)
(0.0336823 0 -0.47227)
(0.0490083 0 -0.17138)
(-0.0363333 0 -0.475587)
(-0.000233096 0 -0.75562)
(-0.0239566 0 0.0513529)
(-0.0551492 0 -0.176631)
(-0.0090855 0 0.312705)
(-0.00302726 0 0.270985)
(-0.0116022 0 0.349176)
(-0.0056056 0 0.0022504)
(-0.00763788 0 0.00162158)
(-0.00546143 0 0.00363468)
(-0.00766527 0 0.00261838)
(-0.00520763 0 0.005622)
(-0.00741851 0 0.00423536)
(-0.00480813 0 0.0081814)
(-0.00716433 0 0.00635389)
(-0.00422812 0 0.0114684)
(-0.00677731 0 0.0090673)
(-0.00342432 0 0.015795)
(-0.00622434 0 0.0126052)
(-0.00233564 0 0.0216561)
(-0.00546325 0 0.0173548)
(-0.000875129 0 0.0297519)
(-0.00443196 0 0.0238965)
(0.00108103 0 0.0409782)
(-0.00304469 0 0.0330174)
(0.00371129 0 0.0563464)
(-0.00117571 0 0.0456681)
(0.00727642 0 0.0767983)
(0.001362 0 0.0628302)
(0.0121624 0 0.102851)
(0.00483852 0 0.0852483)
(0.0190014 0 0.133546)
(0.00965498 0 0.112881)
(0.0291697 0 0.160532)
(0.0166284 0 0.142893)
(0.0466535 0 0.139939)
(0.0289989 0 0.158335)
(0.0793245 0 -0.0746784)
(0.0477912 0 0.0831115)
(0.107558 0 -0.629528)
(0.0984936 0 -0.28256)
(0.02467 0 -1.09598)
(0.0894599 0 -0.958815)
(-0.0898448 0 -0.824057)
(-0.0498137 0 -1.11463)
(-0.0781214 0 -0.149367)
(-0.109906 0 -0.450619)
(-0.0347396 0 0.231045)
(-0.0368304 0 0.136334)
(-0.0160296 0 0.302258)
(-0.0187086 0 0.293429)
(-0.00836776 0 0.292828)
(-0.00563159 0 0.297687)
(-0.00435917 0 0.278081)
(-0.00228719 0 0.283278)
(-0.00234097 0 0.264267)
(-0.000602666 0 0.271087)
(-0.00138626 0 0.245695)
(0.000106627 0 0.256721)
(-0.000716476 0 0.218017)
(0.000207988 0 0.234009)
(0.000185284 0 0.184939)
(0.000541378 0 0.200878)
(0.00128464 0 0.162864)
(0.00137342 0 0.167511)
(0.00219028 0 0.169549)
(0.00235941 0 0.157211)
(0.00230354 0 0.204232)
(0.00298588 0 0.184198)
(0.000956767 0 0.226649)
(0.00228409 0 0.22469)
(-0.000434993 0 0.198051)
(0.000114195 0 0.229517)
(0.000553206 0 0.111335)
(-0.000511022 0 0.166695)
(0.00317072 0 0.0358703)
(0.00208997 0 0.0547289)
(0.00601231 0 0.0704634)
(0.00459199 0 0.0151222)
(0.00986965 0 0.192357)
(0.00840498 0 0.123493)
(0.011068 0 0.300906)
(0.011954 0 0.259467)
(0.00940185 0 0.361648)
(0.0111003 0 0.342461)
(0.00693506 0 0.391333)
(0.00852102 0 0.382215)
(0.00464371 0 0.406672)
(0.00575331 0 0.402064)
(0.00267691 0 0.414921)
(0.00446683 0 0.412747)
(0.00087968 0 0.411888)
(-0.000502855 0 0.418395)
(0.000461111 0 0.350083)
(0.00324378 0 0.406124)
(0.0167829 0 0.0589536)
(-0.00503436 0 0.28878)
(0.0299465 0 -0.454938)
(0.0455992 0 -0.180156)
(-0.033764 0 -0.456864)
(-0.00102383 0 -0.713147)
(-0.0246903 0 0.0429856)
(-0.0527784 0 -0.18268)
(-0.0102044 0 0.307533)
(-0.00454337 0 0.261328)
(-0.012504 0 0.348747)
(-0.00962512 0 0.00196106)
(-0.0115607 0 0.00143115)
(-0.00953407 0 0.00316867)
(-0.011614 0 0.00233776)
(-0.00937713 0 0.00489433)
(-0.011435 0 0.00377377)
(-0.00912916 0 0.00713819)
(-0.011285 0 0.00565561)
(-0.00876593 0 0.0100608)
(-0.011056 0 0.00808804)
(-0.00825631 0 0.013961)
(-0.0107197 0 0.0112933)
(-0.00755567 0 0.0193065)
(-0.0102474 0 0.0156377)
(-0.00660033 0 0.0267587)
(-0.00959356 0 0.0216689)
(-0.00530034 0 0.037157)
(-0.00869336 0 0.030126)
(-0.00352455 0 0.0514288)
(-0.00744933 0 0.0418926)
(-0.00106953 0 0.0703777)
(-0.00571242 0 0.0578514)
(0.0023912 0 0.0942303)
(-0.00325613 0 0.0785742)
(0.00744337 0 0.121144)
(0.000305719 0 0.103596)
(0.0156278 0 0.139967)
(0.00581651 0 0.128544)
(0.0312098 0 0.102875)
(0.0165642 0 0.132297)
(0.0600652 0 -0.116643)
(0.0353598 0 0.0371387)
(0.0805959 0 -0.597027)
(0.0754194 0 -0.31374)
(0.0184528 0 -0.975637)
(0.0658752 0 -0.868833)
(-0.0685501 0 -0.758092)
(-0.0370763 0 -0.994535)
(-0.0634413 0 -0.179217)
(-0.0870517 0 -0.457344)
(-0.0243722 0 0.194539)
(-0.0308967 0 0.0873246)
(-0.0065446 0 0.288256)
(-0.00944407 0 0.27211)
(-0.000722234 0 0.28803)
(0.00194828 0 0.291049)
(0.00126671 0 0.276198)
(0.00335642 0 0.281115)
(0.0017327 0 0.263617)
(0.00372009 0 0.270603)
(0.00154748 0 0.245448)
(0.00327407 0 0.256904)
(0.00136702 0 0.217631)
(0.00248534 0 0.23418)
(0.0016595 0 0.18426)
(0.00219187 0 0.200616)
(0.00238511 0 0.162129)
(0.00258553 0 0.16689)
(0.00304963 0 0.169171)
(0.00329143 0 0.156668)
(0.00295872 0 0.204675)
(0.00373071 0 0.184258)
(0.00145637 0 0.227566)
(0.00285793 0 0.225692)
(-1.43376e-05 0 0.198169)
(0.000555662 0 0.230497)
(0.000950534 0 0.110107)
(-0.00014801 0 0.166052)
(0.0036539 0 0.0340067)
(0.0024497 0 0.0529266)
(0.00672606 0 0.0681768)
(0.005108 0 0.0130739)
(0.0107238 0 0.190621)
(0.00914607 0 0.120828)
(0.0119937 0 0.301031)
(0.0128136 0 0.25862)
(0.0102318 0 0.363036)
(0.0119264 0 0.343635)
(0.00753415 0 0.392957)
(0.00919074 0 0.384013)
(0.00495711 0 0.408153)
(0.00607537 0 0.403782)
(0.00260569 0 0.416246)
(0.00463886 0 0.414315)
(0.000479402 0 0.412635)
(-0.000878666 0 0.419812)
(0.000182988 0 0.344847)
(0.00253313 0 0.406322)
(0.0157206 0 0.0497346)
(-0.00456836 0 0.278422)
(0.0259307 0 -0.438635)
(0.0412966 0 -0.186962)
(-0.0312724 0 -0.439237)
(-0.00200384 0 -0.675011)
(-0.0247425 0 0.0357182)
(-0.0496051 0 -0.187033)
(-0.0110816 0 0.302566)
(-0.00602204 0 0.25222)
(-0.0130236 0 0.34824)
(-0.0134834 0 0.00178264)
(-0.0151584 0 0.0013056)
(-0.0134312 0 0.00290233)
(-0.0152253 0 0.00217517)
(-0.0133445 0 0.00448085)
(-0.0150955 0 0.00351772)
(-0.0132053 0 0.00653423)
(-0.0150175 0 0.00526365)
(-0.0129964 0 0.0092261)
(-0.0148959 0 0.0075252)
(-0.012696 0 0.0128437)
(-0.0147056 0 0.0105197)
(-0.0122716 0 0.0178307)
(-0.0144262 0 0.0145972)
(-0.0116747 0 0.0248107)
(-0.0140214 0 0.0202781)
(-0.0108333 0 0.0345668)
(-0.0134367 0 0.0282595)
(-0.00963721 0 0.0479396)
(-0.0125876 0 0.0393603)
(-0.00790909 0 0.0655847)
(-0.0113376 0 0.054358)
(-0.0053419 0 0.0873894)
(-0.00946073 0 0.0736216)
(-0.00128123 0 0.110426)
(-0.00654889 0 0.0961221)
(0.00603306 0 0.120731)
(-0.00164902 0 0.115718)
(0.0207767 0 0.0686425)
(0.00842513 0 0.107661)
(0.0463582 0 -0.151829)
(0.0271474 0 -0.00361813)
(0.0609546 0 -0.572554)
(0.0588525 0 -0.335912)
(0.0128364 0 -0.885077)
(0.0487238 0 -0.799161)
(-0.054011 0 -0.706939)
(-0.0290256 0 -0.902263)
(-0.052341 0 -0.204115)
(-0.0698472 0 -0.459541)
(-0.0175005 0 0.160288)
(-0.0270261 0 0.0436191)
(0.000114316 0 0.274464)
(-0.00333836 0 0.251044)
(0.00508726 0 0.284364)
(0.00721556 0 0.285378)
(0.00581857 0 0.275695)
(0.00765544 0 0.280319)
(0.00516716 0 0.264132)
(0.00715157 0 0.271279)
(0.00409865 0 0.246106)
(0.00585456 0 0.257961)
(0.00324421 0 0.217915)
(0.0044102 0 0.234985)
(0.00304522 0 0.184029)
(0.00362409 0 0.200795)
(0.00343106 0 0.16167)
(0.00365663 0 0.166559)
(0.00387991 0 0.168977)
(0.00413103 0 0.156301)
(0.00360666 0 0.205264)
(0.00441503 0 0.18444)
(0.00195964 0 0.228603)
(0.00339433 0 0.22679)
(0.000389716 0 0.198367)
(0.00097526 0 0.231544)
(0.00128349 0 0.108881)
(0.000171698 0 0.165456)
(0.00402823 0 0.0320253)
(0.00271257 0 0.0510966)
(0.00730924 0 0.0657542)
(0.00550165 0 0.0108864)
(0.0114255 0 0.188834)
(0.00974557 0 0.118084)
(0.01274 0 0.301205)
(0.0135055 0 0.257744)
(0.010882 0 0.364579)
(0.012583 0 0.344874)
(0.00796408 0 0.394801)
(0.00970221 0 0.385958)
(0.00511605 0 0.409906)
(0.0062553 0 0.405681)
(0.00239538 0 0.41785)
(0.00461647 0 0.416128)
(-2.44393e-05 0 0.413473)
(-0.00126705 0 0.421425)
(-0.000212019 0 0.33989)
(0.00162756 0 0.406447)
(0.0143669 0 0.0417334)
(-0.00422776 0 0.268702)
(0.0220528 0 -0.423526)
(0.0368304 0 -0.192086)
(-0.0290343 0 -0.422992)
(-0.00298392 0 -0.640953)
(-0.0244145 0 0.0294788)
(-0.0462921 0 -0.190113)
(-0.0116711 0 0.297889)
(-0.0072535 0 0.243725)
(-0.0132481 0 0.347698)
(-0.016842 0 0.00167745)
(-0.0181552 0 0.00122652)
(-0.0168143 0 0.00275866)
(-0.0182241 0 0.00209019)
(-0.0167714 0 0.00425825)
(-0.0181243 0 0.00339096)
(-0.0167011 0 0.00619788)
(-0.0180849 0 0.00506307)
(-0.0165896 0 0.00874045)
(-0.0180205 0 0.00722029)
(-0.0164181 0 0.0121623)
(-0.0179071 0 0.0100743)
(-0.0161583 0 0.0168853)
(-0.0177266 0 0.0139595)
(-0.015768 0 0.0234976)
(-0.0174449 0 0.0193685)
(-0.0151825 0 0.0327277)
(-0.0170094 0 0.0269543)
(-0.0142942 0 0.0453296)
(-0.016336 0 0.0374671)
(-0.0129174 0 0.061798)
(-0.0152837 0 0.0515684)
(-0.0107182 0 0.0816131)
(-0.0136107 0 0.0693852)
(-0.00697072 0 0.100654)
(-0.0108723 0 0.089236)
(0.000167282 0 0.102438)
(-0.00601439 0 0.103208)
(0.0144348 0 0.0375405)
(0.0039196 0 0.0838201)
(0.0368813 0 -0.180324)
(0.0221206 0 -0.0393831)
(0.0468837 0 -0.551991)
(0.0470835 0 -0.35111)
(0.00872687 0 -0.814412)
(0.0367204 0 -0.743913)
(-0.0434045 0 -0.665966)
(-0.0231961 0 -0.8303)
(-0.0439457 0 -0.224384)
(-0.0568932 0 -0.458827)
(-0.013442 0 0.128924)
(-0.024651 0 0.00535194)
(0.00425791 0 0.260879)
(-0.000200954 0 0.229875)
(0.00906343 0 0.281358)
(0.0101507 0 0.279898)
(0.00911008 0 0.276066)
(0.010438 0 0.280269)
(0.00776134 0 0.265398)
(0.00949318 0 0.272677)
(0.00609206 0 0.247368)
(0.00767187 0 0.259611)
(0.00474764 0 0.218663)
(0.00582125 0 0.236251)
(0.0041749 0 0.18413)
(0.0046999 0 0.201308)
(0.00430409 0 0.161428)
(0.00448004 0 0.166447)
(0.0045909 0 0.168928)
(0.00479574 0 0.156067)
(0.00417586 0 0.205961)
(0.00497333 0 0.184717)
(0.00240405 0 0.229726)
(0.00383864 0 0.227972)
(0.000733733 0 0.198633)
(0.00131936 0 0.232658)
(0.0015345 0 0.107679)
(0.000412752 0 0.164922)
(0.00429316 0 0.0299711)
(0.00288079 0 0.0492573)
(0.00775616 0 0.0632284)
(0.00577644 0 0.00857753)
(0.0119846 0 0.186998)
(0.0102027 0 0.115265)
(0.0133377 0 0.301406)
(0.0140518 0 0.256842)
(0.0113826 0 0.366239)
(0.0130952 0 0.346177)
(0.00824623 0 0.396821)
(0.0100709 0 0.388049)
(0.0051299 0 0.411883)
(0.00631196 0 0.407758)
(0.00205782 0 0.419699)
(0.00441657 0 0.418176)
(-0.000760611 0 0.414383)
(-0.0016737 0 0.423304)
(-0.00074611 0 0.335227)
(0.000566301 0 0.406437)
(0.0128562 0 0.0348557)
(-0.00414972 0 0.259634)
(0.0185034 0 -0.409624)
(0.0325585 0 -0.195851)
(-0.0270231 0 -0.408177)
(-0.00382525 0 -0.610602)
(-0.0238587 0 0.0241151)
(-0.0430978 0 -0.192222)
(-0.0119999 0 0.293519)
(-0.00819644 0 0.235819)
(-0.0132642 0 0.347174)
(-0.0194869 0 0.00161705)
(-0.0204005 0 0.00116997)
(-0.0194688 0 0.00268828)
(-0.0204641 0 0.00203705)
(-0.0194426 0 0.00414953)
(-0.0203755 0 0.00331677)
(-0.0193991 0 0.00602184)
(-0.0203435 0 0.00494026)
(-0.0193252 0 0.00846457)
(-0.02029 0 0.00701855)
(-0.019201 0 0.0117429)
(-0.0201911 0 0.00975517)
(-0.0189979 0 0.0162564)
(-0.0200275 0 0.0134667)
(-0.0186731 0 0.0225569)
(-0.0197636 0 0.0186159)
(-0.0181586 0 0.0313157)
(-0.0193432 0 0.0258096)
(-0.0173405 0 0.0431927)
(-0.0186772 0 0.0357251)
(-0.0160225 0 0.0584963)
(-0.0176165 0 0.0488975)
(-0.013843 0 0.0762401)
(-0.0159028 0 0.0651827)
(-0.0100159 0 0.0911062)
(-0.0130492 0 0.0821972)
(-0.00271417 0 0.0846609)
(-0.00794504 0 0.090405)
(0.0110999 0 0.00942283)
(0.00203602 0 0.0607348)
(0.0305719 0 -0.203121)
(0.0192851 0 -0.0704044)
(0.0371273 0 -0.533998)
(0.0388421 0 -0.361067)
(0.00620016 0 -0.758051)
(0.0286185 0 -0.699132)
(-0.035387 0 -0.63234)
(-0.0186484 0 -0.772894)
(-0.0377153 0 -0.240536)
(-0.0471924 0 -0.455763)
(-0.0115931 0 0.100561)
(-0.0234139 0 -0.0274191)
(0.00593359 0 0.247386)
(0.000563656 0 0.208913)
(0.0110834 0 0.278573)
(0.0110553 0 0.274027)
(0.0109938 0 0.276923)
(0.0117167 0 0.280367)
(0.00935832 0 0.267127)
(0.0106831 0 0.274372)
(0.00738023 0 0.249014)
(0.00865355 0 0.261565)
(0.00575761 0 0.219711)
(0.00663474 0 0.237779)
(0.00495974 0 0.184447)
(0.00534535 0 0.202024)
(0.00492979 0 0.161328)
(0.00499534 0 0.166473)
(0.00511806 0 0.168971)
(0.00523348 0 0.155914)
(0.00460956 0 0.20673)
(0.00535899 0 0.185056)
(0.00274105 0 0.23091)
(0.00414769 0 0.229218)
(0.000982528 0 0.198955)
(0.00154914 0 0.23383)
(0.00169675 0 0.106507)
(0.000554392 0 0.164446)
(0.00445796 0 0.0278681)
(0.00296118 0 0.0474164)
(0.00807106 0 0.0606179)
(0.00594677 0 0.00616867)
(0.0124037 0 0.185113)
(0.0105233 0 0.112376)
(0.0137979 0 0.301618)
(0.0144603 0 0.255912)
(0.0117483 0 0.367992)
(0.0134746 0 0.347544)
(0.00839642 0 0.398991)
(0.0103069 0 0.390284)
(0.00501083 0 0.414052)
(0.00625804 0 0.410016)
(0.00161861 0 0.421782)
(0.00407188 0 0.420438)
(-0.00157262 0 0.415344)
(-0.00213584 0 0.425432)
(-0.0013151 0 0.330827)
(-0.000630978 0 0.406265)
(0.0112759 0 0.0289125)
(-0.00432574 0 0.25124)
(0.0154002 0 -0.396897)
(0.0286267 0 -0.198601)
(-0.025189 0 -0.394709)
(-0.00445653 0 -0.583543)
(-0.023161 0 0.0194637)
(-0.0401032 0 -0.193574)
(-0.0121377 0 0.289459)
(-0.00891272 0 0.22847)
(-0.0131588 0 0.346715)
(-0.021333 0 0.00156689)
(-0.0218835 0 0.00111712)
(-0.0213135 0 0.00262979)
(-0.0219395 0 0.00197833)
(-0.0212829 0 0.00405929)
(-0.0218461 0 0.00323019)
(-0.0212321 0 0.00587198)
(-0.0218 0 0.00479839)
(-0.0211481 0 0.00822107)
(-0.0217246 0 0.00678753)
(-0.02101 0 0.0113595)
(-0.021595 0 0.00939299)
(-0.0207855 0 0.0156633)
(-0.0213914 0 0.0129149)
(-0.0204274 0 0.0216452)
(-0.0210763 0 0.0177846)
(-0.0198628 0 0.0299144)
(-0.0205897 0 0.0245585)
(-0.018972 0 0.0410267)
(-0.0198363 0 0.033836)
(-0.0175474 0 0.0550831)
(-0.0186588 0 0.046016)
(-0.0152018 0 0.0706007)
(-0.0167842 0 0.0606613)
(-0.0111142 0 0.0811555)
(-0.0136912 0 0.0746802)
(-0.00356957 0 0.067047)
(-0.00826023 0 0.0771757)
(0.0096874 0 -0.0160807)
(0.00174346 0 0.0385799)
(0.0264353 0 -0.22148)
(0.0177477 0 -0.0970842)
(0.0304938 0 -0.518141)
(0.0330483 0 -0.367231)
(0.00484318 0 -0.712207)
(0.0231942 0 -0.661993)
(-0.0293215 0 -0.603911)
(-0.0151357 0 -0.725736)
(-0.0332426 0 -0.252969)
(-0.0400404 0 -0.450604)
(-0.0113322 0 0.0751434)
(-0.0229891 0 -0.0549053)
(0.00573608 0 0.233835)
(-0.000338773 0 0.188501)
(0.0114301 0 0.275502)
(0.0104094 0 0.267536)
(0.0115772 0 0.277826)
(0.0117267 0 0.280207)
(0.00996465 0 0.269021)
(0.0108427 0 0.276043)
(0.00792948 0 0.250836)
(0.00884928 0 0.263575)
(0.00622814 0 0.220909)
(0.00685162 0 0.23938)
(0.00535328 0 0.184877)
(0.00554465 0 0.202809)
(0.00526889 0 0.161299)
(0.00518209 0 0.166545)
(0.00542586 0 0.169061)
(0.00542298 0 0.155786)
(0.00487282 0 0.207544)
(0.00554833 0 0.185425)
(0.00293728 0 0.232142)
(0.00429395 0 0.230508)
(0.0011114 0 0.199327)
(0.0016377 0 0.235048)
(0.00176314 0 0.10536)
(0.000581605 0 0.164011)
(0.00453477 0 0.0257214)
(0.00295905 0 0.0455685)
(0.00827079 0 0.0579313)
(0.00603194 0 0.00367789)
(0.0126917 0 0.18318)
(0.0107225 0 0.109429)
(0.0141265 0 0.301843)
(0.0147367 0 0.254956)
(0.0119865 0 0.36984)
(0.0137269 0 0.348971)
(0.00842594 0 0.401313)
(0.0104173 0 0.392658)
(0.00477545 0 0.416404)
(0.0060982 0 0.412449)
(0.00107587 0 0.424083)
(0.00360759 0 0.422904)
(-0.00243062 0 0.416358)
(-0.00269774 0 0.427769)
(-0.00210486 0 0.326673)
(-0.00194072 0 0.406048)
(0.00966543 0 0.0237021)
(-0.00469927 0 0.243393)
(0.0127597 0 -0.385296)
(0.0250567 0 -0.200663)
(-0.0235006 0 -0.382454)
(-0.00489069 0 -0.559369)
(-0.0224004 0 0.0154164)
(-0.0373417 0 -0.194308)
(-0.012178 0 0.285712)
(-0.00950681 0 0.221655)
(-0.0130174 0 0.346347)
(-0.0224474 0 0.001501)
(-0.0227021 0 0.0010546)
(-0.022418 0 0.00253466)
(-0.0227473 0 0.00188644)
(-0.0223709 0 0.00391144)
(-0.0226388 0 0.00308497)
(-0.0222943 0 0.0056427)
(-0.0225658 0 0.00457542)
(-0.0221701 0 0.00787251)
(-0.0224518 0 0.00645399)
(-0.0219768 0 0.0108393)
(-0.0222701 0 0.00890265)
(-0.0216838 0 0.0148948)
(-0.0219993 0 0.0122013)
(-0.0212419 0 0.0205117)
(-0.0216 0 0.0167508)
(-0.0205723 0 0.0282362)
(-0.0210095 0 0.0230604)
(-0.019547 0 0.0385149)
(-0.0201287 0 0.0316512)
(-0.0179484 0 0.0512277)
(-0.0187956 0 0.0427786)
(-0.0153716 0 0.0643919)
(-0.016727 0 0.0556963)
(-0.0109925 0 0.0706316)
(-0.0133823 0 0.0666331)
(-0.00327522 0 0.0496326)
(-0.00767461 0 0.0636465)
(0.00929253 0 -0.0391592)
(0.00222077 0 0.0175738)
(0.0236208 0 -0.236317)
(0.0168256 0 -0.119913)
(0.0258857 0 -0.503937)
(0.0288051 0 -0.37067)
(0.00408009 0 -0.673891)
(0.0193821 0 -0.63042)
(-0.0248703 0 -0.578925)
(-0.0126078 0 -0.685774)
(-0.0301593 0 -0.261975)
(-0.0348799 0 -0.443644)
(-0.0120936 0 0.052614)
(-0.0230661 0 -0.077568)
(0.00426431 0 0.220261)
(-0.00224259 0 0.168938)
(0.0105458 0 0.271859)
(0.00873161 0 0.260374)
(0.0111334 0 0.278445)
(0.0108 0 0.279569)
(0.00973564 0 0.270824)
(0.0102013 0 0.277491)
(0.00781651 0 0.252641)
(0.00839623 0 0.26547)
(0.00618709 0 0.222114)
(0.00654367 0 0.240915)
(0.00536042 0 0.185317)
(0.00533363 0 0.203551)
(0.00531669 0 0.161272)
(0.00505569 0 0.166583)
(0.00550464 0 0.169157)
(0.0053687 0 0.155633)
(0.00494941 0 0.208384)
(0.00553718 0 0.185795)
(0.00297193 0 0.233412)
(0.004265 0 0.231826)
(0.00110299 0 0.199734)
(0.00156991 0 0.236294)
(0.00172849 0 0.104223)
(0.000485423 0 0.163594)
(0.0045346 0 0.0235296)
(0.00287679 0 0.0436976)
(0.00837533 0 0.0551801)
(0.00604656 0 0.00111728)
(0.0128613 0 0.181208)
(0.0108174 0 0.106438)
(0.0143285 0 0.302085)
(0.0148877 0 0.253978)
(0.0121016 0 0.371788)
(0.0138557 0 0.350455)
(0.00833897 0 0.403792)
(0.0104071 0 0.395166)
(0.00443277 0 0.418952)
(0.00584029 0 0.415053)
(0.000372714 0 0.426586)
(0.00302662 0 0.425611)
(-0.00337581 0 0.417455)
(-0.00338415 0 0.430268)
(-0.00307432 0 0.322757)
(-0.00333608 0 0.405847)
(0.00805038 0 0.0190108)
(-0.00523841 0 0.235976)
(0.0105143 0 -0.374772)
(0.0218121 0 -0.202306)
(-0.021972 0 -0.371264)
(-0.00521455 0 -0.537711)
(-0.0216625 0 0.0119139)
(-0.0348503 0 -0.194514)
(-0.0122185 0 0.282276)
(-0.0100802 0 0.215359)
(-0.0129174 0 0.346074)
(-0.0229591 0 0.00141202)
(-0.0229824 0 0.000977772)
(-0.022915 0 0.00239127)
(-0.0230128 0 0.0017579)
(-0.0228414 0 0.00368669)
(-0.0228893 0 0.0028743)
(-0.0227281 0 0.00530571)
(-0.0227857 0 0.0042536)
(-0.0225563 0 0.00738263)
(-0.0226279 0 0.00598632)
(-0.0223004 0 0.01014)
(-0.0223901 0 0.00824396)
(-0.0219261 0 0.013904)
(-0.0220485 0 0.0112864)