/*--------------------------------*- C++ -*----------------------------------*\
  =========                 |
  \\      /  F ield         | OpenFOAM: The Open Source CFD Toolbox
   \\    /   O peration     | Website:  https://openfoam.org
    \\  /    A nd           | Version:  9
     \\/     M anipulation  |
\*---------------------------------------------------------------------------*/
FoamFile
{
    format      ascii;
    class       surfaceVectorField;
    location    "0.04";
    object      Uf;
}
// * * * * * * * * * * * * * * * * * * * * * * * * * * * * * * * * * * * * * //

dimensions      [0 1 -1 0 0 0 0];

internalField   nonuniform List<vector> 
9850
(
(-0.0483456 0 -0.00582396)
(-0.0481106 0 -0.00553779)
(-0.0483596 0 -0.0065096)
(-0.0481261 0 -0.00608079)
(-0.0483774 0 -0.00739091)
(-0.0481435 0 -0.00690852)
(-0.0484001 0 -0.00832593)
(-0.048164 0 -0.00783546)
(-0.0484292 0 -0.00925517)
(-0.0481902 0 -0.00876598)
(-0.0484659 0 -0.0101736)
(-0.0482234 0 -0.00967873)
(-0.0485118 0 -0.0110968)
(-0.0482649 0 -0.0105859)
(-0.0485684 0 -0.0120422)
(-0.0483163 0 -0.0115066)
(-0.0486374 0 -0.0130237)
(-0.0483792 0 -0.0124569)
(-0.0487208 0 -0.0140515)
(-0.0484554 0 -0.0134485)
(-0.0488206 0 -0.0151329)
(-0.0485468 0 -0.0144899)
(-0.0489389 0 -0.0162737)
(-0.0486555 0 -0.0155873)
(-0.0490782 0 -0.0174788)
(-0.0487838 0 -0.016746)
(-0.0492414 0 -0.0187524)
(-0.0489344 0 -0.0179704)
(-0.0494315 0 -0.0200987)
(-0.04911 0 -0.0192645)
(-0.0496519 0 -0.0215215)
(-0.0493141 0 -0.0206323)
(-0.0499067 0 -0.0230247)
(-0.0495502 0 -0.0220775)
(-0.0502003 0 -0.0246122)
(-0.0498225 0 -0.0236041)
(-0.0505375 0 -0.026288)
(-0.0501356 0 -0.0252157)
(-0.0509241 0 -0.0280562)
(-0.0504947 0 -0.0269164)
(-0.0513663 0 -0.029921)
(-0.0509057 0 -0.0287102)
(-0.0518712 0 -0.0318866)
(-0.0513752 0 -0.0306011)
(-0.052447 0 -0.0339574)
(-0.0519107 0 -0.0325934)
(-0.0531027 0 -0.0361378)
(-0.0525207 0 -0.0346913)
(-0.0538489 0 -0.0384316)
(-0.0532149 0 -0.0368988)
(-0.0546974 0 -0.0408427)
(-0.0540041 0 -0.0392196)
(-0.055662 0 -0.0433737)
(-0.0549011 0 -0.0416568)
(-0.0567584 0 -0.0460264)
(-0.0559201 0 -0.0442124)
(-0.0580046 0 -0.0488)
(-0.0570784 0 -0.0468869)
(-0.0594214 0 -0.0516897)
(-0.0583923 0 -0.0496781)
(-0.0613144 0 -0.0551821)
(-0.0600159 0 -0.0528241)
(-0.0633913 0 -0.0586158)
(-0.0619761 0 -0.056229)
(-0.0656617 0 -0.0619806)
(-0.0641234 0 -0.0595682)
(-0.0681368 0 -0.0652613)
(-0.0664647 0 -0.062829)
(-0.0708286 0 -0.0684374)
(-0.0690123 0 -0.0659926)
(-0.0737505 0 -0.071484)
(-0.0717775 0 -0.069036)
(-0.0769175 0 -0.0743713)
(-0.074774 0 -0.0719312)
(-0.0803464 0 -0.0770644)
(-0.0780165 0 -0.0746457)
(-0.0840557 0 -0.0795225)
(-0.0815214 0 -0.0771414)
(-0.0880662 0 -0.0816981)
(-0.085307 0 -0.0793739)
(-0.0924005 0 -0.0835363)
(-0.0893932 0 -0.0812915)
(-0.0970836 0 -0.0849731)
(-0.0938023 0 -0.0828342)
(-0.102143 0 -0.085935)
(-0.0985579 0 -0.0839329)
(-0.107608 0 -0.0863364)
(-0.103686 0 -0.0845078)
(-0.11351 0 -0.0860775)
(-0.109212 0 -0.0844666)
(-0.119885 0 -0.0850426)
(-0.115165 0 -0.0837018)
(-0.126766 0 -0.0830965)
(-0.121574 0 -0.0820893)
(-0.134187 0 -0.0800787)
(-0.128464 0 -0.079486)
(-0.142181 0 -0.0758051)
(-0.135868 0 -0.0757171)
(-0.14379 0 -0.0705903)
(-0.0478953 0 -0.00578165)
(-0.0476396 0 -0.00549653)
(-0.0479104 0 -0.00645993)
(-0.0476564 0 -0.00603375)
(-0.0479294 0 -0.00733092)
(-0.047675 0 -0.00685236)
(-0.0479534 0 -0.00825328)
(-0.0476968 0 -0.00776774)
(-0.0479836 0 -0.00916774)
(-0.0477242 0 -0.0086846)
(-0.0480214 0 -0.0100694)
(-0.0477586 0 -0.00958168)
(-0.0480683 0 -0.0109738)
(-0.0478012 0 -0.0104713)
(-0.0481257 0 -0.0118987)
(-0.0478535 0 -0.0113726)
(-0.0481955 0 -0.0128581)
(-0.0479172 0 -0.0123018)
(-0.0482793 0 -0.0138621)
(-0.047994 0 -0.0132707)
(-0.0483793 0 -0.0149182)
(-0.0480857 0 -0.0142877)
(-0.0484976 0 -0.016032)
(-0.0481944 0 -0.0153593)
(-0.0486366 0 -0.0172084)
(-0.0483225 0 -0.0164904)
(-0.048799 0 -0.0184516)
(-0.0484724 0 -0.0176855)
(-0.048988 0 -0.0197656)
(-0.0486471 0 -0.0189486)
(-0.049207 0 -0.021154)
(-0.0488498 0 -0.0202834)
(-0.0494597 0 -0.0226207)
(-0.0490839 0 -0.0216936)
(-0.0497506 0 -0.0241693)
(-0.0493537 0 -0.0231829)
(-0.0500845 0 -0.0258037)
(-0.0496636 0 -0.0247548)
(-0.0504668 0 -0.0275278)
(-0.0500186 0 -0.0264133)
(-0.0509038 0 -0.0293455)
(-0.0504247 0 -0.028162)
(-0.0514024 0 -0.0312608)
(-0.0508881 0 -0.0300048)
(-0.0519705 0 -0.0332777)
(-0.0514163 0 -0.0319457)
(-0.052617 0 -0.0354003)
(-0.0520175 0 -0.0339886)
(-0.0533521 0 -0.0376321)
(-0.0527011 0 -0.036137)
(-0.0541874 0 -0.0399764)
(-0.0534777 0 -0.0383944)
(-0.0551362 0 -0.0424354)
(-0.0543596 0 -0.0407633)
(-0.0562136 0 -0.0450102)
(-0.0553606 0 -0.0432451)
(-0.0574371 0 -0.0476995)
(-0.0564975 0 -0.0458399)
(-0.0588268 0 -0.0504973)
(-0.0577858 0 -0.0485443)
(-0.0606814 0 -0.0538723)
(-0.0593759 0 -0.0515878)
(-0.0627133 0 -0.0571827)
(-0.0612933 0 -0.0548743)
(-0.0649316 0 -0.0604178)
(-0.0633908 0 -0.0580893)
(-0.0673461 0 -0.0635614)
(-0.0656741 0 -0.0612193)
(-0.0699675 0 -0.0665923)
(-0.0681545 0 -0.0642449)
(-0.072808 0 -0.0694846)
(-0.0708419 0 -0.0671423)
(-0.0758806 0 -0.0722075)
(-0.0737484 0 -0.0698827)
(-0.0792 0 -0.0747252)
(-0.0768866 0 -0.0724327)
(-0.0827822 0 -0.0769958)
(-0.0802708 0 -0.0747532)
(-0.0866451 0 -0.0789705)
(-0.0839163 0 -0.0767986)
(-0.0908076 0 -0.0805928)
(-0.0878399 0 -0.0785164)
(-0.0952905 0 -0.0817974)
(-0.0920599 0 -0.0798456)
(-0.100116 0 -0.0825093)
(-0.0965954 0 -0.0807161)
(-0.105307 0 -0.0826417)
(-0.101466 0 -0.0810472)
(-0.110888 0 -0.0820948)
(-0.106692 0 -0.0807462)
(-0.116881 0 -0.080753)
(-0.112292 0 -0.0797059)
(-0.123312 0 -0.0784833)
(-0.118285 0 -0.0778025)
(-0.130197 0 -0.0751287)
(-0.124682 0 -0.0748961)
(-0.137539 0 -0.0705072)
(-0.131501 0 -0.0708217)
(-0.138725 0 -0.0653796)
(-0.0474052 0 -0.0057358)
(-0.0471296 0 -0.00545174)
(-0.0474215 0 -0.00640663)
(-0.0471478 0 -0.00598307)
(-0.0474417 0 -0.00726732)
(-0.0471677 0 -0.00679251)
(-0.047467 0 -0.00817718)
(-0.0471907 0 -0.00769645)
(-0.0474984 0 -0.00907715)
(-0.0472194 0 -0.00859991)
(-0.0475374 0 -0.00996237)
(-0.0472549 0 -0.00948168)
(-0.0475852 0 -0.0108486)
(-0.0472986 0 -0.0103541)
(-0.0476435 0 -0.0117535)
(-0.0473519 0 -0.0112365)
(-0.0477139 0 -0.0126913)
(-0.0474162 0 -0.0121452)
(-0.0477982 0 -0.0136721)
(-0.0474935 0 -0.0130919)
(-0.0478983 0 -0.0147033)
(-0.0475854 0 -0.0140852)
(-0.0480164 0 -0.0157908)
(-0.0476941 0 -0.0151315)
(-0.0481549 0 -0.0169391)
(-0.0478218 0 -0.0162357)
(-0.0483165 0 -0.0181525)
(-0.047971 0 -0.0174022)
(-0.0485042 0 -0.0194348)
(-0.0481445 0 -0.0186349)
(-0.0487214 0 -0.0207896)
(-0.0483455 0 -0.0199374)
(-0.0489717 0 -0.0222205)
(-0.0485775 0 -0.0213133)
(-0.0492596 0 -0.0237311)
(-0.0488444 0 -0.0227661)
(-0.0495896 0 -0.025325)
(-0.0491506 0 -0.0242992)
(-0.0499672 0 -0.0270059)
(-0.0495012 0 -0.0259164)
(-0.0503984 0 -0.0287775)
(-0.0499018 0 -0.027621)
(-0.05089 0 -0.0306436)
(-0.0503586 0 -0.0294169)
(-0.0514496 0 -0.032608)
(-0.0508787 0 -0.0313077)
(-0.052086 0 -0.0346742)
(-0.0514703 0 -0.0332968)
(-0.0528091 0 -0.0368455)
(-0.0521424 0 -0.0353878)
(-0.05363 0 -0.0391248)
(-0.0529054 0 -0.0375834)
(-0.0545616 0 -0.0415138)
(-0.0537711 0 -0.0398859)
(-0.0556187 0 -0.044013)
(-0.0547528 0 -0.0422962)
(-0.0568179 0 -0.0466204)
(-0.0558668 0 -0.0448136)
(-0.0581784 0 -0.0493292)
(-0.0571277 0 -0.0474343)
(-0.0599919 0 -0.0525909)
(-0.0586823 0 -0.0503788)
(-0.061976 0 -0.0557827)
(-0.0605543 0 -0.0535516)
(-0.0641387 0 -0.0588932)
(-0.0625989 0 -0.0566475)
(-0.0664887 0 -0.0619058)
(-0.0648208 0 -0.0596526)
(-0.0690355 0 -0.0647985)
(-0.0672302 0 -0.062547)
(-0.0717895 0 -0.0675445)
(-0.0698356 0 -0.0653062)
(-0.0747622 0 -0.0701124)
(-0.0726472 0 -0.0679009)
(-0.077966 0 -0.0724654)
(-0.075676 0 -0.0702968)
(-0.0814146 0 -0.074561)
(-0.0789337 0 -0.0724541)
(-0.0851225 0 -0.0763497)
(-0.0824331 0 -0.0743267)
(-0.0891051 0 -0.0777744)
(-0.0861875 0 -0.0758613)
(-0.0933789 0 -0.0787688)
(-0.0902113 0 -0.0769964)
(-0.0979609 0 -0.0792572)
(-0.0945188 0 -0.0776615)
(-0.102868 0 -0.0791525)
(-0.0991245 0 -0.0777758)
(-0.108117 0 -0.078355)
(-0.104042 0 -0.077247)
(-0.113722 0 -0.0767504)
(-0.109282 0 -0.0759694)
(-0.119694 0 -0.0742089)
(-0.114854 0 -0.0738214)
(-0.126038 0 -0.070581)
(-0.120758 0 -0.0706667)
(-0.132743 0 -0.0656852)
(-0.12699 0 -0.0663514)
(-0.133534 0 -0.0606807)
(-0.0468771 0 -0.00568632)
(-0.0465824 0 -0.00540341)
(-0.0468946 0 -0.00634962)
(-0.046602 0 -0.00592875)
(-0.046916 0 -0.00720006)
(-0.0466232 0 -0.00672901)
(-0.0469425 0 -0.00809761)
(-0.0466474 0 -0.00762163)
(-0.0469751 0 -0.00898341)
(-0.0466773 0 -0.00851197)
(-0.0470152 0 -0.00985265)
(-0.0467139 0 -0.00937885)
(-0.047064 0 -0.0107211)
(-0.0467586 0 -0.0102346)
(-0.0471231 0 -0.0116066)
(-0.0468127 0 -0.0110987)
(-0.0471941 0 -0.0125233)
(-0.0468777 0 -0.0119873)
(-0.0472787 0 -0.0134814)
(-0.0469553 0 -0.0129125)
(-0.0473788 0 -0.0144885)
(-0.0470474 0 -0.0138827)
(-0.0474966 0 -0.0155502)
(-0.0471559 0 -0.0149042)
(-0.0476345 0 -0.0166711)
(-0.0472831 0 -0.0159822)
(-0.0477951 0 -0.0178554)
(-0.0474314 0 -0.0171207)
(-0.0479813 0 -0.0191067)
(-0.0476036 0 -0.0183237)
(-0.0481964 0 -0.0204285)
(-0.0478027 0 -0.0195947)
(-0.0484441 0 -0.0218245)
(-0.0480322 0 -0.0209371)
(-0.0487285 0 -0.0232979)
(-0.0482959 0 -0.0223542)
(-0.0490543 0 -0.0248523)
(-0.0485982 0 -0.0238495)
(-0.0494267 0 -0.026491)
(-0.0489439 0 -0.0254263)
(-0.0498516 0 -0.0282178)
(-0.0493385 0 -0.027088)
(-0.0503355 0 -0.030036)
(-0.0497881 0 -0.0288381)
(-0.050886 0 -0.0319492)
(-0.0502997 0 -0.03068)
(-0.0515115 0 -0.0339606)
(-0.0508809 0 -0.032617)
(-0.0522215 0 -0.0360733)
(-0.0515408 0 -0.034652)
(-0.0530271 0 -0.0382895)
(-0.0522892 0 -0.0367877)
(-0.0539404 0 -0.0406107)
(-0.0531376 0 -0.0390258)
(-0.0549757 0 -0.0430366)
(-0.0540988 0 -0.0413667)
(-0.056149 0 -0.0455649)
(-0.0551884 0 -0.0438094)
(-0.0574788 0 -0.0481879)
(-0.0564205 0 -0.0463494)
(-0.0592488 0 -0.0513402)
(-0.0579377 0 -0.0491987)
(-0.0611824 0 -0.0544178)
(-0.0597619 0 -0.0522625)
(-0.0632866 0 -0.0574089)
(-0.061751 0 -0.0552447)
(-0.0655687 0 -0.0602964)
(-0.0639088 0 -0.0581312)
(-0.0680371 0 -0.0630579)
(-0.0662441 0 -0.0609014)
(-0.0707006 0 -0.065666)
(-0.068764 0 -0.0635305)
(-0.073569 0 -0.0680888)
(-0.0714771 0 -0.0659886)
(-0.0766525 0 -0.0702889)
(-0.0743923 0 -0.0682411)
(-0.0799621 0 -0.0722231)
(-0.0775191 0 -0.0702476)
(-0.0835094 0 -0.0738415)
(-0.0808675 0 -0.0719618)
(-0.0873065 0 -0.0750866)
(-0.0844478 0 -0.0733299)
(-0.0913653 0 -0.0758923)
(-0.0882702 0 -0.0742905)
(-0.0956979 0 -0.0761828)
(-0.0923449 0 -0.0747731)
(-0.100315 0 -0.0758718)
(-0.0966808 0 -0.0746975)
(-0.105227 0 -0.0748608)
(-0.101285 0 -0.0739725)
(-0.11044 0 -0.0730375)
(-0.106162 0 -0.0724946)
(-0.115952 0 -0.0702751)
(-0.111313 0 -0.0701465)
(-0.121758 0 -0.0664327)
(-0.116728 0 -0.066796)
(-0.127835 0 -0.0613404)
(-0.122386 0 -0.0622999)
(-0.128264 0 -0.0564803)
(-0.0463126 0 -0.00563329)
(-0.0459996 0 -0.00535166)
(-0.0463312 0 -0.00628903)
(-0.0460205 0 -0.00587095)
(-0.0463538 0 -0.00712927)
(-0.0460429 0 -0.00666203)
(-0.0463815 0 -0.00801473)
(-0.0460682 0 -0.00754348)
(-0.0464152 0 -0.00888672)
(-0.0460992 0 -0.008421)
(-0.0464563 0 -0.00974042)
(-0.0461369 0 -0.0092734)
(-0.046506 0 -0.0105916)
(-0.0461825 0 -0.010113)
(-0.0465658 0 -0.0114582)
(-0.0462373 0 -0.0109592)
(-0.0466372 0 -0.0123544)
(-0.0463028 0 -0.0118284)
(-0.046722 0 -0.0132905)
(-0.0463807 0 -0.0127325)
(-0.0468221 0 -0.014274)
(-0.0464728 0 -0.0136802)
(-0.0469395 0 -0.0153105)
(-0.0465811 0 -0.0146777)
(-0.0470766 0 -0.0164047)
(-0.0467076 0 -0.0157301)
(-0.047236 0 -0.0175605)
(-0.0468549 0 -0.0168414)
(-0.0474205 0 -0.0187816)
(-0.0470255 0 -0.0180154)
(-0.0476333 0 -0.0200714)
(-0.0472225 0 -0.0192556)
(-0.047878 0 -0.0214332)
(-0.0474493 0 -0.0205653)
(-0.0481588 0 -0.0228703)
(-0.0477097 0 -0.0219477)
(-0.04848 0 -0.0243861)
(-0.0480077 0 -0.0234061)
(-0.0488468 0 -0.0259838)
(-0.0483482 0 -0.0249436)
(-0.0492649 0 -0.0276668)
(-0.0487364 0 -0.0265635)
(-0.0497407 0 -0.0294384)
(-0.0491784 0 -0.0282691)
(-0.0502814 0 -0.0313019)
(-0.0496808 0 -0.0300635)
(-0.0508953 0 -0.0332601)
(-0.0502511 0 -0.0319497)
(-0.0515916 0 -0.0353158)
(-0.050898 0 -0.0339305)
(-0.0523808 0 -0.037471)
(-0.0516311 0 -0.0360081)
(-0.0532748 0 -0.0397264)
(-0.0524613 0 -0.0381839)
(-0.0542871 0 -0.0420818)
(-0.053401 0 -0.0404579)
(-0.0554331 0 -0.0445338)
(-0.0544651 0 -0.0428286)
(-0.0567305 0 -0.0470742)
(-0.055667 0 -0.0452909)
(-0.0584551 0 -0.0501218)
(-0.0571451 0 -0.048049)
(-0.0603359 0 -0.0530904)
(-0.0589197 0 -0.0510086)
(-0.062379 0 -0.055968)
(-0.0608512 0 -0.0538827)
(-0.0645907 0 -0.0587372)
(-0.0629426 0 -0.0566567)
(-0.0669779 0 -0.0613752)
(-0.0652013 0 -0.05931)
(-0.0695479 0 -0.0638543)
(-0.067633 0 -0.0618171)
(-0.0723084 0 -0.0661423)
(-0.0702447 0 -0.0641482)
(-0.0752678 0 -0.0682014)
(-0.0730433 0 -0.0662681)
(-0.0784345 0 -0.069988)
(-0.0760359 0 -0.0681365)
(-0.0818171 0 -0.0714518)
(-0.0792299 0 -0.0697067)
(-0.0854241 0 -0.0725355)
(-0.0826324 0 -0.0709252)
(-0.0892638 0 -0.073173)
(-0.0862501 0 -0.0717307)
(-0.0933434 0 -0.0732895)
(-0.090089 0 -0.0720534)
(-0.0976683 0 -0.0727998)
(-0.0941531 0 -0.0718143)
(-0.102242 0 -0.0716078)
(-0.098444 0 -0.0709237)
(-0.107062 0 -0.0696046)
(-0.102959 0 -0.0692813)
(-0.11212 0 -0.0666676)
(-0.107692 0 -0.0667745)
(-0.117398 0 -0.0626629)
(-0.112627 0 -0.0632773)
(-0.122865 0 -0.0574371)
(-0.117729 0 -0.058655)
(-0.122969 0 -0.0527499)
(-0.0457132 0 -0.00557692)
(-0.0453825 0 -0.00529669)
(-0.0457328 0 -0.00622506)
(-0.0454046 0 -0.00580988)
(-0.0457565 0 -0.00705519)
(-0.0454282 0 -0.0065918)
(-0.0457853 0 -0.0079288)
(-0.0454546 0 -0.00746224)
(-0.0458201 0 -0.00878734)
(-0.0454866 0 -0.00832726)
(-0.0458621 0 -0.00962596)
(-0.0455252 0 -0.00916559)
(-0.0459125 0 -0.0104604)
(-0.0455716 0 -0.00998951)
(-0.0459728 0 -0.0113086)
(-0.045627 0 -0.0108184)
(-0.0460446 0 -0.0121849)
(-0.045693 0 -0.0116686)
(-0.0461295 0 -0.0130996)
(-0.0457711 0 -0.0125524)
(-0.0462294 0 -0.0140601)
(-0.0458631 0 -0.0134781)
(-0.0463463 0 -0.0150722)
(-0.0459709 0 -0.0144522)
(-0.0464825 0 -0.0161403)
(-0.0460967 0 -0.0154796)
(-0.0466405 0 -0.0172683)
(-0.0462427 0 -0.0165644)
(-0.0468231 0 -0.0184599)
(-0.0464117 0 -0.0177102)
(-0.0470335 0 -0.0197184)
(-0.0466065 0 -0.0189205)
(-0.0472751 0 -0.021047)
(-0.0468304 0 -0.0201984)
(-0.0475518 0 -0.0224488)
(-0.0470871 0 -0.021547)
(-0.0478682 0 -0.023927)
(-0.0473806 0 -0.0229694)
(-0.048229 0 -0.0254848)
(-0.0477155 0 -0.0244688)
(-0.0486399 0 -0.0271253)
(-0.048097 0 -0.0260481)
(-0.0491071 0 -0.0288515)
(-0.0485309 0 -0.0277104)
(-0.0496376 0 -0.0306666)
(-0.0490237 0 -0.0294586)
(-0.0502393 0 -0.0325732)
(-0.0495826 0 -0.0312957)
(-0.0509211 0 -0.0345737)
(-0.050216 0 -0.033224)
(-0.0516931 0 -0.0366697)
(-0.050933 0 -0.0352454)
(-0.0525669 0 -0.0388617)
(-0.0517444 0 -0.0373611)
(-0.0535552 0 -0.0411489)
(-0.0526617 0 -0.0395706)
(-0.0546729 0 -0.0435277)
(-0.0536993 0 -0.0418721)
(-0.0559366 0 -0.0459889)
(-0.05487 0 -0.0442599)
(-0.0576142 0 -0.0489366)
(-0.0563078 0 -0.0469306)
(-0.0594405 0 -0.0518017)
(-0.0580313 0 -0.0497911)
(-0.0614206 0 -0.054572)
(-0.0599035 0 -0.0525626)
(-0.0635597 0 -0.05723)
(-0.0619267 0 -0.0552306)
(-0.0658634 0 -0.0597525)
(-0.064107 0 -0.0577742)
(-0.0683374 0 -0.0621116)
(-0.0664485 0 -0.0601678)
(-0.0709876 0 -0.0642748)
(-0.0689567 0 -0.0623813)
(-0.0738202 0 -0.0662044)
(-0.0716365 0 -0.0643797)
(-0.0768412 0 -0.0678566)
(-0.0744928 0 -0.0661225)
(-0.0800563 0 -0.0691815)
(-0.0775303 0 -0.0675633)
(-0.0834708 0 -0.0701218)
(-0.0807532 0 -0.0686488)
(-0.0870892 0 -0.0706122)
(-0.0841647 0 -0.0693185)
(-0.0909142 0 -0.070579)
(-0.0877668 0 -0.0695034)
(-0.0949463 0 -0.0699386)
(-0.0915591 0 -0.0691262)
(-0.0991825 0 -0.0685975)
(-0.0955384 0 -0.0680996)
(-0.103615 0 -0.0664512)
(-0.0996964 0 -0.0663264)
(-0.108227 0 -0.0633829)
(-0.104019 0 -0.0636995)
(-0.112994 0 -0.0592657)
(-0.108486 0 -0.0600996)
(-0.117876 0 -0.0539612)
(-0.113056 0 -0.0553999)
(-0.117689 0 -0.0494616)
(-0.04508 0 -0.00551739)
(-0.0447322 0 -0.00523868)
(-0.0451006 0 -0.00615794)
(-0.0447555 0 -0.00574573)
(-0.0451254 0 -0.00697806)
(-0.0447801 0 -0.00651852)
(-0.0451551 0 -0.00784005)
(-0.0448075 0 -0.00737813)
(-0.0451909 0 -0.0086855)
(-0.0448405 0 -0.00823094)
(-0.0452337 0 -0.00950949)
(-0.04488 0 -0.00905564)
(-0.0452848 0 -0.0103277)
(-0.0449271 0 -0.00986435)
(-0.0453456 0 -0.0111581)
(-0.0449831 0 -0.0106764)
(-0.0454177 0 -0.012015)
(-0.0450494 0 -0.0115083)
(-0.0455026 0 -0.0129088)
(-0.0451277 0 -0.0123722)
(-0.0456022 0 -0.013847)
(-0.0452195 0 -0.0132767)
(-0.0457185 0 -0.0148352)
(-0.0453268 0 -0.014228)
(-0.0458536 0 -0.0158779)
(-0.0454517 0 -0.0152311)
(-0.0460101 0 -0.016979)
(-0.0455964 0 -0.0162901)
(-0.0461907 0 -0.018142)
(-0.0457636 0 -0.0174085)
(-0.0463984 0 -0.01937)
(-0.045956 0 -0.0185896)
(-0.0466366 0 -0.0206663)
(-0.0461768 0 -0.0198366)
(-0.0469092 0 -0.0220338)
(-0.0464296 0 -0.0211523)
(-0.0472203 0 -0.0234755)
(-0.0467183 0 -0.0225399)
(-0.0475749 0 -0.0249944)
(-0.0470474 0 -0.0240021)
(-0.0479783 0 -0.0265936)
(-0.047422 0 -0.025542)
(-0.0484364 0 -0.0282759)
(-0.0478475 0 -0.0271624)
(-0.0489562 0 -0.0300441)
(-0.0483302 0 -0.028866)
(-0.0495451 0 -0.0319007)
(-0.0488773 0 -0.0306555)
(-0.0502119 0 -0.0338478)
(-0.0494966 0 -0.0325331)
(-0.0509662 0 -0.0358867)
(-0.0501972 0 -0.0345003)
(-0.051819 0 -0.0380176)
(-0.050989 0 -0.036558)
(-0.0527827 0 -0.0402393)
(-0.0518833 0 -0.0387055)
(-0.0538711 0 -0.0425477)
(-0.0528938 0 -0.0409405)
(-0.0551003 0 -0.0449333)
(-0.0540325 0 -0.043257)
(-0.0567295 0 -0.0477857)
(-0.055429 0 -0.0458444)
(-0.0584999 0 -0.0505527)
(-0.0571004 0 -0.0486108)
(-0.0604156 0 -0.0532218)
(-0.0589121 0 -0.0512855)
(-0.0624806 0 -0.0557755)
(-0.0608659 0 -0.0538539)
(-0.0646991 0 -0.0581902)
(-0.0629663 0 -0.0562951)
(-0.0670754 0 -0.0604383)
(-0.0652164 0 -0.0585836)
(-0.0696136 0 -0.0624871)
(-0.0676199 0 -0.0606891)
(-0.0723178 0 -0.0642988)
(-0.0701797 0 -0.0625769)
(-0.0751916 0 -0.0658302)
(-0.0728986 0 -0.0642066)
(-0.0782381 0 -0.0670316)
(-0.0757788 0 -0.0655323)
(-0.0814593 0 -0.0678463)
(-0.0788217 0 -0.0665014)
(-0.0848561 0 -0.0682103)
(-0.0820273 0 -0.067054)
(-0.0884272 0 -0.068051)
(-0.0853937 0 -0.0671227)
(-0.0921686 0 -0.0672871)
(-0.0889166 0 -0.066632)
(-0.0960721 0 -0.0658278)
(-0.0925884 0 -0.0654973)
(-0.100124 0 -0.0635733)
(-0.096396 0 -0.063625)
(-0.104304 0 -0.0604132)
(-0.10032 0 -0.0609132)
(-0.108579 0 -0.0562283)
(-0.104335 0 -0.0572497)
(-0.112905 0 -0.0508919)
(-0.108395 0 -0.0525159)
(-0.112457 0 -0.0465881)
(-0.0444141 0 -0.0054549)
(-0.0440497 0 -0.00517774)
(-0.0444357 0 -0.00608785)
(-0.0440742 0 -0.00567863)
(-0.0444614 0 -0.00689806)
(-0.0440999 0 -0.00644232)
(-0.0444921 0 -0.00774866)
(-0.0441283 0 -0.00729126)
(-0.0445288 0 -0.00858139)
(-0.0441622 0 -0.00813218)
(-0.0445724 0 -0.00939119)
(-0.0442026 0 -0.00894364)
(-0.0446242 0 -0.0101937)
(-0.0442504 0 -0.00973763)
(-0.0446854 0 -0.0110068)
(-0.0443069 0 -0.0105334)
(-0.0447577 0 -0.0118449)
(-0.0443735 0 -0.0113476)
(-0.0448425 0 -0.0127184)
(-0.0444518 0 -0.0121922)
(-0.0449417 0 -0.0136349)
(-0.0445434 0 -0.0130759)
(-0.0450573 0 -0.0145999)
(-0.0446501 0 -0.0140051)
(-0.0451913 0 -0.015618)
(-0.0447741 0 -0.0149846)
(-0.0453462 0 -0.0166929)
(-0.0449174 0 -0.0160186)
(-0.0455246 0 -0.017828)
(-0.0450826 0 -0.0171104)
(-0.0457294 0 -0.0190264)
(-0.0452724 0 -0.0182632)
(-0.0459641 0 -0.0202913)
(-0.04549 0 -0.0194802)
(-0.0462322 0 -0.0216254)
(-0.0457387 0 -0.0207641)
(-0.046538 0 -0.0230318)
(-0.0460225 0 -0.0221178)
(-0.0468861 0 -0.0245131)
(-0.0463456 0 -0.0235441)
(-0.0472816 0 -0.0260723)
(-0.0467129 0 -0.0250458)
(-0.0477304 0 -0.027712)
(-0.0471297 0 -0.0266256)
(-0.0482391 0 -0.0294349)
(-0.0476022 0 -0.0282861)
(-0.048815 0 -0.0312432)
(-0.0481371 0 -0.0300296)
(-0.0494663 0 -0.0331388)
(-0.048742 0 -0.0318582)
(-0.0502024 0 -0.0351227)
(-0.0494257 0 -0.0337732)
(-0.0510337 0 -0.0371948)
(-0.0501976 0 -0.0357751)
(-0.051972 0 -0.0393536)
(-0.0510684 0 -0.0378632)
(-0.0530306 0 -0.0415948)
(-0.0520512 0 -0.0400345)
(-0.0542245 0 -0.0439081)
(-0.0531574 0 -0.0422829)
(-0.0558045 0 -0.04667)
(-0.054512 0 -0.0447911)
(-0.0575181 0 -0.0493441)
(-0.0561304 0 -0.0474684)
(-0.0593684 0 -0.0519181)
(-0.057881 0 -0.050052)
(-0.0613583 0 -0.0543742)
(-0.0597646 0 -0.0525273)
(-0.0634907 0 -0.0566892)
(-0.0617846 0 -0.0548735)
(-0.0657684 0 -0.0588351)
(-0.0639427 0 -0.0570651)
(-0.0681938 0 -0.0607797)
(-0.0662409 0 -0.0590721)
(-0.070769 0 -0.0624854)
(-0.0686804 0 -0.0608601)
(-0.0734953 0 -0.0639094)
(-0.071262 0 -0.0623891)
(-0.0763731 0 -0.0650026)
(-0.0739854 0 -0.0636138)
(-0.0794017 0 -0.0657093)
(-0.0768493 0 -0.0644823)
(-0.0825784 0 -0.0659665)
(-0.0798506 0 -0.0649361)
(-0.0858984 0 -0.0657036)
(-0.0829842 0 -0.0649094)
(-0.0893534 0 -0.0648417)
(-0.086242 0 -0.0643286)
(-0.0929311 0 -0.0632934)
(-0.0896126 0 -0.0631122)
(-0.0966133 0 -0.0609629)
(-0.093079 0 -0.0611703)
(-0.100374 0 -0.0577465)
(-0.0966174 0 -0.0584057)
(-0.104179 0 -0.0535323)
(-0.100198 0 -0.0547136)
(-0.107978 0 -0.0482045)
(-0.103774 0 -0.0499831)
(-0.107298 0 -0.0441027)
(-0.0437166 0 -0.0053895)
(-0.0433363 0 -0.00511392)
(-0.0437391 0 -0.00601485)
(-0.0433619 0 -0.00560858)
(-0.0437658 0 -0.00681524)
(-0.0433886 0 -0.0063632)
(-0.0437975 0 -0.00765469)
(-0.043418 0 -0.00720163)
(-0.0438351 0 -0.00847505)
(-0.0434529 0 -0.00803097)
(-0.0438795 0 -0.00927113)
(-0.0434941 0 -0.00882963)
(-0.0439318 0 -0.0100584)
(-0.0435426 0 -0.0096094)
(-0.0439935 0 -0.0108548)
(-0.0435997 0 -0.0103895)
(-0.0440659 0 -0.0116747)
(-0.0436666 0 -0.0111864)
(-0.0441506 0 -0.0125286)
(-0.0437449 0 -0.0120124)
(-0.0442494 0 -0.0134239)
(-0.0438362 0 -0.0128761)
(-0.0443642 0 -0.0143665)
(-0.0439423 0 -0.0137838)
(-0.0444969 0 -0.0153606)
(-0.0440652 0 -0.0147405)
(-0.0446501 0 -0.01641)
(-0.044207 0 -0.0157501)
(-0.0448262 0 -0.0175181)
(-0.0443702 0 -0.0168161)
(-0.0450281 0 -0.0186879)
(-0.0445573 0 -0.0179415)
(-0.045259 0 -0.0199223)
(-0.0447715 0 -0.0191294)
(-0.0455226 0 -0.0212242)
(-0.0450161 0 -0.0203824)
(-0.0458228 0 -0.0225962)
(-0.0452947 0 -0.0217034)
(-0.0461642 0 -0.0240411)
(-0.0456116 0 -0.0230949)
(-0.0465517 0 -0.0255616)
(-0.0459715 0 -0.0245597)
(-0.0469909 0 -0.0271602)
(-0.0463795 0 -0.0261003)
(-0.0474882 0 -0.0288393)
(-0.0468415 0 -0.027719)
(-0.0480507 0 -0.030601)
(-0.047364 0 -0.0294182)
(-0.0486863 0 -0.032447)
(-0.0479543 0 -0.0311996)
(-0.0494038 0 -0.034378)
(-0.0486208 0 -0.0330644)
(-0.0502133 0 -0.0363938)
(-0.0493725 0 -0.0350128)
(-0.0511259 0 -0.0384924)
(-0.0502196 0 -0.0370438)
(-0.0521542 0 -0.0406692)
(-0.0511744 0 -0.0391544)
(-0.0533124 0 -0.0429138)
(-0.0522477 0 -0.041338)
(-0.0548426 0 -0.0455898)
(-0.0535601 0 -0.043771)
(-0.0564988 0 -0.0481766)
(-0.0551251 0 -0.0463642)
(-0.0582832 0 -0.0506615)
(-0.0568142 0 -0.0488624)
(-0.0601976 0 -0.053027)
(-0.0586274 0 -0.0512511)
(-0.0622436 0 -0.0552498)
(-0.0605669 0 -0.0535094)
(-0.0644226 0 -0.0573025)
(-0.0626331 0 -0.0556124)
(-0.0667353 0 -0.059153)
(-0.0648264 0 -0.0575303)
(-0.0691819 0 -0.0607642)
(-0.0671464 0 -0.059229)
(-0.0717614 0 -0.0620938)
(-0.0695917 0 -0.0606694)
(-0.074472 0 -0.0630937)
(-0.0721598 0 -0.0618067)
(-0.0773099 0 -0.0637092)
(-0.0748469 0 -0.0625904)
(-0.0802696 0 -0.0638788)
(-0.0776471 0 -0.062963)
(-0.0833428 0 -0.0635339)
(-0.0805522 0 -0.0628606)
(-0.0865178 0 -0.0625982)
(-0.0835509 0 -0.062212)
(-0.0897783 0 -0.0609876)
(-0.0866283 0 -0.0609385)
(-0.0931025 0 -0.0586108)
(-0.0897641 0 -0.0589542)
(-0.0964615 0 -0.0553697)
(-0.0929312 0 -0.0561664)
(-0.0998169 0 -0.0511598)
(-0.096097 0 -0.0524768)
(-0.103119 0 -0.0458746)
(-0.0992133 0 -0.0477818)
(-0.102232 0 -0.0419792)
(-0.0429887 0 -0.00532117)
(-0.0425932 0 -0.00504714)
(-0.0430121 0 -0.0059389)
(-0.0426199 0 -0.00553553)
(-0.0430398 0 -0.00672956)
(-0.0426478 0 -0.00628109)
(-0.0430725 0 -0.0075581)
(-0.0426782 0 -0.00710917)
(-0.043111 0 -0.00836646)
(-0.0427141 0 -0.00792724)
(-0.0431562 0 -0.00914928)
(-0.0427562 0 -0.00871354)
(-0.0432092 0 -0.00992186)
(-0.0428054 0 -0.00947963)
(-0.0432713 0 -0.0107021)
(-0.042863 0 -0.0102446)
(-0.0433439 0 -0.0115044)
(-0.0429302 0 -0.0110249)
(-0.0434284 0 -0.0123392)
(-0.0430085 0 -0.0118329)
(-0.0435267 0 -0.0132142)
(-0.0430995 0 -0.0126772)
(-0.0436406 0 -0.014135)
(-0.0432049 0 -0.0135642)
(-0.0437721 0 -0.0151059)
(-0.0433267 0 -0.0144987)
(-0.0439234 0 -0.0161307)
(-0.0434669 0 -0.0154848)
(-0.0440971 0 -0.0172126)
(-0.0436279 0 -0.0165258)
(-0.044296 0 -0.0183547)
(-0.0438123 0 -0.0176247)
(-0.0445231 0 -0.0195596)
(-0.044023 0 -0.0187844)
(-0.044782 0 -0.0208301)
(-0.0442633 0 -0.0200076)
(-0.0450765 0 -0.022169)
(-0.0445367 0 -0.0212969)
(-0.0454109 0 -0.0235787)
(-0.0448473 0 -0.0226548)
(-0.0457902 0 -0.0250617)
(-0.0451996 0 -0.0240839)
(-0.0462197 0 -0.0266206)
(-0.0455986 0 -0.0255866)
(-0.0467056 0 -0.0282575)
(-0.04605 0 -0.0271651)
(-0.0472545 0 -0.0299743)
(-0.04656 0 -0.0288216)
(-0.0478741 0 -0.0317726)
(-0.0471356 0 -0.0305575)
(-0.0485729 0 -0.0336528)
(-0.0477847 0 -0.0323741)
(-0.0493604 0 -0.0356145)
(-0.0485161 0 -0.0342713)
(-0.0502471 0 -0.0376557)
(-0.0493394 0 -0.0362478)
(-0.0512449 0 -0.0397712)
(-0.0502661 0 -0.0383004)
(-0.0523672 0 -0.0419505)
(-0.0513065 0 -0.0404223)
(-0.0538473 0 -0.0445455)
(-0.0525764 0 -0.0427842)
(-0.055446 0 -0.0470502)
(-0.054088 0 -0.0452984)
(-0.0571644 0 -0.0494521)
(-0.0557158 0 -0.0477167)
(-0.0590034 0 -0.0517337)
(-0.0574589 0 -0.050025)
(-0.0609634 0 -0.0538722)
(-0.0593184 0 -0.0522028)
(-0.0630443 0 -0.0558403)
(-0.0612934 0 -0.0542251)
(-0.0652451 0 -0.0576065)
(-0.0633829 0 -0.056063)
(-0.0675643 0 -0.0591344)
(-0.0655848 0 -0.0576829)
(-0.069999 0 -0.0603824)
(-0.0678957 0 -0.0590463)
(-0.0725447 0 -0.0613033)
(-0.0703112 0 -0.0601096)
(-0.0751954 0 -0.0618439)
(-0.072825 0 -0.0608232)
(-0.0779426 0 -0.0619442)
(-0.0754286 0 -0.0611316)
(-0.080775 0 -0.0615378)
(-0.0781109 0 -0.0609724)
(-0.0836775 0 -0.0605511)
(-0.0808577 0 -0.060277)
(-0.086631 0 -0.0589033)
(-0.0836514 0 -0.0589696)
(-0.0896105 0 -0.0565072)
(-0.0864688 0 -0.0569679)
(-0.0925846 0 -0.0532701)
(-0.0892799 0 -0.0541837)
(-0.0955134 0 -0.049094)
(-0.0920499 0 -0.0505242)
(-0.0983476 0 -0.0438801)
(-0.0947315 0 -0.0458925)
(-0.0972765 0 -0.0401934)
(-0.0422319 0 -0.00524982)
(-0.0418222 0 -0.00497734)
(-0.0422564 0 -0.0058599)
(-0.0418501 0 -0.00545939)
(-0.0422851 0 -0.00664092)
(-0.0418791 0 -0.00619591)
(-0.0423188 0 -0.00745877)
(-0.0419105 0 -0.0070138)
(-0.0423583 0 -0.00825553)
(-0.0419474 0 -0.00782092)
(-0.0424043 0 -0.00902559)
(-0.0419904 0 -0.00859533)
(-0.0424579 0 -0.00978406)
(-0.0420404 0 -0.00934829)
(-0.0425204 0 -0.0105487)
(-0.0420985 0 -0.0100987)
(-0.0425931 0 -0.0113341)
(-0.0421659 0 -0.0108631)
(-0.0426775 0 -0.0121506)
(-0.0422442 0 -0.0116537)
(-0.0427753 0 -0.0130059)
(-0.0423348 0 -0.0124793)
(-0.0428882 0 -0.0139056)
(-0.0424395 0 -0.0133463)
(-0.0430183 0 -0.0148541)
(-0.0425601 0 -0.0142595)
(-0.0431678 0 -0.015855)
(-0.0426986 0 -0.0152228)
(-0.043339 0 -0.0169117)
(-0.0428574 0 -0.0162397)
(-0.0435347 0 -0.0180268)
(-0.043039 0 -0.0173129)
(-0.0437579 0 -0.0192032)
(-0.0432461 0 -0.0184454)
(-0.0440119 0 -0.0204435)
(-0.043482 0 -0.0196397)
(-0.0443006 0 -0.0217503)
(-0.0437501 0 -0.0208984)
(-0.0446281 0 -0.0231259)
(-0.0440543 0 -0.0222238)
(-0.0449991 0 -0.0245729)
(-0.044399 0 -0.0236185)
(-0.0454188 0 -0.0260934)
(-0.044789 0 -0.0250846)
(-0.045893 0 -0.0276897)
(-0.0452296 0 -0.0266244)
(-0.0464283 0 -0.0293633)
(-0.045727 0 -0.0282397)
(-0.0470319 0 -0.0311157)
(-0.0462879 0 -0.0299321)
(-0.0477119 0 -0.0329473)
(-0.0469197 0 -0.0317024)
(-0.0484773 0 -0.0348573)
(-0.0476308 0 -0.0335505)
(-0.0493381 0 -0.0368436)
(-0.0484302 0 -0.035475)
(-0.0503054 0 -0.038901)
(-0.049329 0 -0.0374725)
(-0.0513918 0 -0.0410184)
(-0.0503365 0 -0.039536)
(-0.0528219 0 -0.0435371)
(-0.0515642 0 -0.0418308)
(-0.0543633 0 -0.045965)
(-0.0530227 0 -0.0442708)
(-0.0560162 0 -0.0482897)
(-0.0545896 0 -0.0466148)
(-0.0577805 0 -0.0504941)
(-0.0562634 0 -0.0488488)
(-0.0596554 0 -0.0525557)
(-0.058044 0 -0.0509529)
(-0.0616393 0 -0.0544478)
(-0.0599292 0 -0.0529025)
(-0.06373 0 -0.0561393)
(-0.0619167 0 -0.0546692)
(-0.0659241 0 -0.0575947)
(-0.0640027 0 -0.0562202)
(-0.0682166 0 -0.0587732)
(-0.0661822 0 -0.0575179)
(-0.0706012 0 -0.0596291)
(-0.0684488 0 -0.0585199)
(-0.0730692 0 -0.0601103)
(-0.0707938 0 -0.0591779)
(-0.0756096 0 -0.0601589)
(-0.0732063 0 -0.059438)
(-0.0782082 0 -0.0597103)
(-0.0756727 0 -0.05924)
(-0.0808474 0 -0.0586939)
(-0.0781764 0 -0.0585175)
(-0.0835052 0 -0.0570321)
(-0.0806968 0 -0.0571977)
(-0.0861542 0 -0.0546417)
(-0.0832087 0 -0.0552019)
(-0.0887611 0 -0.0514344)
(-0.0856798 0 -0.0524457)
(-0.0912854 0 -0.0473182)
(-0.0880735 0 -0.0488414)
(-0.0936786 0 -0.0422001)
(-0.0903439 0 -0.0442972)
(-0.0924437 0 -0.0387234)
(-0.0414482 0 -0.00517539)
(-0.0410254 0 -0.00490453)
(-0.0414737 0 -0.0057778)
(-0.0410544 0 -0.00538019)
(-0.0415034 0 -0.00654924)
(-0.0410845 0 -0.00610765)
(-0.0415382 0 -0.00735666)
(-0.041117 0 -0.00691551)
(-0.0415786 0 -0.00814222)
(-0.0411548 0 -0.00771204)
(-0.0416254 0 -0.00890004)
(-0.0411987 0 -0.00847504)
(-0.0416797 0 -0.009645)
(-0.0412493 0 -0.00921544)
(-0.0417425 0 -0.0103948)
(-0.0413079 0 -0.00995198)
(-0.0418153 0 -0.0111638)
(-0.0413755 0 -0.0107011)
(-0.0418995 0 -0.0119627)
(-0.0414536 0 -0.0114751)
(-0.0419966 0 -0.012799)
(-0.0415438 0 -0.0122827)
(-0.0421086 0 -0.0136784)
(-0.0416477 0 -0.0131304)
(-0.0422372 0 -0.0146053)
(-0.041767 0 -0.014023)
(-0.0423847 0 -0.0155832)
(-0.0419038 0 -0.0149643)
(-0.0425534 0 -0.0166153)
(-0.0420603 0 -0.0159578)
(-0.0427458 0 -0.0177045)
(-0.042239 0 -0.0170063)
(-0.042965 0 -0.0188534)
(-0.0424425 0 -0.0181125)
(-0.0432142 0 -0.0200645)
(-0.042674 0 -0.0192789)
(-0.043497 0 -0.0213402)
(-0.0429367 0 -0.020508)
(-0.0438175 0 -0.022683)
(-0.0432345 0 -0.0218021)
(-0.0441802 0 -0.0240952)
(-0.0435715 0 -0.0231635)
(-0.04459 0 -0.0255788)
(-0.0439524 0 -0.0245945)
(-0.0450526 0 -0.0271359)
(-0.0443824 0 -0.0260969)