/*--------------------------------*- C++ -*----------------------------------*\
  =========                 |
  \\      /  F ield         | OpenFOAM: The Open Source CFD Toolbox
   \\    /   O peration     | Website:  https://openfoam.org
    \\  /    A nd           | Version:  9
     \\/     M anipulation  |
\*---------------------------------------------------------------------------*/
FoamFile
{
    format      ascii;
    class       volScalarField;
    location    "0.09";
    object      alpha.water;
}
// * * * * * * * * * * * * * * * * * * * * * * * * * * * * * * * * * * * * * //

dimensions      [0 0 0 0 0 0 0];

internalField   nonuniform List<scalar> 
5000
(
4.53157e-319
4.3295e-319
4.13582e-319
3.94996e-319
3.7717e-319
3.60055e-319
3.43623e-319
3.27862e-319
3.12763e-319
2.98297e-319
2.84473e-319
2.71262e-319
2.58653e-319
2.46638e-319
2.35195e-319
2.24296e-319
2.1393e-319
2.04089e-319
1.94761e-319
1.86016e-319
1.78022e-319
1.71194e-319
1.6569e-319
1.59563e-319
1.50384e-319
1.41382e-319
1.3405e-319
1.27785e-319
1.22094e-319
1.16856e-319
9.62638e-320
9.66985e-320
9.65701e-320
9.62045e-320
9.59871e-320
9.59278e-320
9.59673e-320
9.60167e-320
9.6076e-320
9.61353e-320
9.62045e-320
9.62638e-320
9.6323e-320
9.63823e-320
9.64515e-320
9.65207e-320
9.65997e-320
9.66985e-320
9.67973e-320
9.68962e-320
4.53098e-319
4.329e-319
4.13533e-319
3.94956e-319
3.7713e-319
3.60016e-319
3.43583e-319
3.27822e-319
3.12724e-319
2.98267e-319
2.84443e-319
2.71222e-319
2.58624e-319
2.46618e-319
2.35165e-319
2.24276e-319
2.13921e-319
2.04079e-319
1.94761e-319
1.86026e-319
1.78041e-319
1.71223e-319
1.6568e-319
1.59514e-319
1.50413e-319
1.41402e-319
1.3404e-319
1.27765e-319
1.22094e-319
1.16866e-319
9.62736e-320
9.66985e-320
9.658e-320
9.62045e-320
9.59871e-320
9.59278e-320
9.59673e-320
9.60167e-320
9.6076e-320
9.61452e-320
9.62045e-320
9.62638e-320
9.6323e-320
9.63823e-320
9.64515e-320
9.65207e-320
9.65997e-320
9.66985e-320
9.67973e-320
9.68962e-320
4.53048e-319
4.32841e-319
4.13493e-319
3.94917e-319
3.77091e-319
3.59976e-319
3.43553e-319
3.27803e-319
3.12704e-319
2.98238e-319
2.84414e-319
2.71203e-319
2.58604e-319
2.46588e-319
2.35146e-319
2.24256e-319
2.13901e-319
2.04069e-319
1.94751e-319
1.86016e-319
1.78061e-319
1.71263e-319
1.6569e-319
1.59445e-319
1.50433e-319
1.41421e-319
1.3403e-319
1.27765e-319
1.22084e-319
1.16876e-319
9.62835e-320
9.66985e-320
9.658e-320
9.62045e-320
9.59871e-320
9.59278e-320
9.59673e-320
9.60167e-320
9.6076e-320
9.61452e-320
9.62045e-320
9.62638e-320
9.6323e-320
9.63823e-320
9.64515e-320
9.65207e-320
9.65997e-320
9.66985e-320
1.93595e-319
1.64729e-318
4.52999e-319
4.32802e-319
4.13454e-319
3.94887e-319
3.77071e-319
3.59956e-319
3.43534e-319
3.27783e-319
3.12684e-319
2.98228e-319
2.84404e-319
2.71183e-319
2.58584e-319
2.46568e-319
2.35126e-319
2.24237e-319
2.13881e-319
2.04049e-319
1.94731e-319
1.86006e-319
1.78081e-319
1.71322e-319
1.6571e-319
1.59376e-319
1.50433e-319
1.41451e-319
1.3403e-319
1.27746e-319
1.22074e-319
1.16876e-319
9.62835e-320
9.67084e-320
9.658e-320
9.62045e-320
9.59871e-320
9.59278e-320
9.59673e-320
9.60167e-320
9.60859e-320
9.61452e-320
9.62045e-320
9.62638e-320
9.6323e-320
9.63922e-320
9.64614e-320
9.65207e-320
9.66096e-320
8.70287e-319
6.3888e-318
4.66094e-317
4.52969e-319
4.32782e-319
4.13434e-319
3.94867e-319
3.77051e-319
3.59937e-319
3.43524e-319
3.27773e-319
3.12674e-319
2.98218e-319
2.84384e-319
2.71173e-319
2.58564e-319
2.46549e-319
2.35106e-319
2.24207e-319
2.13851e-319
2.04019e-319
1.94701e-319
1.85996e-319
1.78091e-319
1.71381e-319
1.6571e-319
1.59307e-319
1.50453e-319
1.41481e-319
1.3403e-319
1.27736e-319
1.22074e-319
1.16876e-319
9.62934e-320
9.67183e-320
9.65898e-320
9.62143e-320
9.59871e-320
9.59278e-320
9.59673e-320
9.60266e-320
9.60859e-320
9.61452e-320
9.62045e-320
9.62736e-320
9.63329e-320
9.63922e-320
9.64614e-320
3.86112e-319
2.70505e-318
1.91468e-317
1.37943e-316
9.6612e-316
4.5294e-319
4.32752e-319
4.13414e-319
3.94857e-319
3.77031e-319
3.59937e-319
3.43514e-319
3.27763e-319
3.12665e-319
2.98218e-319
2.84384e-319
2.71163e-319
2.58554e-319
2.46539e-319
2.35086e-319
2.24187e-319
2.13832e-319
2.0399e-319
1.94682e-319
1.85986e-319
1.78111e-319
1.71421e-319
1.65729e-319
1.59257e-319
1.50453e-319
1.415e-319
1.3403e-319
1.27726e-319
1.22074e-319
1.16886e-319
4.81516e-319
1.06394e-318
6.76158e-319
9.62143e-320
9.59871e-320
9.59278e-320
9.59673e-320
9.60266e-320
9.60859e-320
9.61452e-320
9.62045e-320
9.62736e-320
9.63329e-320
1.92784e-319
1.1575e-318
7.23972e-318
4.92716e-317
3.38751e-316
2.3534e-315
1.61352e-314
4.5292e-319
4.32742e-319
4.13395e-319
3.94838e-319
3.77031e-319
3.59937e-319
3.43514e-319
3.27773e-319
3.12665e-319
2.98208e-319
2.84374e-319
2.71163e-319
2.58535e-319
2.46519e-319
2.35067e-319
2.24167e-319
2.13812e-319
2.0397e-319
1.94662e-319
1.85966e-319
1.7814e-319
1.7147e-319
1.65729e-319
4.77603e-319
1.50463e-319
1.4154e-319
1.3403e-319
1.27706e-319
4.88246e-319
1.87022e-318
6.54922e-318
1.33487e-317
8.01788e-318
2.30927e-318
4.79906e-319
9.59278e-320
9.59673e-320
9.60266e-320
9.60859e-320
9.61452e-320
9.62143e-320
9.62736e-320
4.81674e-319
3.47027e-318
2.09319e-317
1.24237e-316
7.75902e-316
5.06515e-315
3.39026e-314
2.26764e-313
4.5292e-319
4.32732e-319
4.13395e-319
3.94838e-319
3.77031e-319
3.59937e-319
3.43524e-319
3.27783e-319
3.12674e-319
2.98218e-319
2.84374e-319
2.71153e-319
2.58535e-319
2.46499e-319
2.35047e-319
2.24148e-319
2.13782e-319
2.0394e-319
1.94642e-319
1.85966e-319
1.7816e-319
3.4302e-319
1.65737e-318
3.34224e-318
1.35419e-318
1.4156e-319
1.3403e-319
1.02161e-318
4.76012e-318
1.96379e-317
6.27051e-317
1.25857e-316
7.50645e-317
2.28051e-317
5.08702e-318
9.59278e-319
9.59673e-320
9.60266e-320
9.60859e-320
9.61452e-320
3.84857e-319
1.92557e-318
1.12716e-317
6.17916e-317
3.35305e-316
1.86466e-315
1.08703e-314
6.67784e-314
4.2669e-313
2.76507e-312
4.5292e-319
4.32742e-319
4.13395e-319
3.94847e-319
3.77041e-319
3.59947e-319
3.43534e-319
3.27783e-319
3.12684e-319
2.98218e-319
2.84374e-319
2.71143e-319
2.58525e-319
2.46499e-319
2.35037e-319
2.24128e-319
2.13753e-319
2.03911e-319
1.94622e-319
1.85956e-319
5.3453e-319
2.40174e-318
8.95e-318
1.68655e-317
7.37299e-318
1.98217e-318
2.14456e-318
9.3214e-318
4.14964e-317
1.65175e-316
5.22498e-316
1.03404e-315
6.16795e-316
1.89089e-316
4.3576e-317
8.82528e-318
1.63138e-318
1.92053e-319
1.92172e-319
9.61511e-319
6.15792e-318
3.36984e-317
1.79773e-316
9.38469e-316
4.86148e-315
2.55286e-314
1.39014e-313
7.97674e-313
4.81489e-312
2.996e-311
4.5294e-319
4.32742e-319
4.13414e-319
3.94857e-319
3.77051e-319
3.59956e-319
3.43553e-319
3.27803e-319
3.12694e-319
2.98228e-319
2.84384e-319
2.71143e-319
2.58515e-319
2.46479e-319
2.35017e-319
2.24108e-319
2.13733e-319
2.03891e-319
1.94593e-319
3.71893e-319
2.67299e-318
1.14967e-317
3.99438e-317
7.38063e-317
3.40064e-317
1.14701e-317
1.75588e-317
7.18836e-317
3.15479e-316
1.24243e-315
3.88147e-315
7.57871e-315
4.53224e-315
1.3977e-315
3.24232e-316
6.75325e-317
1.35309e-317
2.78471e-318
3.07483e-318
1.56731e-317
8.92924e-317
4.84116e-316
2.53637e-315
1.29188e-314
6.46648e-314
3.23308e-313
1.65125e-312
8.81725e-312
4.97848e-311
2.94299e-310
4.5295e-319
4.32762e-319
4.13434e-319
3.94877e-319
3.77071e-319
3.59976e-319
3.43573e-319
3.27822e-319
3.12704e-319
2.98238e-319
2.84384e-319
2.71153e-319
2.58515e-319
2.46479e-319
2.34997e-319
2.24088e-319
2.13713e-319
2.03871e-319
3.89146e-319
2.23134e-318
1.08715e-317
4.83992e-317
1.63255e-316
2.9658e-316
1.48364e-316
6.41579e-317
1.21171e-316
5.0008e-316
2.16809e-315
8.4515e-315
2.60927e-314
5.0264e-314
3.01303e-314
9.34171e-315
2.17809e-315
4.57284e-316
9.32778e-317
2.38145e-317
3.92051e-317
2.09622e-316
1.17036e-315
6.29054e-315
3.25514e-314
1.62894e-313
7.9402e-313
3.81498e-312
1.84159e-311
9.16242e-311
4.80477e-310
2.66786e-309
4.52979e-319
4.32792e-319
4.13454e-319
3.94897e-319
3.77091e-319
3.59996e-319
3.43593e-319
3.27842e-319
3.12724e-319
2.98258e-319
2.84404e-319
2.71163e-319
2.58515e-319
2.4647e-319
2.34997e-319
2.24069e-319
2.13693e-319
4.07683e-319
1.75097e-318
9.11108e-318
4.4383e-317
1.92091e-316
6.3246e-316
1.1377e-315
6.27007e-316
3.46901e-316
7.67118e-316
3.16978e-315
1.36131e-314
5.2542e-314
1.60345e-313
3.04732e-313
1.83052e-313
5.70469e-314
1.33697e-314
2.82448e-315
5.85775e-316
1.85239e-316
4.56251e-316
2.5241e-315
1.40205e-314
7.48129e-314
3.83427e-313
1.8929e-312
9.04171e-312
4.21095e-311
1.93964e-310
9.04507e-310
4.39404e-309
2.26815e-308
4.52999e-319
4.32821e-319
4.13474e-319
3.94936e-319
3.7713e-319
3.60036e-319
3.43613e-319
3.27862e-319
3.12753e-319
2.98277e-319
2.84414e-319
2.71163e-319
2.58515e-319
2.4646e-319
2.34978e-319
2.24049e-319
2.13674e-319
1.22289e-318
6.80866e-318
3.57e-317
1.71315e-316
7.26785e-316
2.35709e-315
4.23992e-315
2.62445e-315
1.83647e-315
4.50055e-315
1.85155e-314
7.87839e-314
3.01089e-313
9.08244e-313
1.70293e-312
1.02482e-312
3.20956e-313
7.56055e-314
1.60706e-314
3.41623e-315
1.46129e-315
4.97451e-315
2.79866e-314
1.54723e-313
8.20445e-313
4.17198e-312
2.03786e-311
9.58444e-311
4.35843e-310
1.9341e-309
8.53106e-309
3.85012e-308
1.83466e-307
4.53038e-319
4.32861e-319
4.13513e-319
3.94966e-319
3.7716e-319
3.60055e-319
3.43642e-319
3.27892e-319
3.12783e-319
2.98297e-319
2.84424e-319
2.71183e-319
2.58525e-319
2.4646e-319
2.34968e-319
2.24039e-319
1.06823e-318
5.29864e-318
2.72322e-317
1.34246e-316
6.35072e-316
2.66793e-315
8.5791e-315
1.56003e-314
1.09921e-314
9.42441e-315
2.45844e-314
1.00411e-313
4.23253e-313
1.60159e-312
4.7753e-312
8.83344e-312
5.32415e-312
1.67536e-312
3.96636e-313
8.48671e-314
1.87938e-314
1.18767e-314
5.07684e-314
2.87655e-313
1.58304e-312
8.34781e-312
4.21678e-311
2.04221e-310
9.49045e-310
4.23807e-309
1.82737e-308
7.70293e-308
3.25386e-307
1.42879e-306
4.53088e-319
4.329e-319
4.13553e-319
3.94996e-319
3.77189e-319
3.60095e-319
3.43672e-319
3.27921e-319
3.12803e-319
2.98317e-319
2.84443e-319
2.71183e-319
2.58535e-319
2.4646e-319
2.34958e-319
8.96087e-319
4.27252e-318
2.07847e-317
1.00556e-316
4.90313e-316
2.29883e-315
9.60417e-315
3.08219e-314
5.72346e-314
4.60221e-314
4.64524e-314
1.25637e-313
5.08586e-313
2.12349e-312
7.95548e-312
2.34443e-311
4.27858e-311
2.58209e-311
8.16222e-312
1.94196e-312
4.18725e-313
9.94968e-314
9.84872e-314
4.85613e-313
2.75628e-312
1.51008e-311
7.92274e-311
3.97888e-310
1.91336e-309
8.80773e-309
3.879e-308
1.6364e-307
6.65729e-307
2.65939e-306
1.08036e-305
4.53137e-319
4.3294e-319
4.13602e-319
3.95045e-319
3.77229e-319
3.60134e-319
3.43712e-319
3.27961e-319
3.12842e-319
2.98337e-319
2.84463e-319
2.71203e-319
2.58535e-319
2.4646e-319
7.04864e-319
3.58413e-318
1.64478e-317
7.51841e-317
3.60766e-316
1.75022e-315
8.18585e-315
3.41625e-314
1.10016e-313
2.10079e-313
1.9119e-313
2.18692e-313
6.03351e-313
2.4184e-312
1.00007e-311
3.7092e-311
1.0803e-310
1.94508e-310
1.175e-310
3.73061e-311
8.91968e-312
1.94242e-312
5.20488e-313
8.15549e-313
4.36381e-312
2.47417e-311
1.3496e-310
7.04712e-310
3.52062e-309
1.68268e-308
7.68622e-308
3.34875e-307
1.38951e-306
5.50169e-306
2.10135e-305
7.96703e-305
4.53197e-319
4.32999e-319
4.13652e-319
3.95094e-319
3.77288e-319
3.60174e-319
3.43751e-319
3.2799e-319
3.12862e-319
2.98376e-319
2.84493e-319
2.71222e-319
2.58545e-319
4.92919e-319
3.52421e-318
1.36637e-317
5.85234e-317
2.65257e-316
1.26949e-315
6.15511e-315
2.88151e-314
1.20497e-313
3.90708e-313
7.69315e-313
7.80503e-313
9.80957e-313
2.73387e-312
1.08449e-311
4.44119e-311
1.63057e-310
4.69319e-310
8.33646e-310
5.03959e-310
1.60682e-310
3.86102e-311
8.52895e-312
2.77581e-312
6.61165e-312
3.695e-311
2.08964e-310
1.13495e-309
5.89935e-309
2.9329e-308
1.39418e-307
6.32705e-307
2.73294e-306
1.1197e-305
4.34361e-305
1.60239e-304
5.73468e-304
4.53256e-319
4.33058e-319
4.13711e-319
3.95144e-319
3.77328e-319
3.60223e-319
3.43801e-319
3.2804e-319
3.12902e-319
2.98406e-319
2.84523e-319
2.71242e-319
5.17109e-319
2.71108e-318
1.2217e-317
4.79324e-317
2.03106e-316
9.20775e-316
4.40089e-315
2.13828e-314
1.00384e-313
4.21237e-313
1.37679e-312
2.79273e-312
3.10446e-312
4.19073e-312
1.17313e-311
4.60445e-311
1.86712e-310
6.78517e-310
1.92982e-309
3.38176e-309
2.04526e-309
6.54758e-310
1.58153e-310
3.57381e-311
1.55049e-311
5.17922e-311
2.95734e-310
1.66694e-309
9.0151e-309
4.66529e-308
2.30871e-307
1.09201e-306
4.92762e-306
2.11339e-305
8.57326e-305
3.2747e-304
1.17669e-303
4.02224e-303
4.53315e-319
4.33118e-319
4.1377e-319
3.95203e-319
3.77387e-319
3.60273e-319
3.4385e-319
3.28079e-319
3.12941e-319
2.98435e-319
2.84542e-319
5.42514e-319
3.10282e-318
1.1091e-317
4.2524e-317
1.64844e-316
6.91703e-316
3.13972e-315
1.50507e-314
7.33677e-314
3.45528e-313
1.45484e-312
4.78984e-312
9.97644e-312
1.19584e-311
1.70659e-311
4.78327e-311
1.85738e-310
7.45712e-310
2.68201e-309
7.5371e-309
1.30296e-308
7.88153e-309
2.53303e-309
6.15358e-310
1.44521e-310
9.15888e-311
3.89333e-310
2.24418e-309
1.26026e-308
6.78686e-308
3.49699e-307
1.72286e-306
8.11111e-306
3.64132e-305
1.55225e-304
6.24681e-304
2.35792e-303
8.30687e-303
2.7411e-302
4.53394e-319
4.33187e-319
4.13829e-319
3.95262e-319
3.77446e-319
3.60332e-319
3.43899e-319
3.28119e-319
3.12981e-319
2.98475e-319
8.53726e-319
3.25537e-318
1.21534e-317
4.04215e-317
1.44251e-316
5.53187e-316
2.31967e-315
1.05506e-314
5.0739e-314
2.48098e-313
1.17128e-312
4.94252e-312
1.63622e-311
3.48493e-311
4.44521e-311
6.63488e-311
1.85876e-310
7.1409e-310
2.83828e-309
1.01017e-308
2.80469e-308
4.78298e-308
2.8929e-308
9.33275e-309
2.28282e-309
5.73433e-310
5.65366e-310
2.80089e-309
1.61934e-308
9.05798e-308
4.85736e-307
2.49209e-306
1.22245e-305
5.72951e-305
2.55992e-304
1.0854e-303
4.33906e-303
1.62261e-302
5.63179e-302
1.8097e-301
4.53473e-319
4.33256e-319
4.13889e-319
3.95332e-319
3.77506e-319
3.60391e-319
3.43949e-319
3.28178e-319
3.1303e-319
8.95543e-319
3.9845e-318
1.3294e-317
4.16345e-317
1.35811e-316
4.78095e-316
1.82612e-315
7.65612e-315
3.48973e-314
1.6826e-313
8.24368e-313
3.89572e-312
1.64466e-311
5.46265e-311
1.18494e-310
1.59197e-310
2.46723e-310
6.90283e-310
2.62391e-309
1.03239e-308
3.6356e-308
9.97182e-308
1.67747e-307
1.01422e-307
3.28416e-308
8.10667e-309
2.28599e-309
3.56156e-309
1.92767e-308
1.11405e-307
6.20632e-307
3.31409e-306
1.69308e-305
8.26957e-305
3.85903e-304
1.71641e-303
7.24192e-303
2.87842e-302
1.06828e-301
3.66565e-301
1.15479e-300
4.53552e-319
4.33335e-319
4.13968e-319
3.95391e-319
3.77565e-319
3.60451e-319
3.44008e-319
3.28218e-319
1.25232e-318
5.07542e-318
1.5086e-317
4.50411e-317
1.38102e-316
4.46885e-316
1.55622e-315
5.92808e-315
2.48492e-314
1.13408e-313
5.47497e-313
2.68345e-312
1.26714e-311
5.34197e-311
1.77635e-310
3.9106e-310
5.49109e-310
8.79241e-310
2.45591e-309
9.23813e-309
3.59777e-308
1.25346e-307
3.39602e-307
5.63508e-307
3.40489e-307
1.10669e-307
2.7691e-308
9.42808e-309
2.23823e-308
1.27028e-307
7.32534e-307
4.06405e-306
2.16095e-305
1.09928e-304
5.34649e-304
2.48431e-303
1.10016e-302
4.62046e-302
1.82703e-301
6.73768e-301
2.2912e-300
7.11126e-300
4.53631e-319
4.33414e-319
4.14047e-319
3.9546e-319
3.77624e-319
3.6051e-319
3.44067e-319
1.31311e-318
5.94941e-318
1.79158e-317
5.09573e-317
1.48163e-316
4.48735e-316
1.43907e-315
4.9821e-315
1.89124e-314
7.91943e-314
3.61385e-313
1.74394e-312
8.53586e-312
4.02051e-311
1.68958e-310
5.61428e-310
1.25085e-309
1.82501e-309
3.00871e-309
8.38992e-309
3.12356e-308
1.20399e-307
4.14946e-307
1.11038e-306
1.8173e-306
1.09711e-306
3.58017e-307
9.15905e-308
4.129e-308
1.38115e-307
8.02631e-307
4.61411e-306
2.54917e-305
1.34969e-304
6.83672e-304
3.31104e-303
1.53202e-302
6.75551e-302
2.8247e-301
1.11164e-300
4.07675e-300
1.3762e-299
4.22304e-299
4.5372e-319
4.33493e-319
4.14116e-319
3.95529e-319
3.77703e-319
3.60569e-319
2.40887e-318
7.88001e-318
2.22356e-317
6.0027e-317
1.67128e-316
4.77646e-316
1.4309e-315
4.55283e-315
1.56654e-314
5.92333e-314
2.47458e-313
1.12721e-312
5.4278e-312
2.64848e-311
1.2423e-310
5.19619e-310
1.72275e-309
3.87593e-309
5.85015e-309
9.90486e-309
2.75776e-308
1.01636e-307
3.87723e-307
1.3217e-306
3.49289e-306
5.63831e-306
3.40017e-306
1.11465e-306
2.96325e-307
1.93842e-307
8.29284e-307
4.87067e-306
2.78988e-305
1.53482e-304
8.09155e-304
4.08122e-303
1.96818e-302
9.06846e-302
3.98196e-301
1.65787e-300
6.49509e-300
2.37003e-299
7.95108e-299
2.41821e-298
4.53809e-319
4.33572e-319
4.14205e-319
3.95608e-319
7.55545e-319
2.88511e-318
9.63724e-318
2.72565e-317
7.29827e-317
1.94446e-316
5.33062e-316
1.5091e-315
4.47932e-315
1.41409e-314
4.83463e-314
1.8192e-313
7.57149e-313
3.43702e-312
1.64859e-311
8.0068e-311
3.73481e-310
1.55288e-309
5.13065e-309
1.16368e-308
1.81084e-308
3.14264e-308
8.73834e-308
3.18866e-307
1.20381e-306
4.05853e-306
1.05914e-305
1.68618e-305
1.01557e-305
3.34896e-306
9.52652e-307
9.63638e-307
4.82374e-306
2.84346e-305
1.62236e-304
8.88716e-304
4.66518e-303
2.34295e-302
1.1251e-301
5.16214e-301
2.25722e-300
9.35828e-300
3.65045e-299
1.32582e-298
4.42378e-298
1.33571e-297
4.53908e-319
4.33671e-319
4.14284e-319
1.58276e-318
4.15628e-318
1.29855e-317
3.44253e-317
8.90105e-317
2.32145e-316
6.14204e-316
1.66549e-315
4.67526e-315
1.3759e-314
4.30966e-314
1.46333e-313
5.47398e-313
2.26644e-312
1.02361e-311
4.88314e-311
2.35727e-310
1.09213e-309
4.50929e-309
1.48331e-308
3.38719e-308
5.41967e-308
9.62628e-308
2.67381e-307
9.66238e-307
3.60991e-306
1.20356e-305
3.1013e-305
4.86932e-305
2.92891e-305
9.74203e-306
3.11457e-306
4.94922e-306
2.7137e-305
1.59957e-304
9.08938e-304
4.95773e-303
2.59124e-302
1.29577e-301
6.19584e-301
2.83078e-300
1.23263e-299
5.0891e-299
1.97673e-298
7.1475e-298
2.3731e-297
7.12166e-297
4.54007e-319
4.3377e-319
1.65749e-318
6.33236e-318
1.70064e-317
4.29329e-317
1.10527e-316
2.81537e-316
7.24448e-316
1.8985e-315
5.10205e-315
1.42035e-314
4.1452e-314
1.2881e-313
4.34125e-313
1.6128e-312
6.63384e-312
2.97643e-311
1.41022e-310
6.75827e-310
3.1068e-309
1.27275e-308
4.16521e-308
9.56656e-308
1.57047e-307
2.85124e-307
7.91332e-307
2.83257e-306
1.04724e-305
3.45256e-305
8.78367e-305
1.36011e-304
8.17134e-305
2.75637e-305
1.06559e-305
2.56375e-305
1.47624e-304
8.68425e-304
4.91422e-303
2.66883e-302
1.38884e-301
6.91493e-301
3.29227e-300
1.49783e-299
6.49484e-299
2.67034e-298
1.03288e-297
3.71865e-297
1.22897e-296
3.66842e-296
9.08211e-319
2.60317e-318
7.46033e-318
2.17722e-317
5.51882e-317
1.37125e-316
3.43702e-316
8.66793e-316
2.21073e-315
5.7455e-315
1.53199e-314
4.23039e-314
1.22454e-313
3.77434e-313
1.26192e-312
4.65142e-312
1.89835e-311
8.45033e-311
3.97151e-310
1.88747e-309
8.60176e-309
3.49386e-308
1.1369e-307
2.62426e-307
4.41193e-307
8.17851e-307
2.26864e-306
8.04541e-306
2.94353e-305
9.59528e-305
2.41005e-304
3.68057e-304
2.20968e-304
7.63858e-305
3.91077e-305
1.31676e-304
7.76989e-304
4.55698e-303
2.56779e-302
1.38845e-301
7.19375e-301
3.56611e-300
1.69055e-299
7.65849e-299
3.30691e-298
1.35397e-297
5.21533e-297
1.86972e-296
6.15196e-296
1.82742e-295
4.08796e-318
1.04151e-317
2.73609e-317
6.92909e-317
1.71273e-316
4.2085e-316
1.04304e-315
2.60946e-315
6.60685e-315
1.70406e-314
4.50892e-314
1.23524e-313
3.54646e-313
1.08403e-312
3.59365e-312
1.31315e-311
5.31178e-311
2.34315e-310
1.0912e-309
5.13805e-309
2.31955e-308
9.33577e-308
3.01914e-307
6.99919e-307
1.20319e-306
2.27507e-306
6.30901e-306
2.21718e-305
8.02747e-305
2.58728e-304
6.41552e-304
9.66435e-304
5.8049e-304
2.09685e-304
1.55134e-304
6.63805e-304
3.96032e-303
2.31441e-302
1.29855e-301
6.99069e-301
3.606e-300
1.77974e-299
8.40041e-299
3.78926e-298
1.62928e-297
6.64297e-297
2.54814e-296
9.0969e-296
2.98033e-295
8.81282e-295
1.31756e-317
3.51596e-317
8.58342e-317
2.11882e-316
5.15071e-316
1.25958e-315
3.0981e-315
7.69131e-315
1.9342e-314
4.95328e-314
1.30084e-313
3.53596e-313
1.00694e-312
3.05175e-312
1.00268e-311
3.6296e-311
1.45383e-310
6.34897e-310
2.92697e-309
1.36436e-308
6.09722e-308
2.43038e-307
7.80813e-307
1.81697e-306
3.18933e-306
6.14578e-306
1.70419e-305
5.93627e-305
2.12699e-304
6.77797e-304
1.65927e-303
2.46628e-303
1.48583e-303
5.8038e-304
6.55936e-304
3.26755e-303
1.95688e-302
1.13916e-301
6.3639e-301
3.41082e-300
1.75158e-299
8.60671e-299
4.04465e-298
1.8166e-297
7.77772e-297
3.15782e-296
1.20622e-295
4.28821e-295
1.39896e-294
4.11878e-294
3.99913e-317
1.07242e-316
2.60469e-316
6.28273e-316
1.51721e-315
3.68502e-315
9.0076e-315
2.22166e-314
5.54978e-314
1.41133e-313
3.67936e-313
9.92423e-313
2.80318e-312
8.42236e-312
2.74169e-311
9.82596e-311
3.89429e-310
1.6822e-309
7.67096e-309
3.53715e-308
1.56381e-307
6.17038e-307
1.96863e-306
4.59602e-306
8.22722e-306
1.61427e-305
4.47695e-305
1.54611e-304
5.48271e-304
1.72748e-303
4.17549e-303
6.12755e-303
3.72147e-303
1.66093e-303
2.88161e-303
1.56696e-302
9.38419e-302
5.4406e-301
3.02611e-300
1.61465e-299
8.25468e-299
4.03803e-298
1.88929e-297
8.44866e-297
3.60176e-296
1.45614e-295
5.53876e-295
1.9608e-294
6.36992e-294
1.86748e-293
1.18642e-316
3.16164e-316
7.63353e-316
1.82467e-315
4.3787e-315
1.05661e-314
2.56662e-314
6.29052e-314
1.56109e-313
3.94277e-313
1.02049e-312
2.73157e-312
7.65297e-312
2.27935e-311
7.34941e-311
2.60661e-310
1.02155e-309
4.36174e-309
1.96597e-308
8.96163e-308
3.91739e-307
1.52936e-306
4.84386e-306
1.13403e-305
2.06781e-305
4.12782e-305
1.14519e-304
3.92206e-304
1.37665e-303
4.28913e-303
1.0239e-302
1.48534e-302
9.18304e-303
5.05482e-303
1.2838e-302
7.31545e-302
4.3722e-301
2.52422e-300
1.3978e-299
7.42472e-299
3.77865e-298
1.84015e-297
8.57135e-297
3.81622e-296
1.61987e-295
6.52088e-295
2.46982e-294
8.70657e-294
2.81654e-293
8.22281e-293
3.43746e-316
9.12689e-316
2.18567e-315
5.19282e-315
1.23848e-314
2.97015e-314
7.17085e-314
1.74657e-313
4.30646e-313
1.08033e-312
2.77629e-312
7.3753e-312
2.04963e-311
6.05107e-311
1.93222e-310
6.77957e-310
2.62604e-309
1.10764e-308
4.93163e-308
2.22101e-307
9.59419e-307
3.70442e-306
1.16437e-305
2.73241e-305
5.06966e-305
1.0288e-304
2.85575e-304
9.70212e-304
3.37142e-303
1.03894e-302
2.45084e-302
3.52293e-302
2.2574e-302
1.66804e-302
5.7018e-302
3.32523e-301
1.98122e-300
1.13893e-299
6.27877e-299
3.31999e-298
1.68194e-297
8.15371e-297
3.78097e-296
1.67596e-295
7.08288e-295
2.83893e-294
1.07065e-293
3.75813e-293
1.21059e-292
3.5196e-292
9.78313e-316
2.57936e-315
6.13707e-315
1.44916e-314
3.43548e-314
8.18989e-314
1.96536e-313
4.7574e-313
1.16553e-312
2.90439e-312
7.41141e-312
1.95414e-311
5.38702e-311
1.57644e-310
4.98472e-310
1.72987e-309
6.62017e-309
2.75712e-308
1.21197e-307
5.38972e-307
2.29963e-306
8.77796e-306
2.73728e-305
6.43598e-305
1.21381e-304
2.50215e-304
6.95055e-304
2.34335e-303
8.06425e-303
2.45912e-302
5.7386e-302
8.21049e-302
5.62558e-302
5.96285e-302
2.49907e-301
1.47239e-300
8.74036e-300
5.00268e-299
2.7455e-298
1.44508e-297
7.28727e-297
3.51658e-296
1.62331e-295
7.16343e-295
3.01402e-294
1.20279e-293
4.5164e-293
1.57848e-292
5.06295e-292
1.46583e-291
2.72652e-315
7.15047e-315
1.69084e-314
3.96886e-314
9.35311e-314
2.2164e-313
5.28679e-313
1.27188e-312
3.09627e-312
7.66456e-312
1.9422e-311
5.08299e-311
1.39006e-310
4.03224e-310
1.26251e-309
4.33287e-309
1.63786e-308
6.73265e-308
2.92055e-307
1.28188e-306
5.39983e-306
2.03693e-305
6.29988e-305
1.48354e-304
2.84134e-304
5.94544e-304
1.65313e-303
5.53367e-303
1.88693e-302
5.69888e-302
1.31828e-301
1.89307e-301
1.45638e-301
2.26339e-301
1.07515e-300
6.35548e-300
3.75754e-299
2.1412e-298
1.16977e-297
6.12858e-297
3.07622e-296
1.47763e-295
6.78988e-295
2.98277e-294
1.2494e-293
4.96387e-293
1.85571e-292
6.45735e-292
2.06223e-291
5.94552e-291
7.46118e-315
1.94613e-314
4.57478e-314
1.06742e-313
2.50055e-313
5.89021e-313
1.39654e-312
3.33913e-312
8.07746e-312
1.98635e-311
4.99858e-311
1.29857e-310
3.52312e-310
1.0131e-309
3.14107e-309
1.06602e-308
3.97958e-308
1.61414e-307
6.90712e-307
2.99091e-306
1.24336e-305
4.63345e-305
1.42096e-304
3.35015e-304
6.51026e-304
1.38191e-303
3.84738e-303
1.27957e-302
4.32737e-302
1.29652e-301
2.98419e-301
4.36561e-301
4.02337e-301
8.88438e-301
4.52895e-300
2.67623e-299
1.57558e-298
8.93827e-298
4.86073e-297
2.53475e-296
1.26637e-295
6.0546e-295
2.76934e-294
1.21102e-293
5.04977e-293
1.99728e-292
7.43345e-292
2.57517e-291
8.18806e-291
2.35063e-290
2.00671e-314
5.20518e-314
1.21631e-313
2.82099e-313
6.56892e-313
1.53808e-312
3.62467e-312
8.61336e-312
2.07043e-311
5.05804e-311
1.26407e-310
3.25992e-310
8.77504e-310
2.5016e-309
7.68089e-309
2.57782e-308
9.50303e-308
3.80251e-307
1.60459e-306
6.85223e-306
2.81013e-305
1.03423e-304
3.14429e-304
7.41982e-304
1.46184e-303
3.14618e-303
8.77528e-303
2.90281e-302
9.75201e-302
2.90691e-301
6.70281e-301
1.02404e-300
1.20745e-300
3.52717e-300
1.86613e-299
1.10023e-298
6.44922e-298
3.64213e-297
1.97149e-296
1.02326e-295
5.08818e-295
2.42129e-294
1.10235e-293
4.79834e-293
1.9917e-292
7.84185e-292
2.90538e-291
1.00198e-290
3.17174e-290
9.06626e-290
5.30831e-314
1.36909e-313
3.17995e-313
7.33058e-313
1.69668e-312
3.94868e-312
9.24898e-312
2.18428e-311
5.21719e-311
1.26619e-310
3.14265e-310
8.04582e-310
2.14894e-309
6.07413e-309
1.84711e-308
6.13087e-308
2.23185e-307
8.80885e-307
3.66474e-306
1.54288e-305
6.24008e-305
2.26753e-304
6.8332e-304
1.61356e-303
3.221e-303
7.02694e-303
1.9653e-302
6.47743e-302
2.16765e-301
6.46151e-301
1.51008e-300
2.50004e-300
3.92934e-300
1.3957e-299
7.52025e-299
4.41926e-298
2.57895e-297
1.4498e-296
7.81128e-296
4.03517e-295
1.99698e-294
9.45808e-294
4.28583e-293
1.8569e-292
7.67208e-292
3.00681e-291
1.10891e-290
3.80682e-290
1.19959e-289
3.41399e-289
1.38198e-313
3.5437e-313
8.18062e-313
1.87427e-312
4.31153e-312
9.97295e-312
2.32162e-311
5.44875e-311
1.29317e-310
3.11783e-310
7.68534e-310
1.95341e-309
5.17721e-309
1.45109e-308
4.37101e-308
1.43502e-307
5.15896e-307
2.00835e-306
8.23599e-306
3.41756e-305
1.36277e-304
4.88849e-304
1.46009e-303
3.4497e-303
6.9745e-303
1.54258e-302
4.33298e-302
1.42699e-301
4.77928e-301
1.4371e-300
3.46782e-300
6.50977e-300
1.35934e-299
5.45847e-299
2.96469e-298
1.73555e-297
1.00826e-296
5.64205e-296
3.0256e-295
1.55555e-294
7.6616e-294
3.61144e-293
1.62877e-292
7.02381e-292
2.88848e-291
1.12678e-290
4.13621e-290
1.41334e-289
4.4332e-289
1.25606e-288
3.54359e-313
9.03284e-313
2.07226e-312
4.71822e-312
1.07864e-311
2.47955e-311
5.73639e-311
1.33786e-310
3.15485e-310
7.55619e-310
1.84982e-309
4.66801e-309
1.22777e-308
3.41281e-308
1.01848e-307
3.30795e-307
1.17458e-306
4.51017e-306
1.82296e-305
7.45436e-305
2.93009e-304
1.03747e-303
3.07134e-303
7.26096e-303
1.48675e-302
3.33662e-302
9.43875e-302
3.12088e-301
1.05428e-300
3.24229e-300
8.29045e-300
1.83662e-299
4.8719e-299
2.10067e-298
1.14386e-297
6.66881e-297
3.85652e-296
2.14805e-295
1.14648e-294
5.8663e-294
2.8755e-293
1.34894e-292
6.05485e-292
2.59874e-291
1.06368e-290
4.12979e-290
1.50883e-289
5.13133e-289
1.602e-288
4.51842e-288
8.95583e-313
2.26909e-312
5.17262e-312
1.17026e-311
2.65848e-311
6.07289e-311
1.39611e-310
3.23541e-310
7.58027e-310
1.80352e-309
4.38491e-309
1.09863e-308
2.86783e-308
7.90695e-308
2.33826e-307
7.51501e-307
2.63611e-306
9.98521e-306
3.97786e-305
1.60277e-304
6.20959e-304
2.17022e-303
6.36916e-303
1.50713e-302
3.12715e-302
7.13565e-302
2.04239e-301
6.83239e-301
2.35651e-300
7.55825e-300
2.10827e-299
5.60255e-299
1.77027e-298
7.93885e-298
4.32161e-297
2.50879e-296
1.44413e-295
8.00612e-295
4.25288e-294
2.16568e-293
1.05644e-292
4.93214e-292
2.20326e-291
9.41141e-291
3.83384e-290
1.48142e-289
5.38651e-289
1.8231e-288
5.66459e-288
1.59033e-287
2.23298e-312
5.62232e-312
1.27332e-311
2.86206e-311
6.45989e-311
1.46622e-310
3.34921e-310
7.71169e-310
1.795e-309
4.24226e-309
1.02434e-308
2.54821e-308
6.60225e-308
1.80583e-307
5.29302e-307
1.68382e-306
5.83667e-306
2.1814e-305
8.56602e-305
3.40096e-304
1.29876e-303
4.48111e-303
1.30428e-302
3.09149e-302
6.50997e-302
1.51627e-301
4.42481e-301
1.51538e-300
5.42793e-300
1.85773e-299
5.77837e-299
1.81433e-298
6.42813e-298
2.94387e-297
1.5997e-296
9.24613e-296
5.29758e-295
2.92311e-294
1.54538e-293
7.83158e-293
3.80188e-292
1.76639e-291
7.85287e-291
3.33836e-290
1.3534e-289
5.20444e-289
1.88318e-288
6.34268e-288
1.96119e-287
5.48017e-287
5.50412e-312
1.3765e-311
3.09556e-311
6.90987e-311
1.54908e-310
3.49268e-310
7.92576e-310
1.81298e-309
4.19207e-309
9.84084e-309
2.35983e-308
5.82887e-308
1.49911e-307
4.06837e-307
1.18224e-306
3.72395e-306
1.27605e-305
4.70717e-305
1.82247e-304
7.13121e-304
2.68484e-303
9.14877e-303
2.64294e-302
6.28412e-302
1.34711e-301
3.22449e-301
9.70675e-301
3.45919e-300
1.31276e-299
4.88763e-299
1.70263e-298
6.09011e-298
2.31305e-297
1.07096e-296
5.80496e-296
3.34039e-295
1.90489e-294
1.04611e-293
5.50407e-293
2.77586e-292
1.34102e-291
6.20037e-291
2.74321e-290
1.16056e-289
4.68228e-289
1.79179e-288
6.45159e-288
2.16218e-287
6.65259e-287
1.85004e-286
1.35772e-311
3.36109e-311
7.48015e-311
1.65387e-310
3.67607e-310
8.22387e-310
1.85262e-309
4.2082e-309
9.66376e-309
2.25302e-308
5.36527e-308
1.31588e-307
3.35971e-307
9.04839e-307
2.60762e-306
8.13625e-306
2.75735e-305
1.0044e-304
3.83574e-304
1.47979e-303
5.49526e-303
1.85074e-302
5.31366e-302
1.27066e-301
2.78802e-301
6.93258e-301
2.18803e-300
8.26978e-300
3.38299e-299
1.37994e-298
5.30579e-298
2.07606e-297
8.21108e-297
3.82312e-296
2.06623e-295
1.18368e-294
6.71807e-294
3.67175e-293
1.9226e-292
9.6493e-292
4.63892e-291
2.13444e-290
9.39759e-290
3.95655e-289
1.5885e-288
6.04893e-288
2.16716e-287
7.2265e-287
2.21227e-286
6.12215e-286
3.67809e-311
8.78943e-311
1.88612e-310
4.04699e-310
8.79301e-310
1.93417e-309
4.30203e-309
9.67434e-309
2.20292e-308
5.09688e-308
1.20497e-307
2.93419e-307
7.43776e-307
1.98831e-306
5.68453e-306
1.75778e-305
5.89512e-305
2.12183e-304
7.99792e-304
3.04421e-303
1.11599e-302
3.71951e-302
1.06371e-301
2.56926e-301
5.82134e-301
1.52704e-300
5.15072e-300
2.09927e-299
9.325e-299
4.13377e-298
1.71161e-297
7.08769e-297
2.86948e-296
1.33974e-295
7.21831e-295
4.11651e-294
2.32519e-293
1.26472e-292
6.59036e-292
3.29154e-291
1.57469e-290
7.21005e-290
3.15902e-289
1.32353e-288
5.2877e-288
2.00353e-287
7.14191e-287
2.36935e-286
7.21629e-286
1.98707e-285
1.7409e-310
3.66387e-310
6.74805e-310
1.25605e-309
2.43376e-309
4.92644e-309
1.03655e-308
2.25078e-308
5.01557e-308
1.14444e-307
2.67888e-307
6.47054e-307
1.62807e-306
4.32071e-306
1.22594e-305
3.75907e-305
1.24851e-304
4.44416e-304
1.65498e-303
6.22162e-303
2.25471e-302
7.45205e-302
2.1303e-301