/*--------------------------------*- C++ -*----------------------------------*\
  =========                 |
  \\      /  F ield         | OpenFOAM: The Open Source CFD Toolbox
   \\    /   O peration     | Website:  https://openfoam.org
    \\  /    A nd           | Version:  9
     \\/     M anipulation  |
\*---------------------------------------------------------------------------*/
FoamFile
{
    format      ascii;
    class       surfaceScalarField;
    location    "0.09";
    object      alphaPhi0.water;
}
// * * * * * * * * * * * * * * * * * * * * * * * * * * * * * * * * * * * * * //

dimensions      [0 3 -1 0 0 0 0];

internalField   nonuniform List<scalar> 
9850
(
0
0
0
0
0
0
0
0
0
0
0
0
0
0
0
0
0
0
0
0
0
0
0
0
0
0
0
0
0
0
0
0
0
0
0
0
0
0
0
0
0
0
0
0
0
0
0
0
0
0
0
0
0
0
0
0
0
0
0
0
0
0
0
0
0
0
0
0
0
0
0
0
0
0
0
0
0
0
0
0
0
0
0
0
0
0
0
0
0
0
0
0
0
0
0
0
0
0
0
0
0
0
0
0
0
0
0
0
0
0
0
0
0
0
0
0
0
0
0
0
0
0
0
0
0
0
0
0
0
0
0
0
0
0
0
0
0
0
0
0
0
0
0
0
0
0
0
0
0
0
0
0
0
0
0
0
0
0
0
0
0
0
0
0
0
0
0
0
0
0
0
0
0
0
0
0
0
0
0
0
0
0
0
0
0
0
0
0
0
0
0
0
0
0
0
0
0
0
0
0
0
0
0
0
0
0
0
0
0
0
0
0
0
0
0
0
0
0
0
0
0
0
0
0
0
0
0
0
0
0
0
0
0
0
0
0
0
0
0
0
0
0
0
0
0
0
0
0
0
0
0
0
0
0
0
0
0
0
0
0
0
0
0
0
0
0
0
0
0
0
0
0
0
0
0
0
0
0
0
0
0
0
0
0
0
0
0
0
0
0
0
0
0
0
0
0
1.97626e-323
0
0
0
0
0
0
0
0
0
0
0
0
0
0
0
0
0
0
0
0
0
0
0
0
0
0
0
0
0
0
0
0
0
0
0
0
0
0
0
0
0
0
0
0
0
0
0
0
0
0
0
0
0
0
0
0
0
0
0
0
0
0
0
0
0
0
0
0
0
0
0
0
0
0
0
0
0
0
0
0
0
0
0
0
0
0
0
0
0
0
0
0
0
0
0
9.88131e-324
4.94066e-324
6.91692e-323
5.03947e-322
0
0
0
0
0
0
0
0
0
0
0
0
0
0
0
0
0
0
0
0
0
0
0
0
0
0
0
0
0
0
0
0
0
0
0
0
0
0
0
0
0
0
0
0
0
0
0
0
0
0
0
0
0
0
0
0
0
0
0
0
0
0
0
0
0
0
0
0
0
0
0
0
0
0
0
0
0
0
0
0
0
0
0
0
0
0
0
0
0
0
0
4.94066e-324
0
2.96439e-323
9.88131e-324
2.07508e-322
8.89318e-323
1.49702e-321
1.04297e-320
0
0
0
0
0
0
0
0
0
0
0
0
0
0
0
0
0
0
0
0
0
0
0
0
0
0
0
0
0
0
0
0
0
0
0
0
0
0
0
0
0
0
0
0
0
0
0
0
0
0
0
0
0
0
0
0
0
0
0
0
0
4.94066e-324
0
9.88131e-324
0
4.94066e-324
0
0
0
0
0
0
0
0
0
0
0
0
0
0
0
0
0
0
0
0
0
0
0
1.4822e-323
4.94066e-324
7.90505e-323
2.96439e-323
5.38532e-322
2.12448e-322
3.69067e-321
1.48714e-321
2.55284e-320
1.74163e-319
0
0
0
0
0
0
0
0
0
0
0
0
0
0
0
0
0
0
0
0
0
0
0
0
0
0
0
0
0
0
0
0
0
0
0
0
0
0
0
0
0
0
0
0
0
0
0
4.94066e-324
0
0
0
0
0
0
0
0
0
4.94066e-324
0
1.97626e-323
4.94066e-324
7.41098e-323
9.88131e-324
1.43279e-322
4.94066e-324
8.89318e-323
0
2.47033e-323
0
4.94066e-324
0
0
0
0
0
0
0
0
0
0
0
0
0
0
0
4.94066e-324
0
3.95253e-323
1.4822e-323
2.32211e-322
7.90505e-323
1.36362e-321
4.89125e-322
8.49793e-321
3.1966e-321
5.52168e-320
2.14177e-320
3.67743e-319
2.44757e-318
0
0
0
0
0
0
0
0
0
0
0
0
0
0
0
0
0
0
0
0
0
0
0
0
0
0
0
0
0
0
0
0
0
0
0
0
0
0
0
0
0
0
0
0
0
9.88131e-324
0
1.97626e-323
0
9.88131e-324
0
0
0
0
0
9.88131e-324
4.94066e-324
4.44659e-323
9.88131e-324
1.82804e-322
3.95253e-323
6.96633e-322
7.90505e-323
1.36856e-321
4.94066e-323
8.20149e-322
1.4822e-323
2.51973e-322
4.94066e-324
5.92879e-323
0
9.88131e-324
0
0
0
0
0
0
0
0
0
4.94066e-324
0
1.97626e-323
4.94066e-324
1.23516e-322
3.95253e-323
6.81811e-322
2.12448e-322
3.70055e-321
1.17588e-321
2.04988e-320
6.84775e-321
1.19025e-319
4.20895e-320
7.27907e-319
2.69216e-319
4.62806e-318
2.98428e-317
0
0
0
0
0
0
0
0
0
0
0
0
0
0
0
0
0
0
0
0
0
0
0
0
0
0
0
0
0
0
0
0
0
0
0
0
0
0
0
0
0
4.94066e-324
0
1.4822e-323
4.94066e-324
5.43472e-323
9.88131e-324
1.03754e-322
4.94066e-324
4.94066e-323
0
1.4822e-323
0
1.97626e-323
4.94066e-324
7.90505e-323
2.47033e-323
3.7549e-322
1.03754e-322
1.54148e-321
3.26083e-322
5.80527e-321
6.47226e-322
1.12548e-320
3.90312e-322
6.75388e-321
1.18576e-322
2.10966e-321
2.96439e-323
4.94066e-322
4.94066e-324
9.88131e-323
0
1.97626e-323
0
0
0
0
0
9.88131e-324
4.94066e-324
6.91692e-323
1.97626e-323
3.7549e-322
1.13635e-322
1.99603e-321
5.87938e-322
1.03853e-320
3.05333e-321
5.36308e-320
1.60374e-320
2.80634e-319
8.73953e-320
1.5221e-318
5.01981e-319
8.69439e-318
3.03362e-318
5.22208e-317
3.23327e-316
0
0
0
0
0
0
0
0
0
0
0
0
0
0
0
0
0
0
0
0
0
0
0
0
0
0
0
0
0
0
0
0
0
0
0
0
0
0
0
0
0
1.4822e-323
4.94066e-324
6.91692e-323
2.47033e-323
2.42092e-322
4.44659e-323
4.5454e-322
1.97626e-323
2.32211e-322
4.94066e-324
8.89318e-323
9.88131e-324
1.43279e-322
4.44659e-323
6.27463e-322
1.92686e-322
2.8557e-321
7.70742e-322
1.15809e-320
2.41598e-321
4.30973e-320
4.74303e-321
8.24497e-320
2.85076e-321
4.96141e-320
8.79437e-322
1.55878e-320
2.02567e-322
3.66103e-321
4.44659e-323
7.65802e-322
9.88131e-324
1.5316e-322
0
2.96439e-323
0
3.45846e-323
9.88131e-324
1.77864e-322
5.43472e-323
9.98013e-322
3.0138e-322
5.39026e-321
1.58595e-321
2.81469e-320
8.08785e-321
1.42953e-319
4.05134e-320
7.13317e-319
2.02705e-319
3.55397e-318
1.0362e-318
1.80789e-317
5.53929e-318
9.60989e-317
3.13184e-317
5.39909e-316
3.17579e-315
0
0
0
0
0
0
0
0
0
0
0
0
0
0
0
0
0
0
0
0
0
0
0
0
0
0
0
0
0
0
0
0
0
0
0
0
0
0
0
1.4822e-323
4.94066e-324
6.42285e-323
2.96439e-323
2.96439e-322
1.03754e-322
9.88131e-322
1.82804e-322
1.83298e-321
9.38725e-323
1.00295e-321
3.95253e-323
4.84184e-322
7.41098e-323
9.98013e-322
3.11261e-322
4.35272e-321
1.33892e-321
1.96292e-320
5.21239e-321
7.87788e-320
1.61856e-320
2.89621e-319
3.13682e-320
5.46639e-319
1.88931e-320
3.29739e-319
5.8695e-321
1.04174e-319
1.36856e-321
2.45847e-320
2.86558e-322
5.17781e-321
5.92879e-323
1.05236e-321
1.4822e-323
2.66795e-322
2.47033e-323
4.39718e-322
1.28457e-322
2.34681e-321
7.31217e-322
1.3068e-320
3.92782e-321
7.0014e-320
2.03259e-320
3.61236e-319
1.01768e-319
1.80243e-318
4.96383e-319
8.75852e-318
2.38684e-318
4.19343e-317
1.15335e-317
2.01618e-316
5.74552e-317
9.98537e-316
3.01748e-316
5.21025e-315
2.87862e-314
0
0
0
0
0
0
0
0
0
0
0
0
0
0
0
0
0
0
0
0
0
0
0
0
0
0
0
0
0
0
0
0
0
0
0
0
0
9.88131e-324
4.94066e-324
5.43472e-323
2.96439e-323
2.71736e-322
1.23516e-322
1.17094e-321
4.00193e-322
3.82407e-321
7.11455e-322
7.04044e-321
3.90312e-322
4.23908e-321
2.17389e-322
2.62349e-321
4.79244e-322
6.31416e-321
1.96144e-321
2.75985e-320
8.36947e-321
1.23304e-319
3.22971e-320
4.89767e-319
9.91689e-320
1.77917e-318
1.89647e-319
3.3129e-318
1.1448e-319
2.00272e-318
3.57506e-320
6.36085e-319
8.36947e-321
1.50927e-319
1.76381e-321
3.19809e-320
3.65609e-322
6.62048e-321
1.13635e-322
2.0899e-321
2.81617e-322
5.1284e-321
1.57113e-321
2.82704e-320
8.7252e-321
1.56525e-319
4.65756e-320
8.32644e-319
2.38812e-319
4.25491e-318
1.17969e-318
2.09444e-317
5.63902e-318
9.97315e-317
2.6286e-317
4.62845e-316
1.21216e-316
2.12338e-315
5.66062e-316
9.85667e-315
2.7545e-315
4.76439e-314
2.44707e-313
0
0
0
0
0
0
0
0
0
0
0
0
0
0
0
0
0
0
0
0
0
0
0
0
0
0
0
0
0
0
0
0
0
0
0
4.94066e-324
4.94066e-324
3.95253e-323
2.47033e-323
2.12448e-322
1.08694e-322
1.03754e-321
4.59481e-322
4.42683e-321
1.48714e-321
1.42587e-320
2.63831e-321
2.62794e-320
1.62548e-321
1.77518e-320
1.14129e-321
1.38734e-320
2.79641e-321
3.705e-320
1.14129e-320
1.61307e-319
4.82505e-320
7.1389e-319
1.84425e-319
2.80656e-318
5.59934e-319
1.00742e-317
1.05668e-318
1.85067e-317
6.39099e-319
1.1209e-317
2.00581e-319
3.57829e-318
4.71932e-320
8.53553e-319
1.00048e-320
1.81979e-319
2.12448e-321
3.86162e-320
9.09081e-322
1.64672e-320
3.08791e-321
5.58936e-320
1.73615e-320
3.1345e-319
9.60068e-320
1.72732e-318
5.09322e-319
9.13108e-318
2.59137e-318
4.62953e-317
1.26666e-317
2.25474e-316
5.96222e-317
1.05713e-315
2.71401e-316
4.79027e-315
1.20591e-315
2.11717e-314
5.32746e-315
9.29572e-314
2.40877e-314
4.17418e-313
1.97916e-312
0
0
0
0
0
0
0
0
0
0
0
0
0
0
0
0
0
0
0
0
0
0
0
0
0
0
0
0
0
0
0
0
0
4.94066e-324
4.94066e-324
2.96439e-323
1.4822e-323
1.5316e-322
8.39912e-323
7.90505e-322
4.00193e-322
3.84877e-321
1.68476e-321
1.62399e-320
5.40014e-321
5.19115e-320
9.68369e-321
9.68171e-320
6.7934e-321
7.43766e-320
5.8448e-321
7.11702e-320
1.52172e-320
2.02409e-319
6.16446e-320
8.75282e-319
2.58233e-319
3.83687e-318
9.77405e-319
1.49287e-317
2.9339e-318
5.29478e-317
5.46381e-318
9.5961e-317
3.31012e-318
5.82164e-317
1.04384e-318
1.86761e-317
2.4682e-319
4.47815e-318
5.26822e-320
9.61131e-319
1.16451e-320
2.12468e-319
7.3517e-321
1.33867e-319
3.14028e-320
5.70433e-319
1.77903e-319
3.22173e-318
9.79302e-319
1.76727e-317
5.16664e-318
9.29039e-317
2.61152e-317
4.67907e-316
1.26575e-316
2.25946e-315
5.88755e-316
1.04671e-314
2.63214e-315
4.65769e-314
1.13653e-314
2.00017e-313
4.79916e-314
8.39252e-313
2.0314e-313
3.52732e-312
1.54112e-311
0
0
0
0
0
0
0
0
0
0
0
0
0
0
0
0
0
0
0
0
0
0
0
0
0
0
0
0
0
0
0
4.94066e-324
4.94066e-324
1.97626e-323
1.4822e-323
1.13635e-322
6.42285e-323
5.68175e-322
3.06321e-322
2.89522e-321
1.44267e-321
1.39277e-320
6.0523e-321
5.84331e-320
1.93377e-320
1.86579e-319
3.54344e-320
3.55688e-319
2.83495e-320
3.11553e-319
2.87003e-320
3.50708e-319
7.74349e-320
1.03459e-318
3.1095e-319
4.43584e-318
1.2903e-318
1.92579e-317
4.83596e-318
7.41527e-317
1.43512e-317
2.59847e-316
2.63746e-317
4.64615e-316
1.60007e-317
2.82252e-316
5.06891e-318
9.09777e-317
1.20447e-318
2.19269e-317
2.59058e-319
4.74276e-318
6.14321e-320
1.12495e-318
6.07404e-320
1.11015e-318
2.99344e-319
5.45647e-318
1.69898e-318
3.08702e-317
9.3111e-318
1.6858e-316
4.88779e-317
8.81705e-316
2.45645e-316
4.41491e-315
1.18227e-315
2.11679e-314
5.44795e-315
9.71355e-314
2.40236e-314
4.26277e-313
1.01504e-313
1.79098e-312
4.13737e-313
7.25249e-312
1.65646e-312
2.88252e-311
1.16513e-310
0
0
0
0
0
0
0
0
0
0
0
0
0
0
0
0
0
0
0
0
0
0
0
0
0
0
0
0
0
4.94066e-324
0
1.97626e-323
9.88131e-324
8.39912e-323
4.94066e-323
4.05134e-322
2.2727e-322
2.04543e-321
1.09189e-321
1.03408e-320
5.11852e-321
4.95795e-320
2.14721e-320
2.0776e-319
6.88233e-320
6.66302e-319
1.29677e-319
1.3073e-318
1.17365e-319
1.29493e-318
1.34544e-319
1.6508e-318
3.70243e-319
4.96939e-318
1.47216e-318
2.11049e-317
6.05044e-318
9.07336e-317
2.24531e-317
3.4572e-316
6.58713e-317
1.19689e-315
1.19465e-316
2.11131e-315
7.25575e-317
1.28402e-315
2.30871e-317
4.15771e-316
5.51284e-318
1.0072e-316
1.19745e-318
2.20042e-317
3.20214e-319
5.88548e-318
5.0116e-319
9.19343e-318
2.68032e-318
4.90341e-317
1.51968e-317
2.77106e-316
8.29248e-317
1.50662e-315
4.33267e-316
7.84233e-315
2.16625e-315
3.90626e-314
1.03635e-314
1.86149e-313
4.73931e-314
8.47616e-313
2.06772e-313
3.67977e-312
8.59441e-313
1.52062e-311
3.41005e-312
5.99286e-311
1.30565e-311
2.27734e-310
8.59082e-310
0
0
0
0
0
0
0
0
0
0
0
0
0
0
0
0
0
0
0
0
0
0
0
0
0
0
0
0
0
1.4822e-323
9.88131e-324
6.42285e-323
3.45846e-323
3.0138e-322
1.67982e-322
1.43773e-321
7.90505e-322
7.20842e-321
3.82901e-321
3.63682e-320
1.79889e-320
1.74455e-319
7.55229e-320
7.32497e-319
2.43634e-319
2.36755e-318
4.73379e-319
4.79371e-318
4.77332e-319
5.28929e-318
6.00833e-319
7.40383e-318
1.66986e-318
2.25217e-317
6.57101e-318
9.46948e-317
2.67456e-317
4.031e-316
9.82663e-317
1.51973e-315
2.84978e-316
5.19753e-315
5.10035e-316
9.04509e-315
3.10038e-316
5.50547e-315
9.90693e-317
1.79056e-315
2.37736e-317
4.36015e-316
5.23786e-318
9.66317e-317
1.70117e-318
3.13914e-317
4.04728e-318
7.45357e-317
2.26085e-317
4.15201e-316
1.27864e-316
2.34039e-315
6.94755e-316
1.26696e-314
3.61373e-315
6.56479e-314
1.79818e-314
3.25401e-313
8.55684e-314
1.54225e-312
3.88815e-313
6.97681e-312
1.68205e-312
3.00283e-311
6.90446e-312
1.22523e-310
2.68454e-311
4.73077e-310
9.92991e-311
1.73632e-309
6.18263e-309
0
0
0
0
0
0
0
0
0
0
0
0
0
0
0
0
0
0
0
0
0
0
0
0
0
0
0
9.88131e-324
9.88131e-324
5.43472e-323
2.96439e-323
2.32211e-322
1.28457e-322
1.04248e-321
5.73116e-322
4.98512e-321
2.73712e-321
2.49997e-320
1.32755e-320
1.26362e-319
6.2524e-320
6.07538e-319
2.63253e-319
2.55979e-318
8.55643e-319
8.34767e-318
1.71263e-318
1.74249e-317
1.89109e-318
2.10509e-317
2.5548e-318
3.16278e-317
7.13033e-318
9.66642e-317
2.77612e-317
4.02272e-316
1.11893e-316
1.69535e-315
4.06986e-316
6.32355e-315
1.16666e-315
2.13628e-314
2.06051e-315
3.66761e-314
1.25326e-315
2.23362e-314
4.02098e-316
7.29541e-315
9.69911e-317
1.78611e-315
2.18589e-317
4.04966e-316
9.46343e-318
1.75363e-316
3.15747e-317
5.8391e-316
1.80214e-316
3.32319e-315
1.01588e-315
1.86696e-314
5.49667e-315
1.00634e-313
2.84667e-314
5.19132e-313
1.41009e-313
2.56134e-312
6.67747e-313
1.20791e-311
3.01733e-312
5.43325e-311
1.29627e-311
2.32187e-310
5.26932e-311
9.38015e-310
2.01771e-310
3.56609e-309
7.27124e-310
1.27483e-308
4.33563e-308
0
0
0
0
0
0
0
0
0
0
0
0
0
0
0
0
0
0
0
0
0
0
0
0
0
1.4822e-323
4.94066e-324
4.94066e-323
2.47033e-323
1.97626e-322
1.03754e-322
8.05327e-322
4.34778e-322
3.55727e-321
1.9565e-321
1.70107e-320
9.33784e-321
8.55475e-320
4.5454e-320
4.33641e-319
2.14701e-319
2.09055e-318
9.06418e-319
8.83841e-318
2.96633e-318
2.90593e-317
6.09621e-318
6.23288e-317
7.25409e-318
8.11414e-317
1.03524e-317
1.28797e-316
2.89209e-317
3.94229e-316
1.114e-316
1.62362e-315
4.44591e-316
6.77375e-315
1.60073e-315
2.49937e-314
4.53537e-315
8.33978e-314
7.9046e-315
1.41246e-313
4.80926e-315
8.60462e-314
1.54904e-315
2.822e-314
3.75779e-316
6.95013e-315
8.80147e-317
1.63788e-315
5.56589e-317
1.03601e-315
2.36324e-316
4.38966e-315
1.36165e-315
2.52186e-314
7.64761e-315
1.41147e-313
4.12064e-314
7.57586e-313
2.12496e-313
3.89111e-312
1.04802e-312
1.91128e-311
4.94027e-312
8.97132e-311
2.22119e-311
4.01462e-310
9.48604e-311
1.7052e-309
3.82608e-310
6.8339e-309
1.44808e-309
2.56734e-308
5.11759e-309
8.99812e-308
2.95408e-307
0
0
0
0
0
0
0
0
0
0
0
0
0
0
0
0
0
0
0
0
0
4.94066e-324
0
1.4822e-323
9.88131e-324
4.94066e-323
2.47033e-323
1.77864e-322
8.89318e-323
6.66989e-322
3.45846e-322
2.6976e-321
1.45255e-321
1.19416e-320
6.56119e-321
5.72079e-320
3.14078e-320
2.88539e-319
1.53353e-319
1.4666e-318
7.25926e-319
7.08467e-318
3.06956e-318
3.00204e-317
1.00965e-317
9.93326e-317
2.12155e-317
2.18013e-316
2.68465e-317
3.01836e-316
4.00372e-317
5.00773e-316
1.11761e-316
1.53236e-315
4.25907e-316
6.24564e-315
1.68295e-315
2.57917e-314
5.99755e-315
9.41296e-314
1.67947e-314
3.10196e-313
2.88845e-314
5.18248e-313
1.7574e-314
3.15727e-313
5.68187e-315
1.03962e-313
1.38775e-315
2.57853e-314
3.4763e-316
6.49976e-315
3.41996e-316
6.39587e-315
1.69232e-315
3.15815e-314
9.78037e-315
1.81974e-313
5.47172e-314
1.01447e-312
2.93596e-313
5.42188e-312
1.50768e-312
2.77282e-311
7.40424e-312
1.35606e-310
3.47509e-311
6.33666e-310
1.55521e-310
2.8221e-309
6.60725e-310
1.19223e-308
2.64775e-309
4.74621e-308
9.93025e-309
1.76644e-307
3.45832e-308
6.09927e-307
1.9499e-306
0
0
0
0
0
0
0
0
0
0
0
0
0
0
0
0
0
0
0
4.94066e-324
4.94066e-324
1.4822e-323
9.88131e-324
5.43472e-323
2.47033e-323
1.72923e-322
8.39912e-323
5.92879e-322
3.0138e-322
2.20847e-321
1.14623e-321
8.91294e-321
4.77761e-321
3.94413e-320
2.165e-320
1.89341e-319
1.03897e-319
9.57341e-319
5.08305e-319
4.87389e-318
2.40788e-318
2.35581e-317
1.01806e-317
9.988e-317
3.35836e-317
3.3186e-316
7.18564e-317
7.42275e-316
9.57018e-317
1.08181e-315
1.48057e-316
1.86242e-315
4.12591e-316
5.69234e-315
1.55574e-315
2.29621e-314
6.08624e-315
9.3849e-314
2.14666e-314
3.3874e-313
5.94074e-314
1.10234e-312
1.0082e-313
1.8167e-312
6.13246e-314
1.10653e-312
1.98999e-314
3.65796e-313
4.90454e-315
9.15753e-314
1.37912e-315
2.59152e-314
2.14394e-315
4.0296e-314
1.15904e-314
2.17368e-313
6.69599e-314
1.25195e-312
3.73111e-313
6.95082e-312
1.99367e-312
3.69911e-311
1.01952e-311
1.8837e-310
4.98593e-311
9.17273e-310
2.33019e-310
4.26761e-309
1.03827e-309
1.89202e-308
4.39015e-309
7.9537e-308
1.74951e-308
3.14806e-307
6.51345e-308
1.16277e-306
2.24317e-307
3.9691e-306
1.24395e-305
0
0
0
0
0
0
0
0
0
0
0
0
0
0
0
0
0
4.94066e-324
4.94066e-324
1.97626e-323
9.88131e-324
5.43472e-323
2.96439e-323
1.77864e-322
8.89318e-323
5.73116e-322
2.81617e-322
1.95156e-321
9.7825e-322
7.1936e-321
3.70549e-321
2.89522e-320
1.54593e-320
1.28087e-319
7.01672e-320
6.1571e-319
3.37185e-319
3.11664e-318
1.6503e-318
1.58676e-317
7.8095e-318
7.66098e-317
3.29553e-317
3.24385e-316
1.08797e-316
1.07994e-315
2.3619e-316
2.45303e-315
3.28497e-316
3.73457e-315
5.24546e-316
6.63853e-315
1.45871e-315
2.02588e-314
5.44299e-315
8.08878e-314
2.10807e-314
3.27171e-313
7.35834e-314
1.16775e-312
2.0124e-313
3.75228e-312
3.36988e-313
6.09973e-312
2.04864e-313
3.71356e-312
6.67237e-314
1.23252e-312
1.66681e-314
3.12832e-313
5.65878e-315
1.06898e-313
1.34041e-314
2.53266e-313
7.59848e-314
1.43249e-312
4.38034e-313
8.23221e-312
2.43082e-312
4.5515e-311
1.29346e-311
2.41192e-310
6.58691e-311
1.22298e-309
3.20795e-310
5.92997e-309
1.49302e-309
2.74711e-308
6.62448e-309
1.21259e-307
2.78864e-308
5.07394e-307
1.1058e-307
1.99786e-306
4.09173e-307
7.33222e-306
1.3969e-306
2.48032e-305
7.65847e-305
0
0
0
0
0
0
0
0
0
0
0
0
0
0
0
4.94066e-324
4.94066e-324
1.97626e-323
9.88131e-324
6.42285e-323
2.96439e-323
1.87745e-322
9.38725e-323
5.78057e-322
2.81617e-322
1.85275e-321
9.0414e-322
6.28946e-321
3.11755e-321
2.30333e-320
1.17933e-320
9.241e-320
4.91348e-320
4.08469e-319
2.22957e-319
1.96327e-318
1.07103e-318
9.93229e-318
5.23477e-318
5.04813e-317
2.47032e-317
2.43027e-316
1.03868e-316
1.02592e-315
3.42533e-316
3.41582e-315
7.52308e-316
7.85714e-315
1.08622e-315
1.24236e-314
1.7839e-315
2.27235e-314
4.95008e-315
6.92329e-314
1.82809e-314
2.73643e-313
7.00918e-314
1.09525e-312
2.42114e-313
3.86518e-312
6.54323e-313
1.22622e-311
1.08111e-312
1.96613e-311
6.56697e-313
1.19617e-311
2.14716e-313
3.9868e-312
5.48361e-314
1.03482e-312
2.46484e-314
4.68229e-313
8.22631e-314
1.56301e-312
4.77503e-313
9.05176e-312
2.74418e-312
5.18542e-311
1.51655e-311
2.85487e-310
8.03585e-311
1.50637e-309
4.07518e-310
7.60555e-309
1.97648e-309
3.6721e-308
9.16105e-309
1.69392e-307
4.04799e-308
7.44504e-307
1.69684e-307
3.10152e-306
6.69801e-307
1.21538e-305
2.4653e-306
4.4356e-305
8.35732e-306
1.48944e-304
4.54679e-304
0
0
0
0
0
0
0
0
0
0
0
0
0
4.94066e-324
4.94066e-324
2.47033e-323
1.4822e-323
7.41098e-323
3.95253e-323
2.07508e-322
1.03754e-322
6.17582e-322
3.0138e-322
1.86757e-321
8.94259e-322
5.91397e-321
2.85076e-321
1.99108e-320
9.77756e-321
7.24547e-320
3.68227e-320
2.89567e-319
1.53057e-319
1.27712e-318
6.93317e-319
6.12763e-318
3.32347e-318
3.09281e-317
1.61934e-317
1.56655e-316
7.6084e-317
7.50805e-316
3.18276e-316
3.15512e-315
1.04686e-315
1.04899e-314
2.32085e-315
2.43808e-314
3.46321e-315
3.98641e-314
5.83449e-315
7.48362e-314
1.61558e-314
2.27657e-313
5.90621e-314
8.90876e-313
2.24179e-313
3.52817e-312
7.66278e-313
1.23094e-311
2.04636e-312
3.85516e-311
3.33594e-312
6.09679e-311
2.0242e-312
3.70592e-311
6.64791e-313
1.24113e-311
1.7641e-313
3.34829e-312
1.15055e-313
2.19852e-312
4.91101e-313
9.38596e-312
2.88105e-312
5.49328e-311
1.64976e-311
3.13536e-310
9.07916e-311
1.71885e-309
4.7906e-310
9.03049e-309
2.41927e-309
4.53988e-308
1.1685e-308
2.18262e-307
5.39393e-308
1.00258e-306
2.37374e-307
4.38787e-306
9.90943e-307
1.82007e-305
3.89487e-306
7.09997e-305
1.42675e-305
2.57809e-304
4.80818e-305
8.60319e-304
2.60286e-303
0
0
0
0
0
0
0
0
0
0
0
9.88131e-324
4.94066e-324
2.96439e-323
1.4822e-323
8.39912e-323
4.44659e-323
2.42092e-322
1.23516e-322
6.7687e-322
3.31024e-322
1.96638e-321
9.43665e-322
5.8942e-321
2.79641e-321
1.85176e-320
8.81907e-321
6.18521e-320
3.00738e-320
2.23688e-319
1.12731e-319
8.89768e-319
4.66793e-319
3.90999e-318
2.10719e-318
1.86957e-317
1.00622e-317
9.39836e-317
4.87976e-317
4.73666e-316
2.27951e-316
2.25686e-315
9.47528e-316
9.42933e-315
3.10463e-315
3.12666e-314
6.93534e-315
7.33056e-314
1.06588e-314
1.23528e-313
1.83845e-314
2.37556e-313
5.08084e-314
7.21673e-313
1.83903e-313
2.79646e-312
6.91023e-313
1.09576e-311
2.33728e-312
3.77908e-311
6.16758e-312
1.16831e-310
9.91955e-312
1.82228e-310
6.01155e-312
1.10653e-310
1.98572e-312
3.72864e-311
5.63765e-313
1.07655e-311
5.68524e-313
1.09311e-311
2.83934e-312
5.46024e-311
1.67177e-311
3.20713e-310
9.53585e-311
1.82328e-309
5.22574e-310
9.95256e-309
2.74567e-309
5.20628e-308
1.38075e-308
2.60608e-307
6.64135e-308
1.24757e-306
3.05319e-307
5.70649e-306
1.33822e-306
2.487e-305
5.56407e-306
1.02723e-304
2.17795e-305
3.98965e-304
7.94308e-305
1.44189e-303
2.66314e-304
4.78532e-303
1.43727e-302
0
0
0
0
0
0
0
4.94066e-324
4.94066e-324
9.88131e-324
9.88131e-324
3.45846e-323
1.97626e-323
1.03754e-322
5.43472e-323
2.76677e-322
1.43279e-322
7.65802e-322
3.80431e-322
2.14424e-321
1.03754e-321
6.14618e-321
2.91005e-321
1.82607e-320
8.5671e-321
5.68768e-320
2.67932e-320
1.8854e-319
9.07302e-320
6.7729e-319
3.38059e-319
2.67865e-318
1.39256e-318
1.17112e-317
6.25437e-318
5.57141e-317
2.97038e-317
2.78512e-316
1.43175e-316
1.39473e-315
6.64156e-316
6.59871e-315
2.74036e-315
2.7383e-314
8.93573e-315
9.04725e-314
2.00861e-314
2.13693e-313
3.17077e-314
3.70138e-313
5.59044e-314
7.28075e-313
1.54234e-313
2.20926e-312
5.52835e-313
8.47846e-312
2.05646e-312
3.2868e-311
6.88269e-312
1.12042e-310
1.79456e-311
3.41885e-310
2.8475e-311
5.25937e-310
1.72339e-311
3.19015e-310
5.74104e-312
1.08456e-310
1.83163e-312
3.52001e-311
2.90144e-312
5.61511e-311
1.58717e-311
3.07215e-310
9.34451e-311
1.80426e-309
5.30863e-310
1.02152e-308
2.89681e-309
5.55194e-308
1.51553e-308
2.89164e-307
7.58913e-308
1.44119e-306
3.63514e-307
6.86967e-306
1.66433e-306
3.12894e-305
7.26542e-306
1.35793e-304
3.0088e-305
5.58522e-304
1.17302e-304
2.15998e-303
4.26024e-304
7.77133e-303
1.42179e-303
2.56631e-302
7.66066e-302
0
0
0
0
0
4.94066e-324
4.94066e-324
1.4822e-323
9.88131e-324
4.44659e-323
2.47033e-323
1.18576e-322
6.91692e-323
3.26083e-322
1.72923e-322
8.79437e-322
4.496e-322
2.39128e-321
1.17588e-321
6.62542e-321
3.16696e-321
1.88338e-320
8.81413e-321
5.54737e-320
2.57161e-320
1.71367e-319
7.97965e-320
5.6364e-319
2.68223e-319
2.01001e-318
9.92543e-319
7.89602e-318
4.0617e-318
3.42996e-317
1.81225e-317
1.62106e-316
8.54827e-317
8.04709e-316
4.09025e-316
3.99931e-315
1.88217e-315
1.87695e-314
7.70195e-315
7.72969e-314
2.49736e-314
2.54283e-313
5.64269e-314
6.04473e-313
9.12889e-314
1.0739e-312
1.64315e-313
2.15793e-312
4.52653e-313
6.54185e-312
1.60704e-312
2.48682e-311
5.91812e-312
9.5374e-311
1.95991e-311
3.2132e-310
5.04916e-311
9.67678e-310
7.90417e-311
1.4682e-309
4.77804e-311
8.89726e-310
1.61393e-311
3.0684e-310
6.22541e-312
1.20444e-310
1.49298e-311
2.90918e-310
8.5763e-311
1.67144e-309
5.03925e-310
9.79613e-309
2.85095e-309
5.52298e-308
1.54904e-308
2.98863e-307
8.06936e-308
1.54976e-306
4.02359e-307
7.69036e-306
1.9192e-306
3.64997e-305
8.75087e-306
1.6554e-304
3.80468e-305
7.15403e-304
1.56936e-304
2.93015e-303
6.0942e-304
1.1284e-302
2.20444e-303
4.04218e-302
7.32551e-303
1.32863e-301
3.94471e-301
0
0
0
4.94066e-324
4.94066e-324
1.97626e-323
1.4822e-323
5.43472e-323
3.45846e-323
1.4822e-322
8.39912e-323
3.85371e-322
2.12448e-322
1.01778e-321
5.33591e-322
2.71242e-321
1.36362e-321
7.30229e-321
3.54739e-321
2.00492e-320
9.47124e-321
5.65409e-320
2.61608e-320
1.65225e-319
7.56909e-320
5.06274e-319
2.32967e-319
1.65187e-318
7.76864e-319
5.84476e-318
2.85224e-318
2.2784e-317
1.15811e-317
9.82119e-317
5.12661e-317
4.60518e-316
2.39878e-316
2.26731e-315
1.13819e-315
1.11712e-314
5.19088e-315
5.19631e-314
2.10503e-314
2.12225e-313
6.78283e-314
6.94741e-313
1.5391e-313
1.66082e-312
2.54712e-313
3.02095e-312
4.67521e-313
6.19447e-312
1.28629e-312
1.87652e-311
4.52421e-312
7.06711e-311
1.64948e-311
2.68129e-310
5.40518e-311
8.92722e-310
1.37585e-310
2.65327e-309
2.12501e-310
3.97069e-309
1.28362e-310
2.40519e-309
4.44255e-311
8.50275e-310
2.26906e-311
4.42091e-310
7.61447e-311
1.49442e-309
4.4822e-310
8.79836e-309
2.62567e-309
5.14074e-308
1.47921e-308
2.88592e-307
8.00241e-308
1.55478e-306
4.15064e-307
8.02683e-306
2.06075e-306
3.96569e-305
9.78809e-306
1.87403e-304
4.44457e-305
8.46311e-304
1.92458e-304
3.642e-303
7.90701e-304
1.48543e-302
3.05843e-303
5.69632e-302
1.10196e-302
2.03183e-301
3.64704e-302
6.6487e-301
1.96435e-300
4.94066e-324
9.88131e-324
4.94066e-324
2.47033e-323
1.4822e-323
6.42285e-323
4.44659e-323
1.77864e-322
1.03754e-322
4.59481e-322
2.56914e-322
1.18576e-321
6.42285e-322
3.09285e-321
1.60077e-321
8.15702e-321
4.06122e-321
2.1813e-320
1.0489e-320
5.94559e-320
2.77665e-320
1.66391e-319
7.6096e-320
4.82425e-319
2.18382e-319
1.46633e-318
6.66598e-319
4.74527e-318
2.20413e-318
1.66502e-317
8.02245e-318
6.43536e-317
3.22856e-317
2.74972e-316
1.41634e-316
1.27773e-315
6.56699e-316
6.23246e-315
3.08705e-315
3.04153e-314
1.39427e-314
1.40117e-313
5.59961e-314
5.67195e-313
1.792e-313
1.84683e-312
4.08052e-313
4.43697e-312
6.89657e-313
8.25035e-312
1.28953e-312
1.72461e-311
3.54418e-312
5.22171e-311
1.23525e-311
1.9486e-310
4.45891e-311
7.31365e-310
1.4458e-310
2.40628e-309
3.63624e-310
7.05787e-309
5.54185e-310
1.04197e-308
3.34907e-310
6.3165e-309
1.21095e-310
2.33395e-309
8.93622e-311
1.75394e-309
3.81053e-310
7.53501e-309
2.26772e-309
4.48511e-308
1.32365e-308
2.61105e-307
7.42514e-308
1.45945e-306
3.99944e-307
7.82795e-306
2.06536e-306
4.02336e-305
1.021e-305
1.97899e-304
4.82892e-305
9.31118e-304
2.18359e-304
4.18684e-303
9.41683e-304
1.7941e-302
3.85342e-303
7.28659e-302
1.48466e-302
2.78249e-301
5.32846e-302
9.88283e-301
1.75656e-301
3.21989e-300
9.46952e-300
9.88131e-324
2.96439e-323
1.97626e-323
7.90505e-323
5.43472e-323
2.07508e-322
1.28457e-322
5.38532e-322
3.16202e-322
1.3735e-321
7.70742e-322
3.54245e-321
1.89227e-321
9.17974e-321
4.7035e-321
2.40462e-320
1.18428e-320
6.38432e-320
3.03603e-320
1.72795e-319
7.97965e-320
4.7999e-319
2.16969e-319
1.3809e-318
6.17636e-319
4.16358e-318
1.86938e-318
1.33614e-317
6.12638e-318
4.64724e-317
2.20903e-317
1.77962e-316
8.80343e-317
7.53047e-316
3.82355e-316
3.46422e-315
1.75512e-315
1.67252e-314
8.16747e-315
8.07786e-314
3.65063e-314
3.68309e-313
1.4512e-313
1.47698e-312
4.6102e-313
4.78151e-312
1.05274e-312
1.15383e-311
1.81437e-312
2.19029e-311
3.4526e-312
4.66315e-311
9.48124e-312
1.41141e-310
3.27524e-311
5.21993e-310
1.17064e-310
1.93815e-309
3.75608e-310
6.30123e-309
9.33442e-310
1.82401e-308
1.40422e-309
2.65737e-308
8.51116e-310
1.61626e-308
3.32718e-310
6.4598e-309
3.74996e-310
7.417e-309
1.86134e-309
3.70975e-308
1.11185e-308
2.21648e-307
6.46443e-308
1.28525e-306
3.6106e-307
7.15247e-306
1.93624e-306
3.81921e-305
9.95496e-306
1.95419e-304
4.89975e-305
9.56947e-304
2.30746e-304
4.48268e-303
1.03903e-303
2.00694e-302
4.46249e-303
8.5631e-302
1.81875e-302
3.46307e-301
6.97976e-302
1.31683e-300
2.49534e-301
4.65729e-300
8.19431e-301
1.51088e-299
4.42391e-299
2.47033e-323
8.89318e-323
6.42285e-323
2.47033e-322
1.58101e-322
6.27463e-322
3.80431e-322
1.59583e-321
9.18962e-322
4.05134e-321
2.23812e-321
1.03606e-320
5.47919e-321
2.66894e-320
1.35325e-320
6.9436e-320
3.38386e-320
1.83145e-319
8.61403e-320
4.92243e-319
2.2476e-319
1.35744e-318
6.06471e-319
3.87548e-318
1.71248e-318
1.15913e-317
5.13868e-318
3.68819e-317
1.66858e-317
1.27114e-316
5.95702e-317
4.82005e-316
2.3491e-316
2.01832e-315
1.00929e-315
9.18415e-315
4.58309e-315
4.38526e-314
2.10976e-314
2.09457e-313
9.32669e-314
9.44647e-313
3.66787e-313
3.75104e-312
1.15618e-312
1.20694e-311
2.64589e-312
2.92395e-311
4.64368e-312
5.65936e-311
8.98454e-312
1.2261e-310
2.46563e-311
3.71043e-310
8.4442e-311
1.36025e-309
2.98879e-310
4.99649e-309
9.49027e-310
1.60524e-308
2.33079e-309
4.58636e-308
3.46314e-309
6.59805e-308
2.11589e-309
4.0469e-308
9.44881e-310
1.84861e-308
1.63444e-309
3.25887e-308
8.85446e-309
1.77935e-307
5.2886e-308
1.06305e-306
3.06221e-307
6.13871e-306
1.70286e-306
3.40112e-305
9.09126e-306
1.80793e-304
4.65341e-305
9.20898e-304
2.2803e-304
4.48934e-303
1.06923e-303
2.09366e-302
4.79427e-303
9.33259e-302
2.05055e-302
3.96479e-301
8.32347e-302
1.59657e-300
3.18163e-301
6.0451e-300
1.13305e-300
2.12889e-299
3.70652e-300
6.87694e-299
2.00497e-298
6.91692e-323
2.56914e-322
1.92686e-322
7.26276e-322
4.59481e-322
1.84286e-321
1.10177e-321
4.6294e-321
2.64819e-321
1.16896e-320
6.39321e-321
2.97032e-320
1.55433e-320
7.60318e-320
3.81419e-320
1.96564e-319
9.47667e-320
5.15058e-319
2.39607e-319
1.37489e-318
6.20705e-319
3.76437e-318
1.66218e-318
1.06662e-317
4.6557e-318
3.16467e-317
1.38495e-317
9.98308e-317
4.45462e-317
3.40852e-316
1.57393e-316
1.27925e-315
6.13791e-316
5.29748e-315
2.60699e-315
2.38271e-314
1.17026e-314
1.12436e-313
5.32577e-314
5.30762e-313
2.3273e-313
2.36644e-312
9.05036e-313
9.30069e-312
2.82957e-312
2.97341e-311
6.48554e-312
7.2285e-311
1.15758e-311
1.42491e-310
2.2751e-311
3.13882e-310
6.24046e-311
9.49834e-310
2.11949e-310
3.45235e-309
7.43032e-310
1.25466e-308
2.33525e-309
3.9836e-308
5.66972e-309
1.1237e-307
8.33064e-309
1.59834e-307
5.18073e-309
9.98304e-308
2.85262e-309
5.62592e-308
7.22171e-309
1.4521e-307
4.09904e-308
8.30861e-307
2.44307e-307
4.95354e-306
1.40859e-306
2.8483e-305
7.7983e-306
1.57104e-304
4.14467e-305
8.31324e-304
2.11195e-304
4.21523e-303
1.03031e-303
2.04563e-302
4.81001e-303
9.49748e-302
2.14752e-302
4.21489e-301
9.14671e-302
1.78282e-300
3.69761e-301
7.14818e-300
1.40776e-300
2.69488e-299
4.99377e-300
9.44984e-299
1.62736e-299
3.03953e-298
8.82429e-298
2.07508e-322
7.5098e-322
5.48413e-322
2.09484e-321
1.31421e-321
5.27662e-321
3.12249e-321
1.31767e-320
7.45051e-321
3.30629e-320
1.78852e-320
8.34823e-320
4.32258e-320
2.12384e-319
1.05409e-319
5.45636e-319
2.60224e-319
1.42053e-318
6.53555e-319
3.76648e-318
1.6811e-318
1.02396e-317
4.46808e-318
2.87969e-317
1.24145e-317
8.47592e-317
3.66084e-317
2.65067e-316
1.16618e-316
8.96404e-316
4.07654e-316
3.32875e-315
1.5714e-315
1.36256e-314
6.5942e-315
6.05414e-314
2.92451e-314
2.82162e-313
1.31501e-313
1.31562e-312
5.67751e-313
5.79601e-312
2.1823e-312
2.2538e-311
6.76456e-312
7.15697e-311
1.55201e-311
1.74523e-310
2.81373e-311
3.50004e-310
5.61255e-311
7.83279e-310
1.539e-310
2.37048e-309
5.18552e-310
8.54449e-309
1.80104e-309
3.07275e-308
5.60436e-309
9.64393e-308
1.3459e-308
2.68735e-307
1.96021e-308
3.78837e-307
1.26328e-308
2.45333e-307
9.33476e-309
1.8565e-307
3.17982e-308
6.45041e-307
1.84684e-307
3.77743e-306
1.0972e-306
2.24496e-305
6.2986e-306
1.28525e-304
3.47142e-305
7.05705e-304
1.83662e-304
3.71719e-303
9.31613e-304
1.87615e-302
4.52445e-303
9.06337e-302
2.10291e-302
4.18902e-301
9.34821e-302
1.85078e-300
3.96475e-301
7.79401e-300
1.59615e-300
3.11134e-299
6.05237e-300
1.16788e-298
2.1385e-299
4.07756e-298
6.94218e-299
1.3059e-297
3.77528e-297
5.82997e-322
2.1393e-321
1.54148e-321
5.92385e-321
3.67091e-321
1.48121e-320
8.67085e-321
3.67684e-320
2.0568e-320
9.16986e-320
4.90755e-320
2.30146e-319
1.17904e-319
5.81965e-319
2.85743e-319
1.48589e-318
7.00926e-319
3.84377e-318