/*--------------------------------*- C++ -*----------------------------------*\
  =========                 |
  \\      /  F ield         | OpenFOAM: The Open Source CFD Toolbox
   \\    /   O peration     | Website:  https://openfoam.org
    \\  /    A nd           | Version:  9
     \\/     M anipulation  |
\*---------------------------------------------------------------------------*/
FoamFile
{
    format      ascii;
    class       volScalarField;
    location    "0.09";
    object      p_rgh;
}
// * * * * * * * * * * * * * * * * * * * * * * * * * * * * * * * * * * * * * //

dimensions      [1 -1 -2 0 0 0 0];

internalField   nonuniform List<scalar> 
5000
(
4.44627e-06
-4.54029e-05
-0.000147221
-0.000283483
-0.000459011
-0.000688819
-0.000991021
-0.00138515
-0.00188927
-0.00251596
-0.00326816
-0.0041357
-0.00509367
-0.00610232
-0.00710767
-0.0080408
-0.00881359
-0.0093078
-0.00936067
-0.00874406
-0.00727874
-0.00532191
-0.00564702
-0.00831902
-0.00206932
-0.00289528
-0.00679493
-0.00854172
-0.0079777
-0.00595403
-0.00334301
-0.00171624
-0.00100583
-0.00164521
-0.00280798
-0.00334371
-0.00327199
-0.00291828
-0.00246364
-0.00197834
-0.00149247
-0.0010264
-0.000589737
-0.000179841
0.000211777
0.000590803
0.000955187
0.00129418
0.00159023
0.00182655
1.65152e-05
-2.16989e-05
-0.000117377
-0.000239225
-0.00038622
-0.000566232
-0.000787358
-0.00105877
-0.00138991
-0.00178845
-0.00225779
-0.0027946
-0.00338669
-0.00401171
-0.00463678
-0.00521929
-0.00570961
-0.0060586
-0.00624388
-0.00632594
-0.00646926
-0.00664986
-0.00692148
-0.00728468
-0.00201591
-0.0013186
-0.00315235
-0.00445961
-0.00471536
-0.00410376
-0.00290846
-0.00167374
-0.000261126
0.000116188
-0.000377848
-0.000731998
-0.000710044
-0.000417042
1.24912e-05
0.000499657
0.00100814
0.00151706
0.00201124
0.00248186
0.00292674
0.0033464
0.00373936
0.00410078
0.00442532
0.00471019
-2.15428e-05
-9.98484e-05
-0.000208274
-0.000330687
-0.000472366
-0.000640471
-0.000839873
-0.0010756
-0.00135242
-0.00167357
-0.0020395
-0.00244658
-0.00288614
-0.00334396
-0.0038004
-0.00423176
-0.00461301
-0.00492185
-0.00514456
-0.00528066
-0.00531416
-0.00504259
-0.0046133
-0.00518415
-0.0022099
-0.00194692
-0.00267042
-0.00309202
-0.00305968
-0.00250144
-0.00147913
-0.000516399
0.000575568
0.00102164
0.000931557
0.000922019
0.00111041
0.0014704
0.00193698
0.0024594
0.00300645
0.00355697
0.00409608
0.00461473
0.00510881
0.00557638
0.00601496
0.00642084
0.00679041
0.00711723
-3.52567e-05
-0.000125309
-0.00023365
-0.000351353
-0.000483054
-0.00063413
-0.000808361
-0.0010096
-0.00124122
-0.00150525
-0.00180159
-0.0021273
-0.00247602
-0.00283779
-0.00319918
-0.0035437
-0.00385232
-0.00410268
-0.00426452
-0.00430035
-0.0041822
-0.00376295
-0.00303131
-0.00337398
-0.00178699
-0.00189113
-0.00216
-0.00215591
-0.00187
-0.00120395
-0.000146178
0.000762613
0.00162338
0.00203649
0.00216865
0.00240617
0.0027575
0.0032146
0.00374574
0.00432106
0.00491715
0.00551509
0.00610144
0.00666819
0.00721106
0.00772711
0.00821318
0.00866564
0.00908116
0.00944985
-4.25781e-05
-0.000135609
-0.000239877
-0.000350878
-0.000470803
-0.000602542
-0.000748254
-0.000910136
-0.00109009
-0.00128925
-0.00150749
-0.00174291
-0.00199129
-0.00224569
-0.00249606
-0.00272895
-0.00292749
-0.00307139
-0.00313395
-0.00308695
-0.00294624
-0.00265553
-0.00204725
-0.00224651
-0.00128605
-0.00126321
-0.00113536
-0.000903501
-0.000502143
0.000158599
0.00112949
0.00196662
0.00276477
0.0032823
0.00362352
0.00404774
0.00452813
0.00507874
0.00568261
0.00631974
0.00697218
0.0076243
0.00826457
0.00888535
0.00948165
0.0100495
0.0105852
0.0110847
0.0115446
0.0119531
-4.04767e-05
-0.000124086
-0.000214601
-0.000309559
-0.00040982
-0.000516804
-0.000631373
-0.000754266
-0.000885994
-0.00102658
-0.00117529
-0.00133029
-0.00148832
-0.00164427
-0.0017908
-0.0019179
-0.00201335
-0.00206453
-0.00205723
-0.00197366
-0.00183945
-0.00165622
-0.00119634
-0.00129748
-0.000597884
-0.000393514
1.06823e-05
0.000398566
0.000887666
0.00152575
0.00239996
0.0031836
0.00399146
0.00463791
0.00518778
0.00576053
0.00635581
0.00699835
0.00767842
0.00838234
0.00909617
0.00980722
0.0105056
0.0111837
0.0118359
0.0124574
0.0130437
0.0135905
0.0140945
0.0145427
-3.39633e-05
-0.000100945
-0.000171484
-0.00024432
-0.000319867
-0.000398814
-0.000481361
-0.000567552
-0.000657185
-0.0007496
-0.000843505
-0.000936849
-0.00102668
-0.00110897
-0.00117835
-0.00122796
-0.00124952
-0.00123511
-0.00117736
-0.00106051
-0.000896442
-0.000713225
-0.00029687
-0.000309651
0.000244587
0.000542276
0.00105327
0.00155821
0.00214747
0.00281559
0.00367246
0.00445761
0.00528771
0.00603003
0.00672937
0.00743416
0.00814244
0.00887918
0.00963868
0.0104129
0.0111913
0.0119636
0.0127214
0.0134574
0.0141655
0.0148407
0.015478
0.0160727
0.0166215
0.0171106
-2.60062e-05
-7.40959e-05
-0.00012284
-0.000172075
-0.000221893
-0.000272442
-0.000323604
-0.000375138
-0.000426533
-0.000476848
-0.00052466
-0.00056803
-0.000604379
-0.000630262
-0.000641269
-0.000632159
-0.00059679
-0.000528955
-0.000423561
-0.000265857
-5.44387e-05
0.000171807
0.000596181
0.000664812
0.00114243
0.00149052
0.00205313
0.00263308
0.00330947
0.00403414
0.00492876
0.00575904
0.00662399
0.00743846
0.00824688
0.00906413
0.00987857
0.0107084
0.0115488
0.0123955
0.0132405
0.0140756
0.0148935
0.0156875
0.0164516
0.0171805
0.0178691
0.0185124
0.0191071
0.0196389
-1.74252e-05
-4.62678e-05
-7.35103e-05
-9.96752e-05
-0.000124503
-0.000147752
-0.000169127
-0.000188156
-0.000204034
-0.000215574
-0.000221272
-0.000219334
-0.000207537
-0.000182944
-0.000141745
-7.94069e-05
9.39989e-06
0.000130321
0.000286716
0.000489517
0.000746879
0.00101671
0.00145854
0.00157824
0.00203094
0.00243855
0.00305714
0.0037025
0.00445133
0.00523257
0.00617763
0.00706531
0.00797701
0.00886264
0.0097676
0.0106844
0.0115962
0.0125151
0.0134356
0.0143556
0.0152686
0.0161678
0.0170467
0.0178995
0.0187203
0.0195037
0.0202444
0.0209374
0.021579
0.0221549
-8.17621e-06
-1.73862e-05
-2.34427e-05
-2.68945e-05
-2.72804e-05
-2.41592e-05
-1.70535e-05
-5.21529e-06
1.24333e-05
3.72619e-05
7.08471e-05
0.000114961
0.000171745
0.000243992
0.000335171
0.000449088
0.000590055
0.000763102
0.000970418
0.00121852
0.00151766
0.00182604
0.00230885
0.00244261
0.0029132
0.00338693
0.00406651
0.00477985
0.00559625
0.00643189
0.00742795
0.00837412
0.00934043
0.0103013
0.0112991
0.0123086
0.0133113
0.014315
0.0153141
0.0163073
0.0172888
0.0182528
0.019194
0.0201065
0.0209851
0.0218241
0.0226181
0.0233617
0.0240514
0.0246731
1.32699e-06
1.18472e-05
2.67656e-05
4.57682e-05
6.93453e-05
9.80572e-05
0.000132601
0.000173982
0.000223505
0.000282699
0.000353228
0.000436861
0.000535665
0.000652323
0.000790141
0.000952516
0.00114289
0.0013655
0.00162187
0.00191538
0.00225482
0.00258379
0.00309318
0.0033523
0.00380917
0.00433441
0.00506994
0.00585154
0.00673533
0.00762842
0.00867966
0.00968686
0.0107119
0.0117479
0.0128336
0.0139308
0.01502
0.0161054
0.0171814
0.0182471
0.0192973
0.0203269
0.0213309
0.0223043
0.0232417
0.0241374
0.024986
0.0257818
0.0265211
0.0271905
1.06459e-05
4.05386e-05
7.60782e-05
0.000116994
0.000163849
0.000217423
0.000278566
0.00034839
0.000428332
0.000520101
0.00062551
0.00074638
0.000884741
0.00104319
0.00122488
0.00143295
0.00167044
0.0019412
0.00224713
0.00259086
0.00298522
0.00338213
0.00386011
0.00420812
0.00468878
0.00527176
0.00606248
0.00691218
0.00786369
0.00881829
0.00993014
0.0110015
0.0120871
0.0131956
0.0143637
0.015544
0.0167163
0.0178809
0.0190323
0.02017
0.0212889
0.0223845
0.0234524
0.0244876
0.0254851
0.026439
0.0273437
0.0281935
0.0289844
0.0297039
1.96833e-05
6.84589e-05
0.000124149
0.000186349
0.000255797
0.000333515
0.000420437
0.000517743
0.000626991
0.000750061
0.000888916
0.00104545
0.00122172
0.00142033
0.00164443
0.00189709
0.0021811
0.00249999
0.00285589
0.00325016
0.00369503
0.00414811
0.0046504
0.00505045
0.00555784
0.00619932
0.00704675
0.00796537
0.00898447
0.0100027
0.011178
0.0123149
0.0134615
0.0146404
0.0158866
0.0171465
0.0183987
0.0196403
0.020866
0.0220752
0.0232629
0.0244253
0.025558
0.0266564
0.0277155
0.0287294
0.0296924
0.0305985
0.0314434
0.0322158
2.84734e-05
9.56582e-05
0.00017104
0.000254146
0.000345833
0.000447195
0.000559205
0.000683203
0.000820952
0.000974495
0.00114591
0.00133719
0.00155048
0.00178842
0.00205421
0.00235093
0.00268117
0.003048
0.0034534
0.00389747
0.00439086
0.00489741
0.00543758
0.00588571
0.00642388
0.0071219
0.00802654
0.00901436
0.0101005
0.0111828
0.0124221
0.0136242
0.0148318
0.0160796
0.0174013
0.0187381
0.0200678
0.0213846
0.0226835
0.023964
0.0252211
0.0264511
0.0276499
0.0288132
0.0299359
0.0310121
0.032036
0.0330012
0.0339029
0.0347315
3.70177e-05
0.000122261
0.000217141
0.000320963
0.000434553
0.000559109
0.000695775
0.000846087
0.00101194
0.00119547
0.00139885
0.00162428
0.00187402
0.00215072
0.00245752
0.00279753
0.00317331
0.00358759
0.00404227
0.00453651
0.00507868
0.00563756
0.00621828
0.00671474
0.0072885
0.0080412
0.00900256
0.0100591
0.0112117
0.0123582
0.0136611
0.0149274
0.0161954
0.0175109
0.0189059
0.0203178
0.0217232
0.0231139
0.0244857
0.0258375
0.0271647
0.0284636
0.0297303
0.0309607
0.0321495
0.0332909
0.0343788
0.0354064
0.0363684
0.0372567
4.52416e-05
0.000148356
0.000262734
0.000387107
0.000522243
0.000669654
0.000830786
0.00100731
0.00120111
0.00141428
0.00164916
0.00190821
0.00219394
0.002509
0.00285638
0.0032392
0.00366009
0.00412161
0.00462555
0.00517049
0.00576211
0.00637205
0.00699378
0.00753816
0.00815092
0.00895639
0.00997391
0.0110985
0.0123169
0.0135273
0.0148933
0.0162225
0.01755
0.0189317
0.0203985
0.0218841
0.0233641
0.0248283
0.0262729
0.0276968
0.0290952
0.0304648
0.0318017
0.0331017
0.0343597
0.0355697
0.0367252
0.037819
0.0388453
0.0397977
5.00939e-05
0.000173001
0.000307749
0.000452837
0.000609496
0.00077976
0.000965365
0.00116805
0.00138962
0.00163216
0.00189821
0.00219058
0.00251204
0.00286532
0.00325324
0.00367879
0.00414462
0.00465313
0.00520602
0.00580145
0.00644252
0.00710223
0.00776481
0.00835643
0.00901019
0.00986663
0.0109399
0.0121318
0.0134151
0.0146888
0.0161168
0.0175078
0.0188937
0.0203403
0.0218774
0.0234361
0.0249901
0.0265278
0.028046
0.0295431
0.0310147
0.0324572
0.033867
0.03524
0.0365708
0.0378532
0.0390804
0.0402449
0.04134
0.0423606
5.88321e-05
0.000200182
0.000354243
0.000519621
0.00069773
0.000890904
0.00110097
0.0013297
0.00157892
0.0018508
0.00214801
0.0024736
0.00283059
0.00322184
0.00365007
0.00411812
0.00462857
0.00518366
0.00578493
0.0064302
0.00712019
0.00782841
0.00853193
0.0091701
0.00986603
0.0107717
0.0119002
0.0131583
0.0145056
0.0158415
0.0173301
0.0187815
0.0202249
0.0217353
0.023342
0.0249734
0.0266018
0.0282136
0.0298065
0.0313786
0.0329255
0.0344438
0.0359299
0.0373795
0.0387872
0.0401466
0.0414502
0.0426901
0.0438588
0.0449521
6.77821e-05
0.000227913
0.00040159
0.000587629
0.000787584
0.0010039
0.00123843
0.0014931
0.00176991
0.00207122
0.00239976
0.00275859
0.00315089
0.00357966
0.00404772
0.00455784
0.0051125
0.00571377
0.00636291
0.00705737
0.00779558
0.00855101
0.00929544
0.00997949
0.0107181
0.0116711
0.0128539
0.0141769
0.0155871
0.0169841
0.0185318
0.0200423
0.0215423
0.023116
0.024792
0.0264965
0.0281998
0.0298871
0.0315563
0.0332057
0.0348308
0.0364282
0.0379943
0.0395248
0.0410141
0.0424552
0.0438403
0.0451607
0.0464081
0.047579
7.6803e-05
0.00025623
0.000450098
0.000657404
0.000879646
0.00111928
0.00137825
0.00165871
0.00196304
0.00229381
0.0026538
0.00304598
0.00347348
0.00393948
0.00444696
0.00499873
0.00559722
0.00624428
0.00694078
0.00768371
0.00846924
0.00927038
0.0100553
0.0107843
0.0115656
0.0125639
0.0137997
0.0151861
0.0166581
0.018115
0.0197206
0.0212891
0.0228452
0.0244819
0.0262275
0.0280061
0.0297855
0.0315499
0.0332979
0.0350273
0.036734
0.0384144
0.0400648
0.0416808
0.0432565
0.0447845
0.0462563
0.0476625
0.0489938
0.0502472
8.58438e-05
0.000285093
0.000499697
0.000728822
0.000973834
0.00123716
0.00152084
0.00182726
0.00215914
0.00251934
0.00291075
0.00333629
0.00379903
0.00430217
0.00484881
0.00544184
0.00608368
0.00677596
0.00751913
0.00830959
0.00914131
0.00998655
0.0108112
0.0115837
0.012407
0.0134487
0.0147362
0.0161845
0.0177174
0.0192332
0.0208955
0.0225211
0.0241333
0.0258333
0.0276493
0.0295033
0.0313607
0.0332045
0.035034
0.0368469
0.0386389
0.0404066
0.0421459
0.0438523
0.0455195
0.0471395
0.0487034
0.0502008
0.0516214
0.052962
9.49126e-05
0.00031441
0.000550158
0.000801559
0.00106988
0.00135752
0.00166652
0.0019994
0.00235911
0.00274875
0.00317142
0.00363015
0.00412799
0.00466812
0.00525366
0.00588751
0.00657209
0.00730885
0.00809781
0.00893474
0.00981148
0.0106993
0.0115626
0.0123769
0.0132408
0.0143244
0.0156624
0.0171712
0.0187642
0.0203379
0.0220562
0.0237383
0.0254067
0.0271706
0.0290583
0.0309897
0.0329274
0.0348536
0.0367679
0.0386679
0.0405494
0.0424088
0.0442419
0.0460437
0.0478075
0.0495249
0.051186
0.0527798
0.0542949
0.0557275
0.000104058
0.00034433
0.000601692
0.000875787
0.00116783
0.00148028
0.00181518
0.00217509
0.00256303
0.00298224
0.00343604
0.00392766
0.00446028
0.00503705
0.00566109
0.00633525
0.00706187
0.00784229
0.00867611
0.00955843
0.0104791
0.0114081
0.0123089
0.0131627
0.0140656
0.0151894
0.0165769
0.0181451
0.0197977
0.0214288
0.0232026
0.0249409
0.0266661
0.028495
0.0304562
0.0324672
0.034488
0.0364998
0.0385025
0.0404937
0.0424691
0.0444248
0.0463565
0.0482587
0.0501242
0.0519439
0.0537073
0.0554025
0.0570171
0.0585463
0.000113342
0.000375178
0.000654799
0.000951974
0.00126796
0.00160543
0.00196654
0.00235387
0.00277041
0.00321943
0.00370437
0.00422866
0.00479565
0.0054086
0.00607058
0.00678438
0.00755226
0.0083754
0.00925303
0.0101796
0.0111429
0.0121118
0.0130487
0.0139398
0.0148797
0.0160424
0.0174786
0.0191053
0.0208173
0.0225054
0.0243347
0.0261293
0.0279123
0.0298077
0.0318446
0.033938
0.036045
0.0381459
0.0402409
0.0423273
0.0444009
0.0464576
0.0484924
0.0504999
0.0524719
0.0543988
0.0562692
0.0580705
0.0597894
0.0614198
0.000122682
0.00040693
0.000709542
0.00103025
0.00137043
0.00173312
0.00212062
0.0025356
0.002981
0.00346005
0.0039762
0.00453301
0.00513402
0.00578258
0.00648179
0.0072344
0.00804254
0.00890723
0.00982732
0.0107966
0.0118011
0.0128085
0.0137802
0.0147063
0.0156814
0.0168819
0.0183663
0.020051
0.0218223
0.0235675
0.0254529
0.0273042
0.0291461
0.03111
0.0332251
0.035404
0.0376007
0.0397943
0.0419854
0.0441712
0.0463473
0.0485092
0.0506517
0.0527687
0.0548518
0.0568903
0.0588722
0.0607841
0.0626119
0.064348
0.000131818
0.000439015
0.000765271
0.00111013
0.00147508
0.00186343
0.00227765
0.00272045
0.00319482
0.00370396
0.0042513
0.00484047
0.0054751
0.00615864
0.00689424
0.00768462
0.00853179
0.00943657
0.0103974
0.0114075
0.0124514
0.0134956
0.0145011
0.0154606
0.0164695
0.0177072
0.0192393
0.0209817
0.0228124
0.0246151
0.0265572
0.0284662
0.0303688
0.0324033
0.0345996
0.0368672
0.039157
0.0414471
0.0437383
0.0460273
0.0483099
0.0505809
0.052835
0.0550657
0.0572639
0.0594181
0.0615156
0.0635424
0.0654837
0.0673301
0.00014055
0.000470919
0.000821328
0.00119103
0.00158147
0.00199611
0.00243744
0.00290823
0.00341154
0.00395063
0.00452897
0.0051502
0.00581797
0.0065358
0.00730688
0.00813387
0.00901868
0.00996189
0.0109616
0.0120102
0.0130912
0.0141706
0.015209
0.0162013
0.0172434
0.018518
0.0200975
0.0218972
0.0237877
0.0256484
0.0276484
0.0296161
0.0315813
0.0336891
0.0359696
0.0383292
0.0407157
0.0431058
0.0455006
0.0478966
0.0502891
0.0526728
0.0550421
0.0573901
0.0597069
0.0619806
0.0641977
0.0663436
0.0684027
0.0703644
0.000148909
0.000502683
0.000877663
0.00127273
0.00168919
0.00213054
0.00259923
0.00309807
0.00363019
0.00419897
0.00480796
0.00546081
0.00616117
0.00691254
0.00771812
0.00858052
0.0095015
0.0104814
0.0115178
0.0126026
0.0137186
0.0148315
0.0159022
0.0169272
0.0180028
0.0193142
0.0209409
0.0227978
0.0247485
0.0266679
0.0287269
0.0307548
0.0327847
0.0349685
0.0373363
0.0397911
0.0422775
0.044771
0.0472727
0.0497787
0.0522844
0.0547839
0.0572715
0.0597398
0.0621786
0.0645754
0.0669159
0.069185
0.0713665
0.0734484
0.000157008
0.000534569
0.000934438
0.00135509
0.0017977
0.00226583
0.00276189
0.00328871
0.00384947
0.00444765
0.00508685
0.00577077
0.00650304
0.00728713
0.00812619
0.00902276
0.00997844
0.0109933
0.0120644
0.0131833
0.0143321
0.0154769
0.0165795
0.0176378
0.0187476
0.0200959
0.0217697
0.0236839
0.0256952
0.027674
0.0297931
0.0318828
0.0339798
0.0362421
0.0387
0.0412533
0.0438425
0.0464423
0.0490537
0.0516725
0.054294
0.056912
0.0595205
0.062112
0.0646759
0.0671992
0.0696671
0.0720636
0.0743722
0.0765797
0.000164812
0.000566464
0.00099134
0.00143755
0.0019062
0.00240095
0.00292422
0.00347884
0.00406802
0.00469525
0.00536419
0.00607853
0.00684192
0.00765782
0.00852929
0.00945881
0.0104478
0.0114961
0.0126003
0.0137515
0.0149313
0.0161068
0.017241
0.0183331
0.0194776
0.0208632
0.0225843
0.0245559
0.0266283
0.0286671
0.0308475
0.0330006
0.0351668
0.0375101
0.0400609
0.0427152
0.04541
0.0481185
0.0508417
0.0535756
0.0563151
0.0590539
0.0617858
0.0645033
0.0671954
0.0698487
0.0724478
0.0749763
0.077417
0.0797556
0.000172093
0.00059781
0.00104755
0.00151914
0.00201361
0.00253474
0.00308495
0.00366708
0.00428433
0.00494017
0.00563826
0.0063823
0.00717597
0.00802269
0.00892554
0.00988688
0.0109081
0.0119886
0.0131247
0.014307
0.0155166
0.0167218
0.0178872
0.0190132
0.0201928
0.021616
0.0233846
0.0254142
0.0275483
0.0296477
0.0318902
0.0341081
0.0363455
0.0387721
0.041418
0.0441757
0.0469781
0.0497972
0.0526341
0.0554848
0.0583441
0.0612057
0.0640635
0.0669096
0.0697331
0.0725202
0.0752549
0.0779203
0.0804984
0.0829743
0.000178542
0.000627912
0.00110215
0.00159877
0.00211873
0.00266589
0.00324264
0.00385181
0.00449659
0.00518042
0.00590695
0.00667991
0.00750297
0.00837961
0.00931287
0.0103051
0.0113575
0.0124695
0.0136369
0.0148497
0.0160888
0.017323
0.0185191
0.0196786
0.0208932
0.0223544
0.0241712
0.0262591
0.0284552
0.0306155
0.0329209
0.0352048
0.0375152
0.0400268
0.0427697
0.0456327
0.0485443
0.0514753
0.0544272
0.0573961
0.0603769
0.0633633
0.0663493
0.069327
0.0722854
0.0752104
0.0780855
0.0808931
0.0836147
0.0862344
0.00018387
0.000656191
0.00115441
0.00167556
0.00222047
0.00279308
0.00339576
0.00403129
0.00470284
0.00541385
0.00616799
0.00696901
0.00782062
0.00872631
0.00968917
0.0107115
0.0117946
0.0129376
0.0141361
0.0153796
0.0166483
0.0179116
0.0191379
0.0203298
0.0215789
0.0230787
0.0249444
0.027091
0.0293492
0.0315705
0.033939
0.0362898
0.0386744
0.0412724
0.0441138
0.0470833
0.0501051
0.0531492
0.0562171
0.0593053
0.0624092
0.0655224
0.0686391
0.0717517
0.0748489
0.0779163
0.0809371
0.0838929
0.0867644
0.0895351
0.000187847
0.000682223
0.00120381
0.0017488
0.00231789
0.00291514
0.0035429
0.00420389
0.00490128
0.00563854
0.00641936
0.00724752
0.00812678
0.00906069
0.0100524
0.0111043
0.0122176
0.0133916
0.0146215
0.0158962
0.0171953
0.0184881
0.0197441
0.0209671
0.0222503
0.0237895
0.0257049
0.0279101
0.03023
0.032512
0.0349435
0.0373617
0.0398213
0.0425065
0.0454471
0.0485239
0.0516566
0.0548144
0.0579991
0.061208
0.0644365
0.0676787
0.070929
0.07418
0.0774203
0.0806353
0.0838077
0.0869181
0.0899468
0.0928761
0.000190285
0.000705659
0.00124985
0.00181782
0.00241017
0.00303107
0.00368286
0.00436826
0.00509045
0.00585292
0.00665939
0.00751369
0.00841964
0.00938086
0.0104006
0.0114814
0.0126248
0.0138297
0.0150916
0.0163985
0.0177292
0.0190524
0.0203379
0.0215911
0.0229081
0.0244878
0.0264535
0.0287167
0.031097
0.0334389
0.035933
0.0384185
0.0409531
0.0437258
0.0467661
0.0499505
0.0531944
0.0564663
0.0597688
0.0630995
0.0664545
0.0698282
0.0732154
0.0766087
0.079997
0.0833651
0.0866953
0.0899676
0.0931611
0.0962571
0.000190989
0.000726112
0.00129193
0.00188188
0.0024964
0.00313985
0.00381456
0.00452324
0.00526909
0.00605563
0.00688661
0.00776593
0.00869748
0.00968502
0.010732
0.0118412
0.0130143
0.0142505
0.0155449
0.0168852
0.0182489
0.0196035
0.0209186
0.0222016
0.0235531
0.0251748
0.0271909
0.0295104
0.0319493
0.0343497
0.0369054
0.0394576
0.0420669
0.044927
0.0480667
0.0513586
0.0547139
0.0581005
0.0615215
0.0649756
0.0684592
0.0719671
0.0754947
0.0790348
0.0825762
0.0861036
0.0895985
0.0930401
0.0964064
0.0996775
0.000189783
0.000743224
0.00132951
0.00194022
0.00257572
0.00324052
0.00393692
0.00466765
0.00543591
0.00624525
0.00709945
0.00800251
0.00895846
0.00997127
0.0110446
0.0121816
0.0133842
0.0146518
0.0159794
0.0173541
0.0187521
0.0201395
0.021485
0.0227983
0.0241858
0.0258511
0.0279173
0.0302907
0.0327854
0.0352422
0.037858
0.0404759
0.0431591
0.0461059
0.0493446
0.0527438
0.0562105
0.0597122
0.0632529
0.066832
0.0704466
0.0740919
0.0777638
0.0814555
0.0851556
0.0888487
0.0925154
0.096134
0.0996813
0.103136
0.00018657
0.000756796
0.0013622
0.00199231
0.00264742
0.00333219
0.00404892
0.0048003
0.00558953
0.0064202
0.00729617
0.00822157
0.00920063
0.0102376
0.0113364
0.0125007
0.0137326
0.0150318
0.0163932
0.0178031
0.0192366
0.0206579
0.022035
0.0233805
0.0248064
0.026517
0.0286321
0.0310562
0.0336032
0.0361139
0.0387877
0.0414698
0.0442258
0.0472584
0.0505956
0.0541016
0.0576798
0.0612973
0.0649588
0.0686649
0.0724131
0.0761992
0.0800197
0.0838679
0.0877327
0.091598
0.0954437
0.0992471
0.102984
0.10663
0.000181331
0.000766792
0.00138978
0.00203774
0.00271091
0.00341408
0.00414954
0.00491993
0.00572849
0.00657885
0.007475
0.00842124
0.00942208
0.0104821
0.0116056
0.0127966
0.0140576
0.0153886
0.0167842
0.01823
0.0196997
0.0211561
0.0225665
0.0239469
0.0254143
0.0271717
0.0293341
0.0318049
0.0344003
0.0369617
0.0396911
0.0424358
0.0452632
0.0483806
0.0518155
0.0554281
0.0591179
0.0628519
0.0666356
0.0704707
0.0743553
0.0782858
0.0822592
0.0862692
0.0903045
0.0943486
0.0983806
0.102376
0.10631
0.110157
0.000174057
0.000773171
0.00141204
0.0020761
0.00276557
0.00348537
0.00423773
0.00502531
0.00585138
0.00671966
0.00763432
0.0085999
0.0096212
0.0107032
0.0118506
0.0130679
0.0143579
0.0157207
0.0171507
0.0186327
0.0201391
0.0216315
0.0230773
0.024496
0.0260082
0.0278134
0.0300207
0.0325342
0.0351739
0.0377827
0.0405647
0.0433701
0.0462674
0.0494685
0.0530005
0.0567193
0.0605211
0.0643723
0.0682798
0.072246
0.0762699
0.0803484
0.0844791
0.0886561
0.0928678
0.097097
0.101322
0.105517
0.109656
0.113712
0.000164677
0.000775756
0.00142859
0.00210684
0.00281069
0.00354515
0.00431245
0.00511528
0.00595696
0.00684138
0.0077729
0.00875634
0.00979686
0.0108998
0.0120705
0.0133136
0.0146324
0.0160271
0.0174916
0.0190098
0.0205531
0.022082
0.0235652
0.0250256
0.0265858
0.0284391
0.0306889
0.0332411
0.0359208
0.0385734
0.041405
0.044269
0.0472349
0.0505186
0.054147
0.0579719
0.0618859
0.0658554
0.069888
0.0739874
0.0781534
0.0823835
0.0866758
0.0910245
0.0954181
0.0998387
0.104263
0.108665
0.113017
0.117289
0.000153068
0.000774262
0.001439
0.00212935
0.00284552
0.00359258
0.00437278
0.00518887
0.00604429
0.0069431
0.0078899
0.00888982
0.0099484
0.0110714
0.0122647
0.0135333
0.0148808
0.0163072
0.0178061
0.0193605
0.0209404
0.0225061
0.0240284
0.0255334
0.0271436
0.0290449
0.0313344
0.0339218
0.0366379
0.0393307
0.0422089
0.0451293
0.0481622
0.0515275
0.0552517
0.0591826
0.0632092
0.0672976
0.0714568
0.0756915
0.0800021
0.084387
0.0888448
0.09337
0.0979505
0.102568
0.107198
0.111814
0.116386
0.120883
0.000139074
0.000768373
0.00144281
0.00214309
0.00286942
0.00362696
0.00441801
0.0052454
0.00611274
0.00702427
0.00798485
0.00899997
0.0100756
0.0112179
0.0124331
0.0137268
0.0151027
0.0165608
0.0180941
0.0196843
0.0213004
0.0229029
0.0244652
0.0260166
0.0276778
0.0296259
0.0319529
0.0345726
0.0373219
0.0400516
0.0429732
0.0459478
0.0490464
0.0524923
0.0563118
0.0603485
0.0644878
0.0686959
0.0729827
0.0773542
0.0818118
0.0863544
0.0909812
0.0956868
0.100459
0.105278
0.11012
0.114955
0.119754
0.124486
0.000122515
0.000757758
0.00143962
0.00214758
0.00288188
0.00364777
0.00444764
0.00528444
0.00616194
0.00708459
0.00805757
0.00908669
0.0101783
0.0113391
0.0125758
0.0138942
0.0152983
0.016788
0.0183554
0.0199811
0.0216328
0.0232715
0.0248738
0.0264721
0.0281839
0.0301773
0.0325395
0.0351894
0.0379693
0.040733
0.0436951
0.0467217
0.0498845
0.05341
0.0573243
0.0614665
0.0657185
0.0700464
0.0744617
0.0789714
0.0835778
0.0882805
0.0930792
0.0979685
0.102936
0.107962
0.11302
0.118082
0.123116
0.12809
0.000103185
0.000742081
0.00142908
0.00214246
0.00288254
0.0036547
0.00446141
0.00530577
0.00619174
0.00712401
0.00810807
0.00915008
0.0102568
0.0114354
0.012693
0.0140358
0.0154679
0.0169889
0.0185902
0.020251
0.0219375
0.0236113
0.0252529
0.0268969
0.0286576
0.030694
0.0330898
0.0357684
0.0385769
0.0413721
0.0443721
0.0474484
0.0506739
0.054278
0.0582864
0.0625335
0.0668978
0.0713456
0.0758895
0.0805383
0.0852947
0.0901592
0.0951319
0.100208
0.105374
0.11061
0.11589
0.121184
0.126461
0.131687
8.08768e-05
0.000721055
0.00141096
0.00212755
0.0028713
0.00364767
0.0044593
0.00530943
0.00620224
0.0071427
0.00813658
0.00919044
0.0103115
0.0115072
0.0127851
0.0141519
0.0156117
0.0171637
0.0187985
0.0204936
0.0222139
0.0239216
0.0256005
0.027288
0.0290946
0.0311719
0.0335999
0.036306
0.0391416
0.0419663
0.0450018
0.0481254
0.051412
0.0550936
0.0591952
0.0635463
0.0680221
0.0725891
0.0772616
0.0820495
0.0869566
0.0919839
0.0971321
0.102396
0.107764
0.113214
0.118721
0.124254
0.129781
0.135268
5.54251e-05
0.000694544
0.00138523
0.00210296
0.00284831
0.00362693
0.00444161
0.00529579
0.00619388
0.00714113
0.00814364
0.00920833
0.0103427
0.0115549
0.0128526
0.0142429
0.0157299
0.0173125
0.01898
0.0207085
0.0224612
0.024201
0.0259148
0.0276424
0.0294917
0.0316073
0.0340662
0.036799
0.0396605
0.042513
0.0455818
0.0487504
0.0520963
0.0558541
0.0600476
0.0645014
0.0690873
0.0737725
0.0785727
0.0834993
0.0885568
0.0937471
0.0990716
0.104526
0.110097
0.115765
0.121503
0.127281
0.133065
0.138823
2.67397e-05
0.000662602
0.00135212
0.00206902
0.00281406
0.00359306
0.00440903
0.00526562
0.0061675
0.00712022
0.0081302
0.00920469
0.0103516
0.0115794
0.0128963
0.0143093
0.0158228
0.0174351
0.0191343
0.0208948
0.0226783
0.024448
0.0261937
0.0279576
0.0298459
0.0319975
0.034486
0.0372447
0.0401307
0.0430096
0.0461099
0.0493211
0.0527244
0.0565567
0.0608406
0.0653951
0.0700892
0.0748907
0.0798171
0.0848811
0.0900881
0.0954409
0.100942
0.106586
0.112363
0.118251
0.124225
0.130253
0.136304
0.142343
-5.19575e-06
0.000625451
0.00131205
0.00202636
0.00276932
0.00354701
0.00436265
0.00522015
0.00612444
0.00708136
0.00809766
0.00918094
0.0103395
0.0115821
0.0129171
0.014352
0.0158909
0.0175315
0.0192609
0.0210514
0.0228635
0.0246605
0.0264348
0.0282313
0.0301552
0.0323405
0.0348573
0.0376405
0.0405498
0.0434537
0.0465837
0.0498352
0.0532937
0.0571986
0.0615705
0.0662232
0.071023
0.0759384
0.0809886
0.0861879
0.0915428
0.0970568
0.102733
0.108568
0.114552
0.120663
0.126876
0.13316
0.139484
0.145814
-4.03301e-05
0.000583445
0.0012656
0.00197578
0.00271513
0.00349003
0.00430394
0.005161
0.00606645
0.0070264
0.00804791
0.00913893
0.0103081
0.0115644
0.0129166
0.014372
0.0159347
0.0176018
0.0193589
0.0211769
0.0230148
0.0248363
0.026636
0.0284615
0.0304179
0.0326348
0.0351784
0.0379845
0.0409156
0.0438432
0.047001
0.0502903
0.0538014
0.0577765
0.0622338
0.0669815
0.0718835
0.0769095
0.0820806
0.0874125
0.0929126
0.0985857
0.104436
0.110461
0.116652
0.122987
0.129443
0.135989
0.142593
0.149225
-7.85378e-05
0.000537071
0.00121352
0.00191828
0.00265278
0.00342366
0.00423464
0.00509012
0.0059956
0.00695749
0.00798315
0.00908082
0.0102594
0.0115282
0.0128961
0.0143705
0.015955
0.0176459
0.0194279
0.0212701
0.0231306
0.0249735
0.0267953
0.0286467
0.0306329
0.0328794
0.035448
0.0382751
0.0412261
0.0441757
0.0473594
0.0506839
0.0542449
0.0582873
0.0628264
0.0676651
0.0726653
0.077798
0.0830861
0.0885469
0.0941891
0.100018
0.106041
0.112255
0.118651
0.125212
0.131913
0.138725
0.145617
0.15256
-0.000119604
0.000486964
0.00115672
0.00185507
0.00258375
0.00334965
0.00415673
0.00500964
0.00591416
0.00687698
0.00790574
0.00900893
0.0101957
0.0114755
0.0128574
0.0143486
0.0159522
0.017664
0.0194672
0.0213298
0.0232093
0.02507
0.026911
0.0287855
0.0307992
0.0330734
0.035665
0.0385109
0.0414797
0.0444495
0.0476568
0.0510135
0.0546213
0.0587275
0.0633443
0.0682692
0.0733627
0.0785973
0.0839979
0.0895833
0.0953633
0.101345
0.107536
0.113936
0.120538
0.127324
0.134272
0.141354
0.148541
0.155805
-0.000163222
0.00043389
0.00109625
0.0017875
0.00250964
0.00326982
0.00407223
0.00492176
0.00582445
0.00678725
0.00781804
0.00892553
0.0101191
0.0114082
0.012802
0.0143074
0.0159272
0.017656
0.0194763
0.021355
0.0232494
0.0251247
0.0269819
0.028877
0.0309162
0.0332162
0.0358286
0.0386908
0.0416749
0.0446625
0.0478908
0.0512766
0.0549277
0.0590935
0.063783
0.0687887
0.0739699
0.0793009
0.0848086
0.0905133
0.0964261
0.102556
0.108911
0.115494
0.122298
0.129309
0.136504
0.14386
0.151348
0.158944
-0.000209007
0.000378684
0.00103322
0.00171691
0.00243206
0.00318599
0.00398312
0.00482859
0.00572866
0.00669052
0.00772224
0.00883271
0.0100314
0.011328
0.0127312
0.0142479
0.0158802
0.017622
0.0194548
0.0213451
0.0232501
0.0251364
0.0270071
0.0289207
0.0309835
0.0333072
0.0359382
0.0388141
0.0418107
0.0448134
0.0480594
0.0514708
0.055161
0.0593818
0.0641383
0.0692185
0.0744811
0.0799022
0.0855108
0.0913286
0.0973681
0.10364
0.110153
0.116914
0.123917
0.131151
0.138595
0.146228
0.154023
0.16196
-0.000256529
0.000322173
0.000968687
0.00164459
0.00235248
0.00309982
0.00389122
0.00473206
0.00562878
0.00658877
0.00762026
0.00873227
0.00993433
0.011236
0.012646
0.0141707
0.0158116
0.0175619
0.0194024
0.0212995
0.023211
0.0251049
0.0269865
0.0289166
0.0310008
0.0333462
0.0359932
0.03888
0.041886
0.0449005
0.0481606
0.0515935
0.0553185
0.0595887
0.0644058
0.0695534
0.0748903
0.0803945
0.0860969
0.0920207
0.0981796
0.104586
0.111251
0.118184
0.125382
0.132836
0.140528
0.14844
0.156547
0.164834
-0.000305326
0.000265123
0.000903593
0.00157166
0.00227221
0.00301276
0.0037981
0.0046338
0.00552648
0.00648364
0.00751365
0.00862561
0.00982904
0.0111334
0.0125472
0.0140762
0.0157214
0.0174755
0.0193187
0.0212178
0.0231316
0.0250299
0.0269202
0.0288647
0.0309684
0.0333329
0.0359933
0.0388881
0.0419002
0.0449227
0.0481925
0.0516424
0.0553971
0.0597107
0.0645813
0.0697887
0.075192
0.0807713
0.0865593
0.0925807
0.0988503