/*--------------------------------*- C++ -*----------------------------------*\
  =========                 |
  \\      /  F ield         | OpenFOAM: The Open Source CFD Toolbox
   \\    /   O peration     | Website:  https://openfoam.org
    \\  /    A nd           | Version:  9
     \\/     M anipulation  |
\*---------------------------------------------------------------------------*/
FoamFile
{
    format      ascii;
    class       volScalarField;
    location    "0.09";
    object      rAU;
}
// * * * * * * * * * * * * * * * * * * * * * * * * * * * * * * * * * * * * * //

dimensions      [-1 3 1 0 0 0 0];

internalField   nonuniform List<scalar> 
5000
(
1.26725e-05
1.48572e-05
1.50137e-05
1.51565e-05
1.52848e-05
1.53985e-05
1.5498e-05
1.55838e-05
1.56571e-05
1.57191e-05
1.57718e-05
1.58169e-05
1.58564e-05
1.5892e-05
1.59251e-05
1.59575e-05
1.59905e-05
1.60268e-05
1.60711e-05
1.61369e-05
1.62636e-05
1.65421e-05
1.70366e-05
1.73822e-05
1.69997e-05
1.65554e-05
1.63883e-05
1.63851e-05
1.64541e-05
1.65848e-05
1.68238e-05
1.69736e-05
1.69324e-05
1.6809e-05
1.67349e-05
1.67182e-05
1.67282e-05
1.67458e-05
1.67653e-05
1.67862e-05
1.68078e-05
1.68289e-05
1.68492e-05
1.68695e-05
1.68911e-05
1.69153e-05
1.69427e-05
1.69739e-05
1.70081e-05
1.70425e-05
1.56406e-05
1.91252e-05
1.94012e-05
1.96587e-05
1.98974e-05
2.01176e-05
2.03196e-05
2.05041e-05
2.06721e-05
2.08248e-05
2.09638e-05
2.10908e-05
2.12074e-05
2.13152e-05
2.14157e-05
2.15103e-05
2.16004e-05
2.16882e-05
2.17773e-05
2.18775e-05
2.20166e-05
2.2255e-05
2.26248e-05
2.28859e-05
2.26862e-05
2.24186e-05
2.23298e-05
2.23575e-05
2.24352e-05
2.25593e-05
2.2804e-05
2.29113e-05
2.28827e-05
2.27972e-05
2.27455e-05
2.27341e-05
2.27414e-05
2.27538e-05
2.27674e-05
2.27819e-05
2.27968e-05
2.28113e-05
2.28253e-05
2.28392e-05
2.28541e-05
2.28706e-05
2.28894e-05
2.29107e-05
2.2934e-05
2.29574e-05
1.56385e-05
1.91234e-05
1.93994e-05
1.9657e-05
1.98959e-05
2.01161e-05
2.03182e-05
2.05027e-05
2.06706e-05
2.08233e-05
2.09622e-05
2.10891e-05
2.12056e-05
2.13134e-05
2.14139e-05
2.15085e-05
2.15987e-05
2.16865e-05
2.17758e-05
2.18767e-05
2.20185e-05
2.22607e-05
2.26259e-05
2.28766e-05
2.26891e-05
2.24228e-05
2.23293e-05
2.23557e-05
2.24345e-05
2.25602e-05
2.28056e-05
2.29123e-05
2.28835e-05
2.27976e-05
2.27453e-05
2.27338e-05
2.27413e-05
2.27539e-05
2.27677e-05
2.27822e-05
2.27971e-05
2.28117e-05
2.28256e-05
2.28396e-05
2.28544e-05
2.28709e-05
2.28897e-05
2.2911e-05
2.29343e-05
2.29577e-05
1.56366e-05
1.91219e-05
1.9398e-05
1.96557e-05
1.98947e-05
2.0115e-05
2.03171e-05
2.05017e-05
2.06696e-05
2.08222e-05
2.09611e-05
2.10878e-05
2.12042e-05
2.13117e-05
2.14121e-05
2.15065e-05
2.15966e-05
2.16843e-05
2.17737e-05
2.18757e-05
2.20208e-05
2.22672e-05
2.26276e-05
2.28671e-05
2.26909e-05
2.24272e-05
2.23289e-05
2.23539e-05
2.24336e-05
2.2561e-05
2.28074e-05
2.29135e-05
2.28845e-05
2.27982e-05
2.27452e-05
2.27336e-05
2.27413e-05
2.27541e-05
2.27679e-05
2.27825e-05
2.27975e-05
2.28121e-05
2.2826e-05
2.28399e-05
2.28548e-05
2.28713e-05
2.28901e-05
2.29114e-05
2.29347e-05
2.2958e-05
1.56353e-05
1.91208e-05
1.9397e-05
1.96548e-05
1.98939e-05
2.01143e-05
2.03165e-05
2.05011e-05
2.0669e-05
2.08215e-05
2.09602e-05
2.10868e-05
2.12029e-05
2.13102e-05
2.14103e-05
2.15045e-05
2.15943e-05
2.16818e-05
2.17713e-05
2.18745e-05
2.20231e-05
2.22737e-05
2.26293e-05
2.28585e-05
2.26923e-05
2.24314e-05
2.23286e-05
2.23518e-05
2.24326e-05
2.25618e-05
2.28093e-05
2.2915e-05
2.28857e-05
2.27989e-05
2.27452e-05
2.27334e-05
2.27412e-05
2.27542e-05
2.27682e-05
2.27829e-05
2.27979e-05
2.28125e-05
2.28265e-05
2.28404e-05
2.28552e-05
2.28717e-05
2.28905e-05
2.29118e-05
2.29351e-05
2.29584e-05
1.56343e-05
1.91199e-05
1.93962e-05
1.96542e-05
1.98934e-05
2.01139e-05
2.03162e-05
2.05008e-05
2.06687e-05
2.08212e-05
2.09597e-05
2.1086e-05
2.12019e-05
2.13089e-05
2.14086e-05
2.15024e-05
2.1592e-05
2.16792e-05
2.17688e-05
2.18732e-05
2.20255e-05
2.22798e-05
2.26306e-05
2.28506e-05
2.26935e-05
2.24356e-05
2.23285e-05
2.23497e-05
2.24314e-05
2.25624e-05
2.28113e-05
2.29167e-05
2.28871e-05
2.27997e-05
2.27452e-05
2.27332e-05
2.27412e-05
2.27544e-05
2.27686e-05
2.27833e-05
2.27984e-05
2.2813e-05
2.28269e-05
2.28408e-05
2.28556e-05
2.28722e-05
2.2891e-05
2.29123e-05
2.29356e-05
2.29589e-05
1.56336e-05
1.91194e-05
1.93958e-05
1.96538e-05
1.98931e-05
2.01138e-05
2.03162e-05
2.05009e-05
2.06688e-05
2.08211e-05
2.09595e-05
2.10855e-05
2.1201e-05
2.13077e-05
2.1407e-05
2.15005e-05
2.15896e-05
2.16766e-05
2.17663e-05
2.18721e-05
2.20279e-05
2.22855e-05
2.26315e-05
2.28433e-05
2.26943e-05
2.24397e-05
2.23286e-05
2.23477e-05
2.24302e-05
2.25631e-05
2.28133e-05
2.29185e-05
2.28887e-05
2.28006e-05
2.27453e-05
2.2733e-05
2.27412e-05
2.27546e-05
2.27689e-05
2.27838e-05
2.27989e-05
2.28135e-05
2.28275e-05
2.28414e-05
2.28562e-05
2.28727e-05
2.28916e-05
2.29129e-05
2.29362e-05
2.29594e-05
1.56334e-05
1.91192e-05
1.93957e-05
1.96538e-05
1.98932e-05
2.0114e-05
2.03164e-05
2.05011e-05
2.0669e-05
2.08213e-05
2.09595e-05
2.10852e-05
2.12004e-05
2.13066e-05
2.14055e-05
2.14986e-05
2.15873e-05
2.1674e-05
2.17638e-05
2.18711e-05
2.20305e-05
2.22909e-05
2.26321e-05
2.28365e-05
2.2695e-05
2.24436e-05
2.23287e-05
2.23458e-05
2.2429e-05
2.25639e-05
2.28154e-05
2.29205e-05
2.28903e-05
2.28015e-05
2.27454e-05
2.27329e-05
2.27412e-05
2.27549e-05
2.27693e-05
2.27843e-05
2.27994e-05
2.28141e-05
2.28281e-05
2.28419e-05
2.28567e-05
2.28733e-05
2.28922e-05
2.29135e-05
2.29368e-05
2.29601e-05
1.56335e-05
1.91194e-05
1.93959e-05
1.96541e-05
1.98936e-05
2.01144e-05
2.0317e-05
2.05017e-05
2.06695e-05
2.08217e-05
2.09596e-05
2.10851e-05
2.11999e-05
2.13057e-05
2.14041e-05
2.14967e-05
2.1585e-05
2.16714e-05
2.17614e-05
2.18703e-05
2.20331e-05
2.2296e-05
2.26325e-05
2.28302e-05
2.26954e-05
2.24473e-05
2.23289e-05
2.23439e-05
2.24279e-05
2.25647e-05
2.28176e-05
2.29226e-05
2.28921e-05
2.28026e-05
2.27457e-05
2.27329e-05
2.27413e-05
2.27551e-05
2.27697e-05
2.27848e-05
2.28e-05
2.28147e-05
2.28287e-05
2.28426e-05
2.28574e-05
2.2874e-05
2.28928e-05
2.29142e-05
2.29375e-05
2.29608e-05
1.56339e-05
1.91198e-05
1.93963e-05
1.96546e-05
1.98942e-05
2.01151e-05
2.03177e-05
2.05024e-05
2.06702e-05
2.08222e-05
2.096e-05
2.10851e-05
2.11995e-05
2.13049e-05
2.14028e-05
2.14949e-05
2.15827e-05
2.16688e-05
2.17591e-05
2.18696e-05
2.20357e-05
2.23009e-05
2.26327e-05
2.28242e-05
2.26956e-05
2.24509e-05
2.23292e-05
2.2342e-05
2.24268e-05
2.25656e-05
2.28199e-05
2.29248e-05
2.2894e-05
2.28037e-05
2.27459e-05
2.27328e-05
2.27414e-05
2.27555e-05
2.27702e-05
2.27854e-05
2.28007e-05
2.28154e-05
2.28294e-05
2.28433e-05
2.28581e-05
2.28747e-05
2.28936e-05
2.2915e-05
2.29383e-05
2.29615e-05
1.56346e-05
1.91204e-05
1.9397e-05
1.96554e-05
1.98951e-05
2.01161e-05
2.03187e-05
2.05034e-05
2.06711e-05
2.0823e-05
2.09605e-05
2.10854e-05
2.11993e-05
2.13042e-05
2.14016e-05
2.14932e-05
2.15805e-05
2.16663e-05
2.17568e-05
2.18689e-05
2.20384e-05
2.23054e-05
2.26325e-05
2.28185e-05
2.26956e-05
2.24543e-05
2.23295e-05
2.23403e-05
2.24257e-05
2.25665e-05
2.28223e-05
2.29271e-05
2.28959e-05
2.2805e-05
2.27463e-05
2.27329e-05
2.27416e-05
2.27559e-05
2.27708e-05
2.2786e-05
2.28014e-05
2.28161e-05
2.28302e-05
2.28441e-05
2.28589e-05
2.28755e-05
2.28944e-05
2.29158e-05
2.29392e-05
2.29624e-05
1.56355e-05
1.91213e-05
1.9398e-05
1.96564e-05
1.98961e-05
2.01172e-05
2.03199e-05
2.05046e-05
2.06723e-05
2.0824e-05
2.09613e-05
2.10857e-05
2.11993e-05
2.13037e-05
2.14006e-05
2.14916e-05
2.15784e-05
2.16638e-05
2.17547e-05
2.18685e-05
2.20411e-05
2.23097e-05
2.26323e-05
2.28131e-05
2.26954e-05
2.24575e-05
2.233e-05
2.23386e-05
2.24247e-05
2.25675e-05
2.28247e-05
2.29296e-05
2.2898e-05
2.28062e-05
2.27466e-05
2.27329e-05
2.27418e-05
2.27563e-05
2.27713e-05
2.27867e-05
2.28021e-05
2.2817e-05
2.2831e-05
2.28449e-05
2.28597e-05
2.28763e-05
2.28953e-05
2.29168e-05
2.29402e-05
2.29634e-05
1.56367e-05
1.91224e-05
1.93991e-05
1.96576e-05
1.98974e-05
2.01185e-05
2.03212e-05
2.0506e-05
2.06736e-05
2.08252e-05
2.09622e-05
2.10863e-05
2.11994e-05
2.13033e-05
2.13996e-05
2.149e-05
2.15763e-05
2.16615e-05
2.17527e-05
2.18682e-05
2.20438e-05
2.23137e-05
2.26319e-05
2.28079e-05
2.26951e-05
2.24606e-05
2.23305e-05
2.2337e-05
2.24238e-05
2.25687e-05
2.28273e-05
2.29322e-05
2.29001e-05
2.28076e-05
2.27471e-05
2.27331e-05
2.27421e-05
2.27568e-05
2.2772e-05
2.27875e-05
2.2803e-05
2.28178e-05
2.28319e-05
2.28458e-05
2.28606e-05
2.28773e-05
2.28963e-05
2.29178e-05
2.29412e-05
2.29644e-05
1.56382e-05
1.91238e-05
1.94005e-05
1.9659e-05
1.98989e-05
2.01201e-05
2.03228e-05
2.05076e-05
2.06751e-05
2.08265e-05
2.09632e-05
2.1087e-05
2.11997e-05
2.1303e-05
2.13988e-05
2.14886e-05
2.15744e-05
2.16592e-05
2.17508e-05
2.1868e-05
2.20466e-05
2.23176e-05
2.26313e-05
2.2803e-05
2.26945e-05
2.24634e-05
2.23311e-05
2.23356e-05
2.2423e-05
2.25699e-05
2.283e-05
2.29348e-05
2.29024e-05
2.2809e-05
2.27476e-05
2.27332e-05
2.27424e-05
2.27573e-05
2.27727e-05
2.27883e-05
2.28039e-05
2.28188e-05
2.28328e-05
2.28468e-05
2.28616e-05
2.28783e-05
2.28973e-05
2.29189e-05
2.29424e-05
2.29656e-05
1.564e-05
1.91254e-05
1.94021e-05
1.96607e-05
1.99006e-05
2.01219e-05
2.03246e-05
2.05093e-05
2.06768e-05
2.0828e-05
2.09645e-05
2.10879e-05
2.12001e-05
2.13029e-05
2.1398e-05
2.14873e-05
2.15725e-05
2.1657e-05
2.1749e-05
2.1868e-05
2.20493e-05
2.23212e-05
2.26307e-05
2.27982e-05
2.26938e-05
2.24661e-05
2.23317e-05
2.23342e-05
2.24224e-05
2.25713e-05
2.28329e-05
2.29376e-05
2.29047e-05
2.28104e-05
2.27481e-05
2.27335e-05
2.27428e-05
2.27579e-05
2.27735e-05
2.27892e-05
2.28048e-05
2.28198e-05
2.28339e-05
2.28478e-05
2.28627e-05
2.28794e-05
2.28985e-05
2.29201e-05
2.29436e-05
2.29668e-05
1.56419e-05
1.91271e-05
1.9404e-05
1.96626e-05
1.99025e-05
2.01238e-05
2.03266e-05
2.05113e-05
2.06786e-05
2.08297e-05
2.09659e-05
2.10889e-05
2.12006e-05
2.13028e-05
2.13974e-05
2.1486e-05
2.15706e-05
2.16549e-05
2.17473e-05
2.18681e-05
2.2052e-05
2.23245e-05
2.26299e-05
2.27936e-05
2.2693e-05
2.24686e-05
2.23324e-05
2.2333e-05
2.24218e-05
2.25728e-05
2.28358e-05
2.29406e-05
2.29071e-05
2.2812e-05
2.27487e-05
2.27337e-05
2.27432e-05
2.27585e-05
2.27743e-05
2.27901e-05
2.28058e-05
2.28209e-05
2.2835e-05
2.2849e-05
2.28639e-05
2.28806e-05
2.28997e-05
2.29214e-05
2.29449e-05
2.29682e-05
1.56442e-05
1.91291e-05
1.9406e-05
1.96646e-05
1.99046e-05
2.01259e-05
2.03287e-05
2.05134e-05
2.06806e-05
2.08315e-05
2.09675e-05
2.10901e-05
2.12013e-05
2.1303e-05
2.13969e-05
2.14848e-05
2.15689e-05
2.16528e-05
2.17457e-05
2.18682e-05
2.20547e-05
2.23277e-05
2.26291e-05
2.27892e-05
2.2692e-05
2.24708e-05
2.2333e-05
2.23318e-05
2.24213e-05
2.25744e-05
2.28389e-05
2.29436e-05
2.29096e-05
2.28136e-05
2.27494e-05
2.27341e-05
2.27436e-05
2.27593e-05
2.27752e-05
2.27911e-05
2.28069e-05
2.2822e-05
2.28362e-05
2.28502e-05
2.28651e-05
2.28819e-05
2.29011e-05
2.29228e-05
2.29464e-05
2.29696e-05
1.56466e-05
1.91313e-05
1.94082e-05
1.96669e-05
1.99069e-05
2.01283e-05
2.0331e-05
2.05157e-05
2.06828e-05
2.08335e-05
2.09692e-05
2.10914e-05
2.12021e-05
2.13032e-05
2.13964e-05
2.14837e-05
2.15672e-05
2.16509e-05
2.17442e-05
2.18685e-05
2.20573e-05
2.23306e-05
2.26281e-05
2.27849e-05
2.26909e-05
2.24729e-05
2.23337e-05
2.23307e-05
2.24209e-05
2.25762e-05
2.28421e-05
2.29468e-05
2.29121e-05
2.28152e-05
2.27501e-05
2.27344e-05
2.27442e-05
2.276e-05
2.27761e-05
2.27922e-05
2.28081e-05
2.28232e-05
2.28374e-05
2.28515e-05
2.28664e-05
2.28832e-05
2.29025e-05
2.29243e-05
2.29479e-05
2.29712e-05
1.56492e-05
1.91337e-05
1.94106e-05
1.96693e-05
1.99094e-05
2.01307e-05
2.03335e-05
2.05181e-05
2.06852e-05
2.08357e-05
2.09711e-05
2.10929e-05
2.12031e-05
2.13035e-05
2.13961e-05
2.14827e-05
2.15656e-05
2.1649e-05
2.17429e-05
2.18688e-05
2.20599e-05
2.23333e-05
2.26269e-05
2.27806e-05
2.26896e-05
2.24748e-05
2.23344e-05
2.23298e-05
2.24206e-05
2.2578e-05
2.28455e-05
2.29501e-05
2.29148e-05
2.28169e-05
2.27508e-05
2.27348e-05
2.27447e-05
2.27609e-05
2.27772e-05
2.27934e-05
2.28094e-05
2.28246e-05
2.28388e-05
2.28529e-05
2.28678e-05
2.28847e-05
2.2904e-05
2.29259e-05
2.29496e-05
2.29729e-05
1.5652e-05
1.91362e-05
1.94132e-05
1.96719e-05
1.9912e-05
2.01334e-05
2.03362e-05
2.05208e-05
2.06877e-05
2.08381e-05
2.09731e-05
2.10945e-05
2.12042e-05
2.1304e-05
2.13959e-05
2.14818e-05
2.15641e-05
2.16472e-05
2.17416e-05
2.18692e-05
2.20624e-05
2.23357e-05
2.26256e-05
2.27764e-05
2.26882e-05
2.24765e-05
2.23351e-05
2.23289e-05
2.24205e-05
2.25801e-05
2.2849e-05
2.29536e-05
2.29176e-05
2.28187e-05
2.27516e-05
2.27353e-05
2.27454e-05
2.27618e-05
2.27783e-05
2.27946e-05
2.28107e-05
2.2826e-05
2.28402e-05
2.28543e-05
2.28694e-05
2.28863e-05
2.29057e-05
2.29276e-05
2.29514e-05
2.29747e-05
1.5655e-05
1.91389e-05
1.94159e-05
1.96746e-05
1.99148e-05
2.01362e-05
2.0339e-05
2.05235e-05
2.06904e-05
2.08405e-05
2.09753e-05
2.10963e-05
2.12054e-05
2.13046e-05
2.13959e-05
2.1481e-05
2.15627e-05
2.16456e-05
2.17405e-05
2.18697e-05
2.20648e-05
2.23379e-05
2.26242e-05
2.27721e-05
2.26865e-05
2.24779e-05
2.23358e-05
2.23282e-05
2.24205e-05
2.25822e-05
2.28526e-05
2.29572e-05
2.29204e-05
2.28205e-05
2.27525e-05
2.27358e-05
2.27461e-05
2.27627e-05
2.27794e-05
2.27959e-05
2.28121e-05
2.28274e-05
2.28418e-05
2.28559e-05
2.2871e-05
2.28879e-05
2.29074e-05
2.29295e-05
2.29533e-05
2.29767e-05
1.56582e-05
1.91417e-05
1.94187e-05
1.96775e-05
1.99177e-05
2.01391e-05
2.03419e-05
2.05264e-05
2.06932e-05
2.08431e-05
2.09776e-05
2.10982e-05
2.12068e-05
2.13054e-05
2.13959e-05
2.14804e-05
2.15614e-05
2.1644e-05
2.17395e-05
2.18703e-05
2.20672e-05
2.23399e-05
2.26227e-05
2.27679e-05
2.26846e-05
2.24791e-05
2.23365e-05
2.23276e-05
2.24207e-05
2.25846e-05
2.28564e-05
2.29609e-05
2.29233e-05
2.28223e-05
2.27534e-05
2.27364e-05
2.27468e-05
2.27638e-05
2.27807e-05
2.27973e-05
2.28136e-05
2.2829e-05
2.28434e-05
2.28576e-05
2.28727e-05
2.28897e-05
2.29093e-05
2.29314e-05
2.29554e-05
2.29788e-05
1.56615e-05
1.91446e-05
1.94217e-05
1.96805e-05
1.99207e-05
2.01422e-05
2.0345e-05
2.05295e-05
2.06961e-05
2.08459e-05
2.09801e-05
2.11003e-05
2.12083e-05
2.13062e-05
2.1396e-05
2.14798e-05
2.15602e-05
2.16426e-05
2.17386e-05
2.1871e-05
2.20695e-05
2.23418e-05
2.2621e-05
2.27635e-05
2.26825e-05
2.24799e-05
2.23371e-05
2.23272e-05
2.24211e-05
2.25871e-05
2.28603e-05
2.29647e-05
2.29263e-05
2.28242e-05
2.27543e-05
2.27371e-05
2.27477e-05
2.27649e-05
2.2782e-05
2.27988e-05
2.28152e-05
2.28307e-05
2.28451e-05
2.28593e-05
2.28745e-05
2.28916e-05
2.29113e-05
2.29335e-05
2.29575e-05
2.2981e-05
1.56649e-05
1.91477e-05
1.94248e-05
1.96837e-05
1.99239e-05
2.01454e-05
2.03482e-05
2.05326e-05
2.06992e-05
2.08488e-05
2.09826e-05
2.11024e-05
2.12099e-05
2.13072e-05
2.13963e-05
2.14793e-05
2.15591e-05
2.16412e-05
2.17379e-05
2.18717e-05
2.20718e-05
2.23435e-05
2.26192e-05
2.27591e-05
2.26801e-05
2.24805e-05
2.23376e-05
2.23269e-05
2.24216e-05
2.25899e-05
2.28645e-05
2.29687e-05
2.29293e-05
2.28261e-05
2.27553e-05
2.27378e-05
2.27486e-05
2.27661e-05
2.27834e-05
2.28003e-05
2.28169e-05
2.28324e-05
2.28469e-05
2.28612e-05
2.28764e-05
2.28936e-05
2.29134e-05
2.29357e-05
2.29599e-05
2.29834e-05
1.56686e-05
1.91509e-05
1.94281e-05
1.9687e-05
1.99272e-05
2.01487e-05
2.03515e-05
2.05359e-05
2.07023e-05
2.08517e-05
2.09853e-05
2.11047e-05
2.12117e-05
2.13083e-05
2.13966e-05
2.14789e-05
2.15581e-05
2.164e-05
2.17372e-05
2.18726e-05
2.20741e-05
2.23451e-05
2.26174e-05
2.27547e-05
2.26774e-05
2.24808e-05
2.23381e-05
2.23267e-05
2.24224e-05
2.25929e-05
2.28688e-05
2.29728e-05
2.29324e-05
2.28281e-05
2.27563e-05
2.27385e-05
2.27495e-05
2.27673e-05
2.27849e-05
2.2802e-05
2.28186e-05
2.28343e-05
2.28488e-05
2.28631e-05
2.28785e-05
2.28957e-05
2.29156e-05
2.29381e-05
2.29623e-05
2.29859e-05
1.56723e-05
1.91543e-05
1.94315e-05
1.96904e-05
1.99307e-05
2.01522e-05
2.0355e-05
2.05393e-05
2.07056e-05
2.08548e-05
2.09881e-05
2.11071e-05
2.12135e-05
2.13095e-05
2.13971e-05
2.14786e-05
2.15571e-05
2.16389e-05
2.17367e-05
2.18735e-05
2.20763e-05
2.23467e-05
2.26155e-05
2.27502e-05
2.26745e-05
2.24808e-05
2.23385e-05
2.23266e-05
2.24234e-05
2.25961e-05
2.28734e-05
2.2977e-05
2.29355e-05
2.283e-05
2.27574e-05
2.27394e-05
2.27505e-05
2.27686e-05
2.27864e-05
2.28037e-05
2.28205e-05
2.28362e-05
2.28508e-05
2.28652e-05
2.28806e-05
2.2898e-05
2.2918e-05
2.29406e-05
2.29649e-05
2.29886e-05
1.56763e-05
1.91578e-05
1.9435e-05
1.9694e-05
1.99343e-05
2.01558e-05
2.03586e-05
2.05428e-05
2.07091e-05
2.08581e-05
2.09911e-05
2.11096e-05
2.12155e-05
2.13108e-05
2.13976e-05
2.14783e-05
2.15562e-05
2.16378e-05
2.17362e-05
2.18745e-05
2.20786e-05
2.23481e-05
2.26135e-05
2.27455e-05
2.26713e-05
2.24804e-05
2.23389e-05
2.23267e-05
2.24247e-05
2.25996e-05
2.28782e-05
2.29814e-05
2.29387e-05
2.2832e-05
2.27585e-05
2.27402e-05
2.27516e-05
2.277e-05
2.27881e-05
2.28055e-05
2.28224e-05
2.28382e-05
2.28529e-05
2.28674e-05
2.28829e-05
2.29004e-05
2.29205e-05
2.29432e-05
2.29677e-05
2.29915e-05
1.56805e-05
1.91615e-05
1.94387e-05
1.96977e-05
1.9938e-05
2.01595e-05
2.03623e-05
2.05465e-05
2.07126e-05
2.08614e-05
2.09941e-05
2.11122e-05
2.12175e-05
2.13121e-05
2.13982e-05
2.14781e-05
2.15554e-05
2.16368e-05
2.17358e-05
2.18754e-05
2.20807e-05
2.23493e-05
2.26114e-05
2.27408e-05
2.26679e-05
2.24798e-05
2.23391e-05
2.23269e-05
2.24262e-05
2.26034e-05
2.28832e-05
2.29859e-05
2.29419e-05
2.2834e-05
2.27596e-05
2.27411e-05
2.27528e-05
2.27715e-05
2.27898e-05
2.28074e-05
2.28244e-05
2.28403e-05
2.28551e-05
2.28697e-05
2.28852e-05
2.29029e-05
2.29231e-05
2.2946e-05
2.29707e-05
2.29946e-05
1.56848e-05
1.91653e-05
1.94426e-05
1.97016e-05
1.99419e-05
2.01634e-05
2.03662e-05
2.05503e-05
2.07163e-05
2.08649e-05
2.09973e-05
2.11149e-05
2.12196e-05
2.13136e-05
2.13988e-05
2.1478e-05
2.15547e-05
2.16358e-05
2.17354e-05
2.18764e-05
2.20827e-05
2.23504e-05
2.26091e-05
2.27358e-05
2.26641e-05
2.24788e-05
2.23392e-05
2.23272e-05
2.24279e-05
2.26075e-05
2.28885e-05
2.29906e-05
2.29452e-05
2.2836e-05
2.27608e-05
2.27421e-05
2.2754e-05
2.2773e-05
2.27916e-05
2.28093e-05
2.28265e-05
2.28426e-05
2.28574e-05
2.28721e-05
2.28877e-05
2.29055e-05
2.29259e-05
2.2949e-05
2.29738e-05
2.29978e-05
1.56892e-05
1.91693e-05
1.94466e-05
1.97056e-05
1.99459e-05
2.01674e-05
2.03701e-05
2.05542e-05
2.07201e-05
2.08685e-05
2.10005e-05
2.11177e-05
2.12219e-05
2.13151e-05
2.13996e-05
2.14779e-05
2.1554e-05
2.16349e-05
2.17351e-05
2.18773e-05
2.20846e-05
2.23512e-05
2.26065e-05
2.27306e-05
2.266e-05
2.24775e-05
2.23392e-05
2.23277e-05
2.24299e-05
2.26119e-05
2.2894e-05
2.29954e-05
2.29485e-05
2.28381e-05
2.2762e-05
2.27431e-05
2.27553e-05
2.27747e-05
2.27934e-05
2.28114e-05
2.28287e-05
2.28449e-05
2.28599e-05
2.28746e-05
2.28904e-05
2.29082e-05
2.29288e-05
2.29521e-05
2.29771e-05
2.30012e-05
1.56938e-05
1.91734e-05
1.94507e-05
1.97097e-05
1.99501e-05
2.01716e-05
2.03743e-05
2.05583e-05
2.0724e-05
2.08722e-05
2.10039e-05
2.11207e-05
2.12243e-05
2.13167e-05
2.14004e-05
2.14779e-05
2.15533e-05
2.16341e-05
2.17348e-05
2.18782e-05
2.20864e-05
2.23517e-05
2.26036e-05
2.27251e-05
2.26554e-05
2.24759e-05
2.2339e-05
2.23282e-05
2.24322e-05
2.26166e-05
2.28997e-05
2.30003e-05
2.29519e-05
2.28401e-05
2.27632e-05
2.27442e-05
2.27566e-05
2.27763e-05
2.27954e-05
2.28135e-05
2.2831e-05
2.28473e-05
2.28624e-05
2.28772e-05
2.28931e-05
2.29112e-05
2.29319e-05
2.29554e-05
2.29805e-05
2.30048e-05
1.56986e-05
1.91776e-05
1.94549e-05
1.9714e-05
1.99544e-05
2.01759e-05
2.03785e-05
2.05625e-05
2.07281e-05
2.0876e-05
2.10074e-05
2.11237e-05
2.12267e-05
2.13185e-05
2.14014e-05
2.14781e-05
2.15528e-05
2.16334e-05
2.17346e-05
2.18792e-05
2.2088e-05
2.23519e-05
2.26003e-05
2.27191e-05
2.26505e-05
2.24738e-05
2.23388e-05
2.23289e-05
2.24347e-05
2.26217e-05
2.29058e-05
2.30053e-05
2.29553e-05
2.28422e-05
2.27644e-05
2.27453e-05
2.2758e-05
2.27781e-05
2.27974e-05
2.28158e-05
2.28334e-05
2.28498e-05
2.2865e-05
2.288e-05
2.2896e-05
2.29142e-05
2.29351e-05
2.29588e-05
2.29842e-05
2.30086e-05
1.57035e-05
1.91819e-05
1.94593e-05
1.97184e-05
1.99588e-05
2.01803e-05
2.03829e-05
2.05668e-05
2.07323e-05
2.088e-05
2.10111e-05
2.1127e-05
2.12294e-05
2.13204e-05
2.14024e-05
2.14783e-05
2.15524e-05
2.16328e-05
2.17345e-05
2.18802e-05
2.20895e-05
2.23519e-05
2.25967e-05
2.27128e-05
2.2645e-05
2.24714e-05
2.23384e-05
2.23297e-05
2.24376e-05
2.2627e-05
2.2912e-05
2.30105e-05
2.29587e-05
2.28442e-05
2.27657e-05
2.27464e-05
2.27595e-05
2.27799e-05
2.27995e-05
2.28181e-05
2.28359e-05
2.28524e-05
2.28678e-05
2.28828e-05
2.2899e-05
2.29174e-05
2.29385e-05
2.29624e-05
2.29881e-05
2.30127e-05
1.57086e-05
1.91865e-05
1.94639e-05
1.9723e-05
1.99634e-05
2.01849e-05
2.03875e-05
2.05713e-05
2.07366e-05
2.08842e-05
2.10149e-05
2.11303e-05
2.12321e-05
2.13225e-05
2.14037e-05
2.14787e-05
2.15522e-05
2.16324e-05
2.17346e-05
2.18813e-05
2.2091e-05
2.23517e-05
2.25928e-05
2.2706e-05
2.26391e-05
2.24687e-05
2.2338e-05
2.23307e-05
2.24407e-05
2.26327e-05
2.29185e-05
2.30158e-05
2.29621e-05
2.28463e-05
2.2767e-05
2.27476e-05
2.2761e-05
2.27818e-05
2.28017e-05
2.28205e-05
2.28385e-05
2.28552e-05
2.28706e-05
2.28858e-05
2.29021e-05
2.29207e-05
2.29421e-05
2.29663e-05
2.29921e-05
2.30169e-05
1.57138e-05
1.91911e-05
1.94686e-05
1.97277e-05
1.99681e-05
2.01896e-05
2.03922e-05
2.05759e-05
2.07411e-05
2.08885e-05
2.10189e-05
2.11339e-05
2.12351e-05
2.13247e-05
2.14051e-05
2.14793e-05
2.15521e-05
2.16322e-05
2.1735e-05
2.18826e-05
2.20925e-05
2.23514e-05
2.25885e-05
2.26988e-05
2.26327e-05
2.24655e-05
2.23374e-05
2.23319e-05
2.24442e-05
2.26387e-05
2.29253e-05
2.30211e-05
2.29655e-05
2.28483e-05
2.27683e-05
2.27488e-05
2.27626e-05
2.27838e-05
2.2804e-05
2.2823e-05
2.28411e-05
2.2858e-05
2.28735e-05
2.28889e-05
2.29054e-05
2.29242e-05
2.29458e-05
2.29703e-05
2.29964e-05
2.30214e-05
1.57193e-05
1.9196e-05
1.94735e-05
1.97326e-05
1.9973e-05
2.01945e-05
2.03971e-05
2.05807e-05
2.07458e-05
2.0893e-05
2.10231e-05
2.11376e-05
2.12383e-05
2.13271e-05
2.14067e-05
2.14801e-05
2.15523e-05
2.16322e-05
2.17355e-05
2.1884e-05
2.20941e-05
2.23509e-05
2.2584e-05
2.26912e-05
2.26258e-05
2.24619e-05
2.23367e-05
2.23332e-05
2.24479e-05
2.2645e-05
2.29322e-05
2.30266e-05
2.29689e-05
2.28503e-05
2.27696e-05
2.27501e-05
2.27642e-05
2.27858e-05
2.28063e-05
2.28256e-05
2.28439e-05
2.28609e-05
2.28766e-05
2.28921e-05
2.29088e-05
2.29278e-05
2.29497e-05
2.29744e-05
2.30008e-05
2.30261e-05
1.5725e-05
1.92011e-05
1.94786e-05
1.97378e-05
1.99782e-05
2.01997e-05
2.04022e-05
2.05858e-05
2.07507e-05
2.08976e-05
2.10275e-05
2.11415e-05
2.12416e-05
2.13298e-05
2.14085e-05
2.14811e-05
2.15527e-05
2.16325e-05
2.17363e-05
2.18856e-05
2.20957e-05
2.23503e-05
2.25792e-05
2.26833e-05
2.26185e-05
2.24581e-05
2.2336e-05
2.23347e-05
2.2452e-05
2.26517e-05
2.29394e-05
2.30322e-05
2.29723e-05
2.28522e-05
2.27709e-05
2.27514e-05
2.27659e-05
2.27879e-05
2.28087e-05
2.28282e-05
2.28467e-05
2.28639e-05
2.28798e-05
2.28954e-05
2.29123e-05
2.29316e-05
2.29538e-05
2.29788e-05
2.30055e-05
2.3031e-05
1.5731e-05
1.92063e-05
1.94839e-05
1.97431e-05
1.99835e-05
2.0205e-05
2.04075e-05
2.0591e-05
2.07558e-05
2.09025e-05
2.1032e-05
2.11456e-05
2.12451e-05
2.13326e-05
2.14105e-05
2.14823e-05
2.15534e-05
2.16331e-05
2.17374e-05
2.18875e-05
2.20974e-05
2.23495e-05
2.25742e-05
2.2675e-05
2.26108e-05
2.24538e-05
2.23351e-05
2.23363e-05
2.24563e-05
2.26586e-05
2.29468e-05
2.30378e-05
2.29756e-05
2.28542e-05
2.27722e-05
2.27527e-05
2.27676e-05
2.27901e-05
2.28112e-05
2.28309e-05
2.28497e-05
2.2867e-05
2.2883e-05
2.28989e-05
2.2916e-05
2.29355e-05
2.2958e-05
2.29834e-05
2.30104e-05
2.30362e-05
1.57372e-05
1.92118e-05
1.94895e-05
1.97487e-05
1.99891e-05
2.02105e-05
2.04129e-05
2.05964e-05
2.07611e-05
2.09076e-05
2.10368e-05
2.115e-05
2.12489e-05
2.13356e-05
2.14127e-05
2.14838e-05
2.15542e-05
2.16339e-05
2.17387e-05
2.18895e-05
2.20991e-05
2.23486e-05
2.25689e-05
2.26664e-05
2.26028e-05
2.24493e-05
2.23342e-05
2.23381e-05
2.24608e-05
2.26657e-05
2.29543e-05
2.30434e-05
2.29789e-05
2.2856e-05
2.27735e-05
2.27541e-05
2.27694e-05
2.27923e-05
2.28138e-05
2.28337e-05
2.28527e-05
2.28702e-05
2.28864e-05
2.29024e-05
2.29198e-05
2.29396e-05
2.29624e-05
2.29882e-05
2.30156e-05
2.30416e-05
1.57437e-05
1.92176e-05
1.94952e-05
1.97544e-05
1.99948e-05
2.02163e-05
2.04186e-05
2.0602e-05
2.07666e-05
2.09128e-05
2.10417e-05
2.11544e-05
2.12528e-05
2.13388e-05
2.14151e-05
2.14854e-05
2.15553e-05
2.16349e-05
2.17403e-05
2.18916e-05
2.21007e-05
2.23475e-05
2.25632e-05
2.26574e-05
2.25944e-05
2.24445e-05
2.23331e-05
2.234e-05
2.24656e-05
2.2673e-05
2.29619e-05
2.30491e-05
2.29822e-05
2.28578e-05
2.27747e-05
2.27555e-05
2.27713e-05
2.27946e-05
2.28164e-05
2.28366e-05
2.28558e-05
2.28735e-05
2.28899e-05
2.29061e-05
2.29237e-05
2.29438e-05
2.2967e-05
2.29932e-05
2.30209e-05
2.30473e-05
1.57504e-05
1.92235e-05
1.95011e-05
1.97604e-05
2.00008e-05
2.02222e-05
2.04245e-05
2.06078e-05
2.07722e-05
2.09183e-05
2.10468e-05
2.11591e-05
2.12568e-05
2.13421e-05
2.14177e-05
2.14872e-05
2.15566e-05
2.16362e-05
2.1742e-05
2.18938e-05
2.21023e-05
2.23461e-05
2.25573e-05
2.26481e-05
2.25857e-05
2.24395e-05
2.23319e-05
2.23419e-05
2.24705e-05
2.26805e-05
2.29696e-05
2.30548e-05
2.29853e-05
2.28596e-05
2.2776e-05
2.2757e-05
2.27732e-05
2.27969e-05
2.2819e-05
2.28395e-05
2.28589e-05
2.28768e-05
2.28934e-05
2.29099e-05
2.29278e-05
2.29482e-05
2.29718e-05
2.29984e-05
2.30265e-05
2.30532e-05
1.57573e-05
1.92296e-05
1.95073e-05
1.97665e-05
2.00069e-05
2.02283e-05
2.04305e-05
2.06137e-05
2.0778e-05
2.09238e-05
2.1052e-05
2.11639e-05
2.1261e-05
2.13456e-05
2.14204e-05
2.14892e-05
2.15582e-05
2.16377e-05
2.1744e-05
2.18962e-05
2.21037e-05
2.23445e-05
2.2551e-05
2.26385e-05
2.25767e-05
2.24342e-05
2.23306e-05
2.23438e-05
2.24755e-05
2.2688e-05
2.29774e-05
2.30604e-05
2.29884e-05
2.28612e-05
2.27772e-05
2.27584e-05
2.27751e-05
2.27993e-05
2.28218e-05
2.28425e-05
2.28622e-05
2.28803e-05
2.28971e-05
2.29138e-05
2.2932e-05
2.29528e-05
2.29768e-05
2.30037e-05
2.30323e-05
2.30594e-05
1.57644e-05
1.92358e-05
1.95135e-05
1.97728e-05
2.00132e-05
2.02345e-05
2.04367e-05
2.06198e-05
2.07839e-05
2.09295e-05
2.10574e-05
2.11688e-05
2.12654e-05
2.13493e-05
2.14233e-05
2.14914e-05
2.15599e-05
2.16394e-05
2.17461e-05
2.18986e-05
2.21051e-05
2.23425e-05
2.25443e-05
2.26286e-05
2.25674e-05
2.24286e-05
2.23292e-05
2.23458e-05
2.24805e-05
2.26956e-05
2.29851e-05
2.30659e-05
2.29914e-05
2.28628e-05
2.27784e-05
2.27599e-05
2.27771e-05
2.28017e-05
2.28245e-05
2.28456e-05
2.28655e-05
2.28838e-05
2.29008e-05
2.29178e-05
2.29363e-05
2.29575e-05
2.29819e-05
2.30094e-05
2.30384e-05
2.30659e-05
1.57717e-05
1.92422e-05
1.952e-05
1.97792e-05
2.00196e-05
2.02409e-05
2.04431e-05
2.0626e-05
2.079e-05
2.09354e-05
2.10629e-05
2.11739e-05
2.12699e-05
2.13531e-05
2.14264e-05
2.14938e-05
2.15619e-05
2.16414e-05
2.17485e-05
2.19011e-05
2.21064e-05
2.23403e-05
2.25373e-05
2.26183e-05
2.25578e-05
2.24228e-05
2.23276e-05
2.23477e-05
2.24857e-05
2.27032e-05
2.29927e-05
2.30713e-05
2.29942e-05
2.28642e-05
2.27796e-05
2.27614e-05
2.27791e-05
2.28042e-05
2.28273e-05
2.28487e-05
2.28688e-05
2.28874e-05
2.29047e-05
2.29219e-05
2.29407e-05
2.29623e-05
2.29872e-05
2.30152e-05
2.30447e-05
2.30726e-05
1.57791e-05
1.92488e-05
1.95266e-05
1.97858e-05
2.00261e-05
2.02474e-05
2.04495e-05
2.06324e-05
2.07962e-05
2.09413e-05
2.10686e-05
2.11791e-05
2.12745e-05
2.1357e-05
2.14296e-05
2.14964e-05
2.15641e-05
2.16436e-05
2.17511e-05
2.19037e-05
2.21076e-05
2.23379e-05
2.253e-05
2.26078e-05
2.2548e-05
2.24168e-05
2.2326e-05
2.23497e-05
2.24909e-05
2.27109e-05
2.30003e-05
2.30766e-05
2.29969e-05
2.28656e-05
2.27807e-05
2.27629e-05
2.27811e-05
2.28067e-05
2.28302e-05
2.28518e-05
2.28722e-05
2.28911e-05
2.29086e-05
2.29261e-05
2.29453e-05
2.29673e-05
2.29927e-05
2.30212e-05
2.30513e-05
2.30796e-05
1.57867e-05
1.92555e-05
1.95333e-05
1.97925e-05
2.00328e-05
2.02541e-05
2.04561e-05
2.06388e-05
2.08025e-05
2.09474e-05
2.10743e-05
2.11844e-05
2.12792e-05
2.13611e-05
2.1433e-05
2.14992e-05
2.15665e-05
2.16462e-05
2.17539e-05
2.19065e-05
2.21088e-05
2.23353e-05
2.25225e-05
2.2597e-05
2.25379e-05
2.24106e-05
2.23242e-05
2.23516e-05
2.24961e-05
2.27185e-05
2.30078e-05
2.30817e-05
2.29994e-05
2.28668e-05
2.27818e-05
2.27644e-05
2.27832e-05
2.28092e-05
2.28331e-05
2.2855e-05
2.28757e-05
2.28948e-05
2.29126e-05
2.29304e-05
2.295e-05
2.29724e-05
2.29983e-05
2.30274e-05
2.30581e-05
2.30869e-05
1.57946e-05
1.92624e-05
1.95402e-05
1.97994e-05
2.00397e-05
2.02609e-05
2.04628e-05
2.06454e-05
2.08089e-05
2.09536e-05
2.10801e-05
2.11898e-05
2.12841e-05
2.13653e-05
2.14365e-05
2.15021e-05
2.15692e-05
2.1649e-05
2.17571e-05
2.19095e-05
2.21101e-05
2.23327e-05
2.25148e-05
2.25861e-05
2.25277e-05
2.24042e-05
2.23223e-05
2.23536e-05
2.25014e-05
2.27262e-05
2.30152e-05
2.30866e-05
2.30016e-05
2.28678e-05
2.27829e-05
2.27659e-05
2.27852e-05
2.28118e-05
2.2836e-05
2.28582e-05
2.28792e-05
2.28986e-05
2.29166e-05
2.29348e-05
2.29547e-05
2.29777e-05
2.30042e-05
2.30339e-05
2.30651e-05
2.30944e-05
1.58026e-05
1.92695e-05
1.95473e-05
1.98065e-05
2.00467e-05
2.02678e-05
2.04697e-05
2.06522e-05
2.08154e-05
2.09599e-05
2.10861e-05
2.11953e-05
2.12891e-05
2.13697e-05
2.14402e-05
2.15053e-05
2.15722e-05
2.16521e-05
2.17605e-05
2.19127e-05
2.21115e-05
2.23301e-05
2.25071e-05
2.25751e-05
2.25173e-05
2.23977e-05
2.23204e-05
2.23556e-05
2.25067e-05
2.27338e-05
2.30225e-05
2.30913e-05
2.30037e-05
2.28687e-05
2.27838e-05
2.27674e-05
2.27874e-05
2.28143e-05
2.28389e-05
2.28615e-05
2.28827e-05
2.29024e-05
2.29207e-05
2.29392e-05
2.29596e-05
2.29831e-05
2.30102e-05
2.30405e-05
2.30724e-05
2.31023e-05
1.58109e-05
1.92767e-05
1.95545e-05
1.98137e-05
2.00539e-05
2.02749e-05
2.04767e-05
2.0659e-05
2.08221e-05
2.09663e-05
2.10922e-05
2.12009e-05
2.12941e-05
2.13741e-05
2.14441e-05
2.15087e-05
2.15754e-05
2.16554e-05
2.17642e-05
2.19162e-05
2.21131e-05
2.23275e-05
2.24994e-05
2.2564e-05
2.25068e-05
2.23911e-05
2.23184e-05
2.23576e-05
2.25121e-05
2.27414e-05
2.30296e-05
2.30957e-05
2.30055e-05
2.28695e-05
2.27848e-05
2.2769e-05
2.27895e-05
2.28169e-05
2.28419e-05
2.28648e-05
2.28863e-05
2.29062e-05
2.29249e-05
2.29438e-05
2.29646e-05
2.29886e-05
2.30163e-05
2.30473e-05
2.30799e-05
2.31104e-05
1.58194e-05
1.92842e-05
1.9562e-05
1.98211e-05
2.00613e-05
2.02822e-05
2.04838e-05
2.0666e-05
2.08289e-05
2.09728e-05
2.10983e-05
2.12066e-05
2.12993e-05