/*--------------------------------*- C++ -*----------------------------------*\
  =========                 |
  \\      /  F ield         | OpenFOAM: The Open Source CFD Toolbox
   \\    /   O peration     | Website:  https://openfoam.org
    \\  /    A nd           | Version:  9
     \\/     M anipulation  |
\*---------------------------------------------------------------------------*/
FoamFile
{
    format      ascii;
    class       surfaceVectorField;
    location    "0.09";
    object      Uf;
}
// * * * * * * * * * * * * * * * * * * * * * * * * * * * * * * * * * * * * * //

dimensions      [0 1 -1 0 0 0 0];

internalField   nonuniform List<vector> 
9850
(
(0.000111082 0 0.00596691)
(0.000272709 0 0.00344173)
(0.00012648 0 0.011021)
(0.000282163 0 0.00853182)
(0.0001429 0 0.0163618)
(0.000306593 0 0.0135399)
(0.00016469 0 0.0225627)
(0.000330927 0 0.0192237)
(0.000195104 0 0.029887)
(0.000364656 0 0.0259401)
(0.000234572 0 0.0384518)
(0.000411648 0 0.0338656)
(0.00028195 0 0.0482676)
(0.000471116 0 0.0430665)
(0.000334474 0 0.0592309)
(0.000540404 0 0.0535006)
(0.000387621 0 0.0711215)
(0.000614514 0 0.0650052)
(0.000435454 0 0.0836208)
(0.000685908 0 0.0773038)
(0.000471491 0 0.0963496)
(0.000745153 0 0.0900352)
(0.000489746 0 0.108913)
(0.000782163 0 0.102799)
(0.000485466 0 0.12094)
(0.000787524 0 0.115202)
(0.00045509 0 0.132098)
(0.000753241 0 0.12689)
(0.000395199 0 0.142084)
(0.00067239 0 0.137552)
(0.00030031 0 0.150577)
(0.000537437 0 0.146894)
(0.00015931 0 0.157125)
(0.000337544 0 0.154576)
(-4.83838e-05 0 0.16083)
(5.66895e-05 0 0.160046)
(-0.000343356 0 0.159275)
(-0.000325886 0 0.162046)
(-0.00067937 0 0.145343)
(-0.000785552 0 0.156869)
(-0.000697877 0 0.10186)
(-0.00105289 0 0.133445)
(0.000200798 0 0.0100958)
(-0.000260014 0 0.0677633)
(0.000690982 0 -0.0900991)
(0.00134838 0 -0.0515673)
(-0.000899233 0 -0.080701)
(-0.000246475 0 -0.129022)
(3.39084e-05 0 0.0334715)
(-0.00131502 0 -0.0289982)
(0.000763301 0 0.124958)
(0.000614673 0 0.0973229)
(0.00033918 0 0.157419)
(0.000850675 0 0.153237)
(-0.000187715 0 0.156056)
(7.44324e-05 0 0.162223)
(-0.000502066 0 0.136225)
(-0.000579176 0 0.15)
(-0.000527963 0 0.101496)
(-0.00083984 0 0.121893)
(-0.000267159 0 0.0573339)
(-0.000629515 0 0.0763827)
(-6.16774e-05 0 0.0431418)
(-0.000287612 0 0.0381132)
(0.000133593 0 0.0642091)
(-1.67068e-05 0 0.0480075)
(0.000188688 0 0.0902523)
(0.000215539 0 0.0802033)
(8.48921e-05 0 0.102539)
(0.00020347 0 0.100191)
(-1.49942e-05 0 0.103582)
(3.66414e-05 0 0.104868)
(-6.58148e-05 0 0.0999565)
(-8.90026e-05 0 0.102268)
(-8.30187e-05 0 0.0950164)
(-0.000147357 0 0.0975827)
(-8.76069e-05 0 0.0896319)
(-0.000169746 0 0.0923658)
(-8.67766e-05 0 0.0839868)
(-0.000175589 0 0.086805)
(-8.26458e-05 0 0.0783169)
(-0.000172932 0 0.0810713)
(-7.74014e-05 0 0.0728241)
(-0.000165866 0 0.0754624)
(-7.31776e-05 0 0.0674568)
(-0.000158026 0 0.0700836)
(-7.07347e-05 0 0.0619334)
(-0.000151754 0 0.0647268)
(-6.9309e-05 0 0.0559216)
(-0.000147162 0 0.059036)
(-6.72978e-05 0 0.0491646)
(-0.000142452 0 0.0527018)
(-6.28084e-05 0 0.0415169)
(-0.000134754 0 0.0455198)
(-5.41562e-05 0 0.0330208)
(-0.000120967 0 0.0374031)
(-4.12179e-05 0 0.0241204)
(-9.95961e-05 0 0.0285236)
(-7.3853e-05 0 0.0195999)
(0.000445865 0 0.00589185)
(0.000617486 0 0.00339079)
(0.000468738 0 0.0109451)
(0.000623068 0 0.00846066)
(0.000493373 0 0.0162869)
(0.000651196 0 0.0134668)
(0.000528057 0 0.0224678)
(0.00068097 0 0.0191257)
(0.000578406 0 0.0297619)
(0.000724783 0 0.0258044)
(0.000645328 0 0.0382966)
(0.00078733 0 0.0336937)
(0.000726991 0 0.0480874)
(0.000867193 0 0.0428665)
(0.00081874 0 0.0590349)
(0.000960657 0 0.0532863)
(0.0009126 0 0.0709228)
(0.00106076 0 0.0647962)
(0.000997447 0 0.0834343)
(0.00115672 0 0.0771237)
(0.00106004 0 0.0961893)
(0.00123452 0 0.0899085)
(0.00108664 0 0.10879)
(0.00127839 0 0.102748)
(0.00106441 0 0.120861)
(0.00127268 0 0.115243)
(0.000981968 0 0.132068)
(0.00120317 0 0.127035)
(0.000828418 0 0.142108)
(0.00105725 0 0.137809)
(0.0005909 0 0.150666)
(0.000822493 0 0.147273)
(0.000251912 0 0.157298)
(0.000484503 0 0.15509)
(-0.000207036 0 0.1611)
(2.69872e-05 0 0.16071)
(-0.000767428 0 0.15957)
(-0.000556671 0 0.16282)
(-0.00121359 0 0.145285)
(-0.00119217 0 0.157456)
(-0.000860486 0 0.100869)
(-0.00145824 0 0.133002)
(0.000826013 0 0.00921907)
(-0.000144113 0 0.0657464)
(0.00128298 0 -0.0885012)
(0.00227719 0 -0.0520883)
(-0.00167618 0 -0.0795794)
(-0.000253532 0 -0.125806)
(-0.000541574 0 0.0320312)
(-0.00223838 0 -0.0301738)
(0.00101456 0 0.124129)
(0.000538225 0 0.0957857)
(0.000615982 0 0.157605)
(0.0010506 0 0.153612)
(-0.00035452 0 0.156324)
(-8.53257e-08 0 0.163095)
(-0.00100109 0 0.136263)
(-0.000960298 0 0.150554)
(-0.00105123 0 0.101348)
(-0.00134864 0 0.121934)
(-0.000584957 0 0.0572212)
(-0.00100303 0 0.0760719)
(-0.000290297 0 0.0430349)
(-0.00051225 0 0.0379168)
(8.59245e-05 0 0.0639905)
(-0.000154159 0 0.0477566)
(0.000297019 0 0.0900816)
(0.00022671 0 0.0800625)
(0.000162181 0 0.10246)
(0.000253902 0 0.100281)
(-4.85919e-05 0 0.103511)
(1.27679e-05 0 0.105008)
(-0.000181571 0 0.0998587)
(-0.000189672 0 0.102356)
(-0.000240523 0 0.0948973)
(-0.000296054 0 0.097622)
(-0.000260994 0 0.0895025)
(-0.000342201 0 0.0923795)
(-0.000263567 0 0.0838523)
(-0.000357185 0 0.0868068)
(-0.000257034 0 0.0781787)
(-0.000355568 0 0.081067)
(-0.000246655 0 0.0726825)
(-0.000345286 0 0.0754555)
(-0.000236419 0 0.0673124)
(-0.00033241 0 0.0700768)
(-0.000228128 0 0.0617864)
(-0.000320624 0 0.0647213)
(-0.000220779 0 0.0557719)
(-0.000310237 0 0.0590311)
(-0.000211106 0 0.0490116)
(-0.000298521 0 0.0526954)
(-0.000194724 0 0.0413598)
(-0.0002808 0 0.0455089)
(-0.000168134 0 0.0328597)
(-0.000251942 0 0.0373853)
(-0.00013228 0 0.0239575)
(-0.000209592 0 0.0284997)
(-0.000160235 0 0.0195754)
(0.000798711 0 0.00584182)
(0.000944828 0 0.00336687)
(0.000814069 0 0.010873)
(0.000944627 0 0.00841287)
(0.000837255 0 0.0161897)
(0.000966229 0 0.013398)
(0.000875038 0 0.0223302)
(0.000996074 0 0.0190188)
(0.000931364 0 0.0295811)
(0.00104375 0 0.0256525)
(0.00100658 0 0.0380802)
(0.00111219 0 0.0335004)
(0.00109821 0 0.0478498)
(0.00119932 0 0.042642)
(0.00120053 0 0.0587974)
(0.00130072 0 0.0530473)
(0.00130386 0 0.070712)
(0.0014083 0 0.0645661)
(0.00139454 0 0.0832796)
(0.00150952 0 0.0769312)
(0.00145597 0 0.0961189)
(0.00158789 0 0.0897842)
(0.00147031 0 0.108827)
(0.00162458 0 0.10272)
(0.00142028 0 0.121023)
(0.00160037 0 0.115335)
(0.00129016 0 0.132366)
(0.00149749 0 0.127263)
(0.0010655 0 0.142552)
(0.00130021 0 0.138184)
(0.000731905 0 0.151267)
(0.000994029 0 0.147804)
(0.000274197 0 0.15807)
(0.000563972 0 0.155786)
(-0.000315746 0 0.162024)
(-4.14429e-06 0 0.161564)
(-0.000988034 0 0.160446)
(-0.000703883 0 0.163748)
(-0.00145344 0 0.145439)
(-0.00142367 0 0.158068)
(-0.000911617 0 0.0994341)
(-0.00166647 0 0.132322)
(0.0011191 0 0.00756362)
(-0.000120953 0 0.0633178)
(0.00163152 0 -0.0871944)
(0.00266103 0 -0.0526724)
(-0.00174599 0 -0.0783325)
(-0.00011759 0 -0.122135)
(-0.000934636 0 0.0306402)
(-0.00258664 0 -0.0310145)
(0.00078413 0 0.123556)
(0.000325683 0 0.094088)
(0.000472957 0 0.158394)
(0.000913402 0 0.153905)
(-0.000604848 0 0.15721)
(-0.000229768 0 0.164062)
(-0.00136967 0 0.136647)
(-0.00132466 0 0.151208)
(-0.00142098 0 0.101204)
(-0.00177417 0 0.121976)
(-0.000841965 0 0.0568828)
(-0.00132644 0 0.0756858)
(-0.000451914 0 0.0427514)
(-0.000712069 0 0.0376567)
(-1.02041e-05 0 0.0637872)
(-0.000293545 0 0.0474621)
(0.000250639 0 0.0900925)
(0.000159136 0 0.0798886)
(0.000116131 0 0.10263)
(0.000199929 0 0.10037)
(-0.000135136 0 0.103676)
(-8.08753e-05 0 0.105176)
(-0.000314186 0 0.0999634)
(-0.000325742 0 0.102476)
(-0.000405156 0 0.0949569)
(-0.000464349 0 0.0976827)
(-0.000442704 0 0.0895388)
(-0.000529789 0 0.0924045)
(-0.000451687 0 0.0838769)
(-0.000553921 0 0.0868128)
(-0.000445259 0 0.0781979)
(-0.000554492 0 0.0810628)
(-0.000431791 0 0.0727006)
(-0.000542226 0 0.0754466)
(-0.000416964 0 0.0673319)
(-0.000525242 0 0.070067)
(-0.000403085 0 0.0618075)
(-0.000508235 0 0.0647121)
(-0.000388757 0 0.0557925)
(-0.000491538 0 0.0590216)
(-0.00036964 0 0.0490284)
(-0.000471687 0 0.0526826)
(-0.000339954 0 0.0413695)
(-0.000442784 0 0.0454891)
(-0.000295351 0 0.0328612)
(-0.000398405 0 0.0373556)
(-0.000237888 0 0.0239547)
(-0.000335502 0 0.0284614)
(-0.000262992 0 0.0195359)
(0.00109346 0 0.00581777)
(0.00120477 0 0.0033607)
(0.0011019 0 0.0108203)
(0.00120221 0 0.0083866)
(0.0011231 0 0.0160955)
(0.00121806 0 0.0133352)
(0.00116254 0 0.0221864)
(0.0012481 0 0.0189073)
(0.00122257 0 0.0293891)
(0.00129833 0 0.0254907)
(0.0013026 0 0.0378494)
(0.00137016 0 0.0332946)
(0.00139946 0 0.0475967)
(0.00146122 0 0.0424046)
(0.00150652 0 0.0585456)
(0.00156657 0 0.0527972)
(0.00161286 0 0.0704919)
(0.00167731 0 0.0643293)
(0.00170317 0 0.0831256)
(0.00177971 0 0.0767395)
(0.00175868 0 0.0960654)
(0.00185571 0 0.0896718)
(0.00175907 0 0.108905)
(0.00188441 0 0.102719)
(0.00168451 0 0.121254)
(0.00184432 0 0.115472)
(0.00151701 0 0.132768)
(0.00171537 0 0.127556)
(0.00124053 0 0.143136)
(0.00147993 0 0.138646)
(0.000840111 0 0.152043)
(0.00112237 0 0.148442)
(0.000301691 0 0.159038)
(0.000627561 0 0.156603)
(-0.000377783 0 0.163128)
(-1.71236e-05 0 0.162548)
(-0.00113013 0 0.161415)
(-0.000794201 0 0.164786)
(-0.00161379 0 0.145518)
(-0.0015546 0 0.158705)
(-0.00098154 0 0.097854)
(-0.00176003 0 0.131529)
(0.00112196 0 0.00588308)
(-0.000170284 0 0.0608023)
(0.0016362 0 -0.0858989)
(0.00261676 0 -0.0532587)
(-0.0016011 0 -0.0769338)
(-8.18236e-05 0 -0.118616)
(-0.00109591 0 0.0294674)
(-0.00265002 0 -0.0315379)
(0.000522425 0 0.122959)
(0.00011901 0 0.0924894)
(0.00022411 0 0.159209)
(0.000671809 0 0.154186)
(-0.000927244 0 0.158225)
(-0.000508885 0 0.165096)
(-0.00175823 0 0.137128)
(-0.00168757 0 0.151919)
(-0.00180478 0 0.101071)
(-0.00218587 0 0.122014)
(-0.00112727 0 0.0564799)
(-0.00167562 0 0.0752341)
(-0.000606744 0 0.0423998)
(-0.000942431 0 0.0373096)
(-0.000111214 0 0.0635571)
(-0.00044197 0 0.0471317)
(0.000153169 0 0.0901162)
(5.37701e-05 0 0.0797123)
(3.94377e-06 0 0.102845)
(8.57428e-05 0 0.10047)
(-0.00027484 0 0.103902)
(-0.000225581 0 0.105362)
(-0.000481482 0 0.100127)
(-0.000497916 0 0.102614)
(-0.000593675 0 0.0950671)
(-0.000659153 0 0.0977575)
(-0.0006444 0 0.0896178)
(-0.000739471 0 0.0924384)
(-0.000659154 0 0.0839387)
(-0.000771437 0 0.0868227)
(-0.000652991 0 0.0782512)
(-0.000774072 0 0.0810587)
(-0.000636538 0 0.0727517)
(-0.00075986 0 0.0754357)
(-0.00061704 0 0.0673842)
(-0.000738638 0 0.0700541)
(-0.000597237 0 0.0618615)
(-0.000716018 0 0.0646989)
(-0.000575299 0 0.0558456)
(-0.00069232 0 0.059007)
(-0.000546024 0 0.0490763)
(-0.000663446 0 0.0526632)
(-0.000502695 0 0.041408)
(-0.000622637 0 0.0454602)
(-0.000440436 0 0.0328889)
(-0.000562681 0 0.0373141)
(-0.00036182 0 0.0239762)
(-0.000480083 0 0.0284089)
(-0.000385187 0 0.0194812)
(0.00131461 0 0.00580876)
(0.00139449 0 0.00336086)
(0.00132093 0 0.0107814)
(0.00139324 0 0.00836694)
(0.00134157 0 0.0160107)
(0.00140664 0 0.0132739)
(0.001382 0 0.0220499)
(0.00143685 0 0.0187929)
(0.00144397 0 0.0292044)
(0.00148809 0 0.0253236)
(0.00152646 0 0.0376263)
(0.00156116 0 0.0330826)
(0.0016259 0 0.0473512)
(0.0016536 0 0.042161)
(0.00173519 0 0.0583008)
(0.0017602 0 0.0525419)
(0.00184268 0 0.0702777)
(0.0018716 0 0.0640899)
(0.00193198 0 0.0829768)
(0.00197344 0 0.0765499)
(0.00198288 0 0.0960173)
(0.00204662 0 0.0895688)
(0.00197327 0 0.108989)
(0.00206887 0 0.102738)
(0.00188134 0 0.121496)
(0.00201701 0 0.115641)
(0.00168726 0 0.133184)
(0.00186919 0 0.127897)
(0.00137358 0 0.143738)
(0.0016062 0 0.13917)
(0.00092462 0 0.152834)
(0.00121155 0 0.149157)
(0.000327413 0 0.160008)
(0.000670563 0 0.15751)
(-0.000414338 0 0.164202)
(-2.68431e-05 0 0.163622)
(-0.00121033 0 0.162284)
(-0.000852241 0 0.165885)
(-0.00167931 0 0.14543)
(-0.00161876 0 0.159322)
(-0.000991775 0 0.0962055)
(-0.00176068 0 0.130667)
(0.00102589 0 0.00435335)
(-0.00019726 0 0.0583894)
(0.0014288 0 -0.0845167)
(0.00239313 0 -0.053718)
(-0.00154548 0 -0.075392)
(-0.000177434 0 -0.115383)
(-0.00124448 0 0.0285156)
(-0.00269198 0 -0.0318498)
(0.000255381 0 0.122306)
(-0.000132962 0 0.0910079)
(-3.95341e-05 0 0.159883)
(0.00038336 0 0.154464)
(-0.0012422 0 0.159156)
(-0.000794213 0 0.166175)
(-0.00212773 0 0.137551)
(-0.00203345 0 0.152677)
(-0.00218084 0 0.100894)
(-0.00257402 0 0.122057)
(-0.00144074 0 0.05605)
(-0.00203508 0 0.0747406)
(-0.000810422 0 0.0420286)
(-0.00121207 0 0.0368893)
(-0.000257389 0 0.0632965)
(-0.00063155 0 0.0467629)
(8.84377e-06 0 0.0900908)
(-9.9231e-05 0 0.0795348)
(-0.000148539 0 0.103011)
(-7.59669e-05 0 0.100575)
(-0.000449969 0 0.104093)
(-0.000408448 0 0.105563)
(-0.000679111 0 0.100261)
(-0.000701657 0 0.102766)
(-0.000808014 0 0.0951454)
(-0.000881105 0 0.0978435)
(-0.000869103 0 0.0896608)
(-0.000973517 0 0.0924792)
(-0.000888498 0 0.0839608)
(-0.001012 0 0.0868357)
(-0.000882392 0 0.0782617)
(-0.00101627 0 0.0810547)
(-0.000862841 0 0.0727572)
(-0.000999965 0 0.0754227)
(-0.000838238 0 0.0673886)
(-0.000974213 0 0.0700378)
(-0.000811756 0 0.061865)
(-0.000945386 0 0.0646813)
(-0.00078132 0 0.0558456)
(-0.000913836 0 0.0589868)
(-0.000741123 0 0.0490685)
(-0.000875003 0 0.0526364)
(-0.000683813 0 0.0413881)
(-0.000821528 0 0.045422)
(-0.000604219 0 0.0328561)
(-0.000745741 0 0.037261)
(-0.000505253 0 0.0239358)
(-0.000643903 0 0.0283429)
(-0.000527275 0 0.0194116)
(0.00147347 0 0.00579978)
(0.00152339 0 0.00335945)
(0.00148013 0 0.0107427)
(0.00152501 0 0.0083462)
(0.0015009 0 0.0159249)
(0.00153813 0 0.0132123)
(0.00154141 0 0.0219112)
(0.00156847 0 0.0186784)
(0.00160351 0 0.029017)
(0.00161972 0 0.0251562)
(0.00168613 0 0.0374009)
(0.00169257 0 0.0328703)
(0.00178551 0 0.0471042)
(0.00178459 0 0.0419175)
(0.00189431 0 0.0580559)
(0.00189042 0 0.0522878)
(0.00200056 0 0.0700656)
(0.0020005 0 0.0638533)
(0.00208728 0 0.0828329)
(0.00210013 0 0.0763657)
(0.00213339 0 0.0959782)
(0.00216966 0 0.0894754)
(0.00211554 0 0.109087)
(0.00218592 0 0.102772)
(0.00201044 0 0.121758)
(0.00212454 0 0.115834)
(0.00179677 0 0.133626)
(0.00196237 0 0.128271)
(0.00145597 0 0.144369)
(0.001679 0 0.13974)
(0.000972213 0 0.153657)
(0.00125724 0 0.149928)
(0.000334627 0 0.161006)
(0.000683187 0 0.158479)
(-0.000444926 0 0.165282)
(-5.00168e-05 0 0.164751)
(-0.00125531 0 0.163111)
(-0.00090486 0 0.167004)
(-0.00169058 0 0.14527)
(-0.0016631 0 0.159895)
(-0.000969105 0 0.0945959)
(-0.00173554 0 0.129762)
(0.000918236 0 0.00299263)
(-0.00021079 0 0.0561323)
(0.00117457 0 -0.0831485)
(0.00213139 0 -0.0540102)
(-0.00159169 0 -0.0738728)
(-0.00033173 0 -0.112377)
(-0.00144828 0 0.0277073)
(-0.0027799 0 -0.0319983)
(-4.59629e-05 0 0.121678)
(-0.000449296 0 0.0896227)
(-0.000330981 0 0.160518)
(4.61607e-05 0 0.154732)
(-0.00155729 0 0.160062)
(-0.00110324 0 0.167276)
(-0.00247774 0 0.13795)
(-0.00238136 0 0.153465)
(-0.00253965 0 0.100685)
(-0.00294876 0 0.122108)
(-0.00176448 0 0.0555796)
(-0.0023933 0 0.0742237)
(-0.0010587 0 0.0416193)
(-0.00150786 0 0.0364187)
(-0.000457572 0 0.0630086)
(-0.000866078 0 0.0463621)
(-0.000172647 0 0.0900403)
(-0.000304321 0 0.0793448)
(-0.000339817 0 0.103154)
(-0.000284493 0 0.100686)
(-0.0006588 0 0.104263)
(-0.000628491 0 0.105775)
(-0.000906079 0 0.100374)
(-0.000937498 0 0.102931)
(-0.00104886 0 0.0952017)
(-0.00113164 0 0.0979387)
(-0.0011185 0 0.0896787)
(-0.00123374 0 0.0925257)
(-0.00114158 0 0.0839546)
(-0.00127736 0 0.0868512)
(-0.00113516 0 0.0782411)
(-0.00128261 0 0.0810505)
(-0.00111228 0 0.0727293)
(-0.0012639 0 0.0754075)
(-0.00108213 0 0.0673573)
(-0.00123328 0 0.0700177)
(-0.00104824 0 0.0618306)
(-0.00119766 0 0.0646588)
(-0.00100841 0 0.0558056)
(-0.00115745 0 0.0589603)
(-0.000956412 0 0.0490184)
(-0.00110777 0 0.0526017)
(-0.00088449 0 0.0413237)
(-0.0010408 0 0.045374)
(-0.000787306 0 0.0327767)
(-0.000948575 0 0.0371961)
(-0.000668046 0 0.0238475)
(-0.000827207 0 0.0282633)
(-0.000688567 0 0.0193271)
(0.00157501 0 0.00578722)
(0.00159434 0 0.00335424)
(0.00158323 0 0.0107006)
(0.00159948 0 0.0083206)
(0.00160488 0 0.0158369)
(0.00161377 0 0.013148)
(0.00164546 0 0.0217708)
(0.00164491 0 0.0185636)
(0.00170713 0 0.0288279)
(0.00169629 0 0.0249899)
(0.00178899 0 0.0371739)
(0.00176877 0 0.0326599)
(0.00188721 0 0.0468566)
(0.00186005 0 0.0416768)
(0.00199434 0 0.0578121)
(0.00196475 0 0.0520375)
(0.0020982 0 0.0698573)
(0.00207321 0 0.0636221)
(0.0021815 0 0.082697)
(0.00217053 0 0.0761889)
(0.00222263 0 0.0959526)
(0.00223671 0 0.0893922)
(0.00219741 0 0.109207)
(0.00224796 0 0.102821)
(0.00208158 0 0.122049)
(0.00217907 0 0.116047)
(0.00185278 0 0.134108)
(0.00200591 0 0.128672)
(0.00149169 0 0.145051)
(0.00170715 0 0.140343)
(0.000982493 0 0.154539)
(0.00126494 0 0.150739)
(0.00031609 0 0.162065)
(0.000665817 0 0.159491)
(-0.000488919 0 0.166408)
(-9.41673e-05 0 0.165917)
(-0.00130452 0 0.163944)
(-0.000970278 0 0.168129)
(-0.00170823 0 0.145094)
(-0.00172067 0 0.160426)
(-0.000968228 0 0.0930549)
(-0.00173527 0 0.128834)
(0.000794034 0 0.00177097)
(-0.000250173 0 0.0540248)
(0.000921412 0 -0.0818304)
(0.00185272 0 -0.0541553)
(-0.00169222 0 -0.0724076)
(-0.000518609 0 -0.109536)
(-0.00169584 0 0.0270251)
(-0.00291087 0 -0.0319946)
(-0.000410155 0 0.121118)
(-0.000807168 0 0.0883527)
(-0.000676547 0 0.161176)
(-0.000327572 0 0.154983)
(-0.00190248 0 0.160999)
(-0.00144859 0 0.168377)
(-0.00283889 0 0.138369)
(-0.00275338 0 0.154266)
(-0.00290146 0 0.100468)
(-0.00333314 0 0.122159)
(-0.0020982 0 0.0550695)
(-0.00276027 0 0.0736882)
(-0.00133686 0 0.0411683)
(-0.00182656 0 0.0359111)
(-0.000701623 0 0.0627031)
(-0.00113879 0 0.0459385)
(-0.000407017 0 0.0899924)
(-0.000553363 0 0.0791483)
(-0.000574832 0 0.103308)
(-0.000534808 0 0.100798)
(-0.000904427 0 0.104445)
(-0.000885931 0 0.105995)
(-0.00116473 0 0.100498)
(-0.00120707 0 0.103105)
(-0.00131809 0 0.0952658)
(-0.00141254 0 0.0980409)
(-0.00139429 0 0.0897015)
(-0.00152183 0 0.0925765)
(-0.00141991 0 0.0839506)
(-0.00156902 0 0.0868683)
(-0.00141254 0 0.0782206)
(-0.00157432 0 0.0810457)
(-0.00138587 0 0.0726997)
(-0.00155265 0 0.0753898)
(-0.00134969 0 0.0673231)
(-0.00151666 0 0.0699937)
(-0.00130774 0 0.0617923)
(-0.00147365 0 0.0646309)
(-0.00125773 0 0.0557602)
(-0.00142403 0 0.058927)
(-0.00119312 0 0.0489612)
(-0.00136268 0 0.0525587)
(-0.00110582 0 0.0412503)
(-0.00128142 0 0.0453158)
(-0.000990367 0 0.0326866)
(-0.00117204 0 0.0371192)
(-0.000850126 0 0.0237468)
(-0.00103047 0 0.0281698)
(-0.000868979 0 0.019227)
(0.0016187 0 0.00576904)
(0.00160945 0 0.00334418)
(0.00162942 0 0.0106529)
(0.00161819 0 0.00828723)
(0.00165303 0 0.0157458)
(0.0016346 0 0.013078)
(0.00169452 0 0.0216297)
(0.00166743 0 0.0184462)
(0.00175631 0 0.0286394)
(0.00171961 0 0.0248233)
(0.00183781 0 0.0369483)
(0.0017922 0 0.0324504)
(0.00193534 0 0.0466111)
(0.00188329 0 0.0414378)
(0.0020414 0 0.0575715)
(0.00198758 0 0.0517898)
(0.00214368 0 0.0696538)
(0.00209534 0 0.0633943)
(0.00222467 0 0.0825684)
(0.00219156 0 0.0760169)
(0.00226235 0 0.0959382)
(0.00225592 0 0.0893159)
(0.00223192 0 0.109343)
(0.00226415 0 0.102879)
(0.00210828 0 0.122364)
(0.0021903 0 0.116275)
(0.00186822 0 0.134622)
(0.00200938 0 0.129093)
(0.00149173 0 0.145774)
(0.00169918 0 0.140972)
(0.00096272 0 0.155471)
(0.00124106 0 0.151582)
(0.000273164 0 0.163175)
(0.000621557 0 0.160538)
(-0.000553055 0 0.167571)
(-0.000160667 0 0.167113)
(-0.00137363 0 0.164781)
(-0.00105405 0 0.169262)
(-0.00175375 0 0.144909)
(-0.00179884 0 0.160926)
(-0.00100944 0 0.0915865)
(-0.00176979 0 0.1279)
(0.000632166 0 0.00068769)
(-0.000329873 0 0.0520617)
(0.000646505 0 -0.0805285)
(0.00154531 0 -0.0541716)
(-0.00184336 0 -0.0709653)
(-0.000744578 0 -0.10683)
(-0.00196913 0 0.0264627)
(-0.00308101 0 -0.0318642)
(-0.000788069 0 0.120619)
(-0.00118877 0 0.0871861)
(-0.00105239 0 0.161848)
(-0.000723332 0 0.155232)
(-0.00228037 0 0.161963)
(-0.00182607 0 0.169479)
(-0.00322765 0 0.13881)
(-0.00315508 0 0.155077)
(-0.00328512 0 0.100251)
(-0.00374031 0 0.122205)
(-0.00245353 0 0.0545326)
(-0.00314869 0 0.0731337)
(-0.00164514 0 0.0406866)
(-0.0021732 0 0.0353721)
(-0.000981185 0 0.0623854)
(-0.00144621 0 0.0454958)
(-0.00067793 0 0.0899497)
(-0.000838708 0 0.0789461)
(-0.000847655 0 0.103477)
(-0.000820737 0 0.100911)
(-0.00118592 0 0.104646)
(-0.00117845 0 0.10622)
(-0.00145616 0 0.10064)
(-0.00151023 0 0.103285)
(-0.00161722 0 0.0953449)
(-0.00172455 0 0.0981483)
(-0.00169789 0 0.0897368)
(-0.00183884 0 0.0926303)
(-0.00172471 0 0.083957)
(-0.00188807 0 0.0868862)
(-0.00171551 0 0.0782086)
(-0.00189238 0 0.0810396)
(-0.00168439 0 0.0726774)
(-0.00186698 0 0.0753691)
(-0.00164153 0 0.0672949)
(-0.00182496 0 0.0699651)
(-0.00159085 0 0.0617588)
(-0.00177387 0 0.0645971)
(-0.00152992 0 0.0557184)
(-0.00171411 0 0.0588864)
(-0.00145193 0 0.0489062)
(-0.00164034 0 0.0525067)
(-0.00134852 0 0.0411774)
(-0.00154404 0 0.0452469)
(-0.00121407 0 0.0325951)
(-0.00141676 0 0.0370295)
(-0.00105199 0 0.0236428)
(-0.00125426 0 0.0280617)
(-0.00106896 0 0.0191106)
(0.00160868 0 0.00574417)
(0.00157451 0 0.00332942)
(0.00162212 0 0.0105976)
(0.00158617 0 0.0082454)
(0.00164824 0 0.0156499)
(0.00160489 0 0.0130005)
(0.00169131 0 0.021487)
(0.00163973 0 0.0183244)
(0.00175385 0 0.0284515)
(0.00169307 0 0.0246547)
(0.00183565 0 0.0367245)
(0.00176625 0 0.0322401)
(0.00193328 0 0.0463683)
(0.00185773 0 0.0411986)
(0.00203928 0 0.0573343)
(0.00196237 0 0.0515421)
(0.0021413 0 0.0694546)
(0.00207044 0 0.0631671)
(0.00222164 0 0.0824452)
(0.0021668 0 0.0758463)
(0.0022579 0 0.0959313)
(0.00223093 0 0.0892424)
(0.00222472 0 0.109489)
(0.00223808 0 0.102943)
(0.00209622 0 0.122695)
(0.00216166 0 0.116511)
(0.00184827 0 0.135156)
(0.00197578 0 0.129528)
(0.00146003 0 0.146523)
(0.00165732 0 0.141621)
(0.000914922 0 0.156432)
(0.00118673 0 0.152451)
(0.00020572 0 0.164316)
(0.00055028 0 0.161615)
(-0.000638754 0 0.16875)
(-0.000250747 0 0.168336)
(-0.00146318 0 0.165605)
(-0.00115718 0 0.1704)
(-0.00182409 0 0.144706)
(-0.00189495 0 0.161401)
(-0.00108624 0 0.0901875)
(-0.00183213 0 0.126974)
(0.000432398 0 -0.000259716)
(-0.000446212 0 0.0502456)
(0.000341613 0 -0.0792175)
(0.00121118 0 -0.054068)
(-0.00204312 0 -0.0695233)
(-0.0010042 0 -0.104238)
(-0.00226872 0 0.0260122)
(-0.00328771 0 -0.0316304)
(-0.00118494 0 0.120171)
(-0.00159413 0 0.0861155)
(-0.00145132 0 0.16252)
(-0.0011412 0 0.155483)
(-0.00268562 0 0.162933)
(-0.00223292 0 0.170587)
(-0.00364448 0 0.139254)
(-0.00358494 0 0.155897)
(-0.0036955 0 0.100024)
(-0.00417297 0 0.122247)
(-0.0028364 0 0.0539734)
(-0.00356346 0 0.0725609)
(-0.00198609 0 0.0401825)
(-0.00255005 0 0.0348051)
(-0.0012947 0 0.0620569)
(-0.0017869 0 0.0450349)
(-0.000981935 0 0.0899062)
(-0.00115805 0 0.0787375)
(-0.00115381 0 0.103652)
(-0.00113997 0 0.101026)
(-0.00150083 0 0.104856)
(-0.00150425 0 0.106452)
(-0.00177981 0 0.10079)
(-0.00184608 0 0.103471)
(-0.00194671 0 0.0954303)
(-0.00206765 0 0.0982596)
(-0.00203011 0 0.0897764)
(-0.0021853 0 0.0926859)
(-0.00205682 0 0.0839656)
(-0.00223522 0 0.086904)
(-0.00204482 0 0.078197)
(-0.0022375 0 0.0810316)
(-0.00200847 0 0.0726538)
(-0.00220758 0 0.0753449)
(-0.0019582 0 0.0672642)
(-0.0021588 0 0.0699317)
(-0.00189806 0 0.0617215)
(-0.0020989 0 0.0645571)
(-0.00182548 0 0.0556713)
(-0.00202827 0 0.058838)
(-0.00173339 0 0.0488441)
(-0.00194132 0 0.0524453)
(-0.00161313 0 0.0410956)
(-0.00182923 0 0.0451667)
(-0.00145892 0 0.0324927)
(-0.00168327 0 0.0369267)
(-0.00127413 0 0.0235261)
(-0.00149904 0 0.0279385)
(-0.00128893 0 0.0189771)
(0.00155163 0 0.0057132)
(0.00149571 0 0.00331122)
(0.00156724 0 0.0105346)
(0.00150934 0 0.00819682)
(0.00159559 0 0.0155478)
(0.00152983 0 0.0129164)
(0.00164027 0 0.0213407)
(0.00156638 0 0.018198)
(0.00170381 0 0.0282619)
(0.00162087 0 0.0244834)
(0.00178631 0 0.0364999)
(0.00169483 0 0.0320281)
(0.00188458 0 0.0461249)
(0.00178702 0 0.0409578)
(0.00199126 0 0.0570966)
(0.00189245 0 0.0512929)
(0.00209395 0 0.0692552)
(0.0020014 0 0.0629384)
(0.00217483 0 0.0823227)
(0.00209871 0 0.0756746)
(0.00221119 0 0.0959263)
(0.00216364 0 0.0891688)
(0.00217714 0 0.10964)
(0.00217108 0 0.103009)
(0.00204601 0 0.123032)
(0.00209377 0 0.116752)
(0.00179277 0 0.135703)
(0.00190501 0 0.129971)
(0.00139566 0 0.14729)
(0.00158071 0 0.142285)
(0.000837574 0 0.157415)
(0.00110044 0 0.15334)
(0.000112174 0 0.165476)
(0.00045008 0 0.162717)
(-0.000746587 0 0.169938)
(-0.000366431 0 0.169579)
(-0.00157129 0 0.166413)
(-0.00128136 0 0.171539)
(-0.00191376 0 0.144494)
(-0.0020084 0 0.161852)
(-0.00118946 0 0.0888669)
(-0.00191675 0 0.126066)
(0.000202411 0 -0.00106747)
(-0.000591207 0 0.048581)
(-2.99302e-06 0 -0.077893)
(0.00085457 0 -0.0538338)
(-0.00228178 0 -0.0680878)
(-0.00128981 0 -0.101761)
(-0.00259613 0 0.0256575)
(-0.00352378 0 -0.0313047)
(-0.00160781 0 0.11977)
(-0.0020288 0 0.0851393)
(-0.00187862 0 0.163191)
(-0.00159024 0 0.155738)
(-0.00311866 0 0.163905)
(-0.00267276 0 0.1717)
(-0.00408791 0 0.139696)
(-0.0040435 0 0.156727)
(-0.00413211 0 0.0997848)
(-0.00463181 0 0.122283)
(-0.0032472 0 0.0533929)
(-0.00400536 0 0.071971)
(-0.00235893 0 0.0396577)
(-0.00295586 0 0.0342129)
(-0.00164173 0 0.0617163)
(-0.00215893 0 0.0445567)
(-0.00131925 0 0.0898583)
(-0.00151146 0 0.0785225)
(-0.00149283 0 0.103827)
(-0.0014931 0 0.101141)
(-0.0018482 0 0.105068)
(-0.00186321 0 0.106689)
(-0.00213507 0 0.100942)
(-0.00221427 0 0.103662)
(-0.00230656 0 0.0955159)
(-0.00244179 0 0.0983739)
(-0.00239137 0 0.0898143)
(-0.00256158 0 0.0927425)
(-0.00241684 0 0.0839708)
(-0.00261108 0 0.086921)
(-0.00240114 0 0.0781804)
(-0.0026104 0 0.0810212)
(-0.00235879 0 0.0726237)
(-0.00257517 0 0.0753167)
(-0.00230039 0 0.0672254)
(-0.00251891 0 0.0698928)
(-0.00223005 0 0.0616746)
(-0.0024495 0 0.0645102)
(-0.00214507 0 0.055613)
(-0.00236727 0 0.0587814)
(-0.00203811 0 0.0487689)
(-0.00226638 0 0.052374)
(-0.00190021 0 0.0409988)
(-0.00213768 0 0.0450748)
(-0.00172537 0 0.0323734)
(-0.00197218 0 0.0368102)
(-0.00151689 0 0.0233904)
(-0.00176529 0 0.0277996)
(-0.00152925 0 0.0188259)
(0.00145293 0 0.00567815)
(0.00137684 0 0.00329099)
(0.00146993 0 0.0104659)
(0.00139175 0 0.00814393)
(0.0014998 0 0.0154406)
(0.00141337 0 0.0128278)
(0.00154574 0 0.0211906)
(0.00145115 0 0.0180681)
(0.00161021 0 0.0280694)
(0.00150663 0 0.0243096)
(0.00169351 0 0.0362728)
(0.0015814 0 0.031814)
(0.00179262 0 0.0458789)
(0.0016744 0 0.040715)
(0.00190029 0 0.0568564)
(0.00178075 0 0.0510414)
(0.00200411 0 0.0690533)
(0.00189081 0 0.0627072)
(0.00208618 0 0.082198)
(0.00198941 0 0.0755003)
(0.00212352 0 0.0959203)
(0.00205569 0 0.0890931)
(0.00208977 0 0.109792)
(0.00206421 0 0.103074)
(0.00195753 0 0.123375)
(0.00198712 0 0.116995)
(0.00170087 0 0.136259)
(0.00179688 0 0.130421)
(0.00129713 0 0.14807)
(0.00146846 0 0.142959)
(0.000728673 0 0.158417)
(0.000980555 0 0.154245)
(-9.80765e-06 0 0.166656)
(0.000318663 0 0.163839)
(-0.000879026 0 0.171133)
(-0.000510695 0 0.170838)
(-0.00170032 0 0.167208)
(-0.00143074 0 0.172672)
(-0.00202394 0 0.144278)
(-0.00214452 0 0.162278)
(-0.00131449 0 0.0876263)
(-0.00202868 0 0.125176)
(-2.95071e-05 0 -0.0017447)
(-0.000760148 0 0.0470444)
(-0.000321522 0 -0.0765547)
(0.000483356 0 -0.0535008)
(-0.00253795 0 -0.0666555)
(-0.00159893 0 -0.0993519)
(-0.0029505 0 0.0253966)
(-0.00378755 0 -0.0308772)
(-0.00206491 0 0.11942)
(-0.00249816 0 0.0842646)
(-0.00234292 0 0.163866)
(-0.0020799 0 0.156)
(-0.00358463 0 0.164881)
(-0.00315193 0 0.172815)
(-0.00456028 0 0.140138)
(-0.00453456 0 0.157562)
(-0.00459596 0 0.0995335)
(-0.00511948 0 0.122312)
(-0.00368514 0 0.0527917)
(-0.00447507 0 0.0713637)
(-0.00276107 0 0.0391126)
(-0.00338895 0 0.0335968)
(-0.00202098 0 0.061364)
(-0.00256045 0 0.0440633)
(-0.00169063 0 0.0898069)
(-0.00189895 0 0.0783022)
(-0.00186585 0 0.104004)
(-0.00188113 0 0.101258)
(-0.00222849 0 0.105284)
(-0.00225606 0 0.10693)
(-0.00252207 0 0.101096)
(-0.00261516 0 0.103858)
(-0.00269702 0 0.0956016)
(-0.00284737 0 0.0984905)
(-0.00278218 0 0.0898504)
(-0.00296826 0 0.0927992)
(-0.00280546 0 0.0839725)
(-0.00301639 0 0.0869365)
(-0.00278523 0 0.0781587)
(-0.00301189 0 0.0810077)
(-0.00273614 0 0.072587)
(-0.00297061 0 0.075284)
(-0.00266891 0 0.0671787)
(-0.0029062 0 0.0698479)
(-0.00258767 0 0.0616183)
(-0.00282659 0 0.064456)
(-0.00248955 0 0.0555436)
(-0.00273205 0 0.058716)
(-0.00236692 0 0.0486811)
(-0.00261644 0 0.0522923)
(-0.0022105 0 0.0408873)
(-0.00247029 0 0.0449706)
(-0.00201406 0 0.0322374)
(-0.00228429 0 0.0366793)
(-0.00178077 0 0.023236)
(-0.00205368 0 0.0276441)
(-0.00179042 0 0.0186559)
(0.00131504 0 0.00564079)
(0.00121903 0 0.00326951)
(0.00133293 0 0.0103938)
(0.00123498 0 0.00808828)
(0.00136388 0 0.01533)
(0.00125741 0 0.012736)
(0.0014108 0 0.0210378)
(0.00129623 0 0.0179354)
(0.00147612 0 0.0278747)
(0.00135269 0 0.0241335)
(0.00156022 0 0.0360434)
(0.00142832 0 0.0315979)
(0.00166021 0 0.0456306)
(0.00152218 0 0.04047)
(0.00176893 0 0.0566133)
(0.00162952 0 0.0507875)
(0.00187402 0 0.0688483)
(0.0017408 0 0.0624731)
(0.00195752 0 0.0820704)
(0.00184086 0 0.075323)
(0.0019963 0 0.0959122)
(0.00190878 0 0.0890146)
(0.00196355 0 0.109944)
(0.00191885 0 0.103137)
(0.0018312 0 0.12372)
(0.00184266 0 0.117238)
(0.00157239 0 0.136822)
(0.00165186 0 0.130875)
(0.00116353 0 0.148864)
(0.00132043 0 0.143643)
(0.000586423 0 0.159436)
(0.000826185 0 0.155165)
(-0.000163138 0 0.167852)
(0.000154264 0 0.164977)
(-0.00104044 0 0.172332)
(-0.00068628 0 0.172108)
(-0.0018565 0 0.167989)
(-0.00160949 0 0.173799)
(-0.00216318 0 0.144063)
(-0.00230905 0 0.162682)
(-0.00147618 0 0.0864645)
(-0.00217427 0 0.124314)
(-0.000311323 0 -0.00230836)
(-0.000957879 0 0.0456513)
(-0.000675279 0 -0.0752057)
(0.000101875 0 -0.0530859)
(-0.00282577 0 -0.0652111)
(-0.00193089 0 -0.0970145)
(-0.00333743 0 0.025239)
(-0.00408621 0 -0.030347)
(-0.00256263 0 0.119129)
(-0.00300549 0 0.0834993)
(-0.00285091 0 0.164546)
(-0.00261496 0 0.156271)
(-0.00408922 0 0.165859)
(-0.00367505 0 0.173926)
(-0.00506589 0 0.140578)
(-0.00506245 0 0.158397)
(-0.00508967 0 0.09927)
(-0.00563948 0 0.122332)
(-0.00415048 0 0.0521696)