/*--------------------------------*- C++ -*----------------------------------*\
  =========                 |
  \\      /  F ield         | OpenFOAM: The Open Source CFD Toolbox
   \\    /   O peration     | Website:  https://openfoam.org
    \\  /    A nd           | Version:  9
     \\/     M anipulation  |
\*---------------------------------------------------------------------------*/
FoamFile
{
    format      ascii;
    class       volScalarField;
    location    "0.02";
    object      alpha.water;
}
// * * * * * * * * * * * * * * * * * * * * * * * * * * * * * * * * * * * * * //

dimensions      [0 0 0 0 0 0 0];

internalField   nonuniform List<scalar> 
20000
(
7.01626e-266
3.14769e-265
1.37777e-264
6.20173e-264
2.87905e-263
1.37876e-262
6.81194e-262
3.47238e-261
1.82634e-260
9.91171e-260
5.55054e-259
3.20729e-258
1.91224e-257
1.17632e-256
7.46523e-256
4.88708e-255
3.2997e-254
2.2974e-253
1.64903e-252
1.21992e-251
9.29824e-251
7.29911e-250
5.89866e-249
4.90505e-248
4.19485e-247
3.68748e-246
3.32987e-245
3.08703e-244
2.93629e-243
2.86387e-242
2.8737e-241
3.3432e-240
3.8164e-239
4.26554e-238
4.66347e-237
4.98226e-236
5.19594e-235
5.2836e-234
5.23241e-233
5.03994e-232
4.71526e-231
4.27871e-230
3.75985e-229
3.19415e-228
2.61874e-227
2.068e-226
1.56976e-225
1.14281e-224
7.96033e-224
5.29143e-223
3.34714e-222
2.00864e-221
1.13973e-220
6.09221e-220
3.05538e-219
1.43128e-218
6.23159e-218
2.50773e-217
9.26985e-217
3.12561e-216
9.53724e-216
2.60989e-215
6.33963e-215
1.35101e-214
2.49249e-214
3.92255e-214
5.18331e-214
5.66459e-214
5.06643e-214
3.71964e-214
2.32333e-214
1.26964e-214
6.19073e-215
2.74087e-215
1.11884e-215
4.26639e-216
1.53673e-216
5.27819e-217
1.74272e-217
5.56971e-218
1.73341e-218
5.28067e-219
1.58185e-219
4.67796e-220
1.37053e-220
3.9903e-221
1.15773e-221
3.35555e-222
9.73697e-223
2.83429e-223
8.29073e-224
2.44094e-224
7.24369e-225
2.16949e-225
6.56525e-226
2.00951e-226
6.22659e-227
1.95365e-227
6.17869e-228
1.87103e-228
3.15154e-263
1.41305e-262
6.18117e-262
2.78058e-261
1.29003e-260
6.17403e-260
3.04846e-259
1.55298e-258
8.16305e-258
4.42744e-257
2.47784e-256
1.43092e-255
8.52627e-255
5.24185e-254
3.3247e-253
2.17527e-252
1.46791e-251
1.02147e-250
7.32815e-250
5.41852e-249
4.12802e-248
3.23902e-247
2.61645e-246
2.17486e-245
1.85928e-244
1.63387e-243
1.475e-242
1.3671e-241
1.3001e-240
1.26787e-239
1.27214e-238
1.47998e-237
1.68959e-236
1.88875e-235
2.06549e-234
2.20747e-233
2.30319e-232
2.34335e-231
2.32219e-230
2.23849e-229
2.09614e-228
1.90398e-227
1.67497e-226
1.42472e-225
1.16966e-224
9.25049e-224
7.03315e-223
5.12921e-222
3.57951e-221
2.38418e-220
1.51137e-219
9.0906e-219
5.17068e-218
2.77104e-217
1.39355e-216
6.5471e-216
2.85937e-215
1.15449e-214
4.28274e-214
1.44957e-213
4.44136e-213
1.22082e-212
2.97988e-212
6.38377e-212
1.18447e-211
1.87546e-211
2.49419e-211
2.74365e-211
2.46967e-211
1.82398e-211
1.14483e-211
6.28452e-212
3.07725e-212
1.36786e-212
5.60496e-213
2.14515e-213
7.75417e-214
2.67253e-214
8.85384e-215
2.83907e-215
8.86459e-216
2.70917e-216
8.14106e-217
2.41502e-217
7.0971e-218
2.07257e-218
6.03115e-219
1.75317e-219
5.10193e-220
1.4893e-220
4.36855e-221
1.28969e-221
3.83751e-222
1.15235e-222
3.49617e-223
1.0728e-223
3.33228e-224
1.04802e-224
3.32208e-225
1.00796e-225
1.16352e-260
5.21519e-260
2.28056e-259
1.02558e-258
4.75661e-258
2.2758e-257
1.12336e-256
5.72113e-256
3.00641e-255
1.63017e-254
9.12102e-254
5.26597e-253
3.13707e-252
1.92823e-251
1.22276e-250
7.99882e-250
5.39689e-249
3.75503e-248
2.6936e-247
1.99151e-246
1.51712e-245
1.19037e-244
9.6158e-244
7.99327e-243
6.83404e-242
6.0063e-241
5.42324e-240
5.0277e-239
4.78268e-238
4.66575e-237
4.68343e-236
5.45138e-235
6.2272e-234
6.966e-233
7.62376e-232
8.15491e-231
8.51679e-230
8.67462e-229
8.60646e-228
8.30703e-227
7.78975e-226
7.08647e-225
6.24441e-224
5.32093e-223
4.37669e-222
3.46846e-221
2.64282e-220
1.93185e-219
1.3515e-218
9.02534e-218
5.73714e-217
3.46086e-216
1.97461e-215
1.06168e-214
5.35767e-214
2.52635e-213
1.10766e-212
4.49082e-212
1.67333e-211
5.69063e-211
1.75248e-210
4.84372e-210
1.18934e-209
2.5643e-209
4.79076e-209
7.6412e-209
1.02398e-208
1.13512e-208
1.02945e-208
7.65578e-209
4.8326e-209
2.6668e-209
1.31222e-209
5.85985e-210
2.4117e-210
9.26905e-211
3.36418e-211
1.16408e-211
3.87134e-212
1.24606e-212
3.90498e-213
1.19774e-213
3.612e-214
1.07522e-214
3.17061e-215
9.29027e-216
2.7124e-216
7.91013e-217
2.30926e-217
6.76202e-218
1.98957e-218
5.89125e-219
1.7581e-219
5.2945e-220
1.61083e-220
4.9564e-221
1.54365e-221
4.86753e-222
1.54679e-222
4.70324e-223
4.21719e-258
1.88962e-257
8.26039e-257
3.7135e-256
1.72176e-255
8.23522e-255
4.06376e-254
2.06902e-253
1.08694e-252
5.89215e-252
3.29588e-251
1.90239e-250
1.13304e-249
6.96281e-249
4.41451e-248
2.88727e-247
1.94776e-246
1.35502e-245
9.71891e-245
7.18504e-244
5.4732e-243
4.2943e-242
3.46894e-241
2.88373e-240
2.46572e-239
2.16735e-238
1.9573e-237
1.81496e-236
1.727e-235
1.68536e-234
1.69245e-233
1.97096e-232
2.25277e-231
2.52173e-230
2.76195e-229
2.9569e-228
3.09105e-227
3.15164e-226
3.1305e-225
3.02542e-224
2.84095e-223
2.58833e-222
2.28447e-221
1.95002e-220
1.60699e-219
1.27608e-218
9.74409e-218
7.13911e-217
5.00664e-216
3.35215e-215
2.13676e-214
1.29276e-213
7.39891e-213
3.99134e-212
2.02129e-211
9.56698e-211
4.21138e-210
1.71476e-209
6.41876e-209
2.19368e-208
6.79165e-208
1.88797e-207
4.66463e-207
1.01248e-206
1.90522e-206
3.06208e-206
4.13622e-206
4.62225e-206
4.22509e-206
3.16517e-206
2.01019e-206
1.11562e-206
5.51883e-207
2.47699e-207
1.02438e-207
3.95548e-208
1.44213e-208
5.01205e-209
1.67401e-209
5.41074e-210
1.70264e-210
5.24347e-211
1.58753e-211
4.74418e-212
1.40431e-212
4.13026e-213
1.21032e-213
3.54242e-214
1.03784e-214
3.0496e-215
9.00337e-216
2.67488e-216
8.00868e-217
2.41953e-217
7.38438e-218
2.27907e-218
7.11927e-219
2.25144e-219
7.17452e-220
2.18677e-220
1.53226e-255
6.86276e-255
2.9987e-254
1.34749e-253
6.24496e-253
2.98571e-252
1.47272e-251
7.49517e-251
3.93598e-250
2.13281e-249
1.19258e-248
6.88108e-248
4.09685e-247
2.51677e-246
1.59515e-245
1.04298e-244
7.034e-244
4.89214e-243
3.50805e-242
2.59289e-241
1.97477e-240
1.54916e-239
1.25126e-238
1.04008e-237
8.89271e-237
7.81654e-236
7.05925e-235
6.54643e-234
6.23005e-233
6.08106e-232
6.10827e-231
7.11594e-230
8.13691e-229
9.11303e-228
9.98707e-227
1.06993e-225
1.11935e-224
1.1423e-223
1.13575e-222
1.09882e-221
1.03306e-220
9.42436e-220
8.32992e-219
7.12153e-218
5.87871e-217
4.67672e-216
3.57817e-215
2.62715e-214
1.84661e-213
1.2394e-212
7.92093e-212
4.80565e-211
2.75867e-210
1.49293e-209
7.58645e-209
3.60396e-208
1.59274e-207
6.5128e-207
2.44909e-206
8.41154e-206
2.61821e-205
7.32056e-205
1.82011e-204
3.97757e-204
7.53958e-204
1.22121e-203
1.66302e-203
1.87383e-203
1.72675e-203
1.30345e-203
8.33163e-204
4.65201e-204
2.31455e-204
1.04454e-204
4.34263e-205
1.68542e-205
6.1755e-206
2.15669e-206
7.23749e-207
2.3502e-207
7.42931e-208
2.2982e-208
6.98873e-209
2.09755e-209
6.23528e-210
1.84153e-210
5.41851e-211
1.5923e-211
4.68345e-212
1.38152e-212
4.09418e-213
1.2209e-213
3.66874e-214
1.11233e-214
3.40668e-215
1.05501e-215
3.30659e-216
1.0491e-216
3.35355e-217
1.02492e-217
5.5865e-253
2.50077e-252
1.09211e-251
4.90471e-251
2.27183e-250
1.08556e-249
5.35172e-249
2.7222e-248
1.42877e-247
7.73809e-247
4.32461e-246
2.49401e-245
1.48416e-244
9.1131e-244
5.77329e-243
3.77315e-242
2.54357e-241
1.76832e-240
1.26753e-239
9.36524e-239
7.1302e-238
5.59174e-237
4.51518e-236
3.75219e-235
3.20744e-234
2.8188e-233
2.54537e-232
2.36027e-231
2.24613e-230
2.19248e-229
2.20249e-228
2.56627e-227
2.93518e-226
3.28835e-225
3.6052e-224
3.86422e-223
4.04504e-222
4.13076e-221
4.11027e-220
3.98013e-219
3.74564e-218
3.42085e-217
3.0273e-216
2.59165e-215
2.14254e-214
1.70723e-213
1.30852e-212
9.6258e-212
6.78002e-211
4.56085e-210
2.92193e-209
1.77741e-208
1.02322e-207
5.55443e-207
2.83188e-206
1.35011e-205
5.98984e-205
2.45957e-204
9.29117e-204
3.2069e-203
1.00356e-202
2.82241e-202
7.06196e-202
1.55392e-201
2.96732e-201
4.8442e-201
6.6513e-201
7.55772e-201
7.02264e-201
5.34299e-201
3.4385e-201
1.93231e-201
9.67328e-202
4.39136e-202
1.83617e-202
7.16611e-203
2.64e-203
9.2688e-204
3.12668e-204
1.02051e-204
3.24219e-205
1.0079e-205
3.07986e-206
9.2878e-207
2.77389e-207
8.23017e-208
2.4326e-208
7.18029e-209
2.12117e-209
6.2838e-210
1.87004e-210
5.59949e-211
1.68941e-211
5.14237e-212
1.58102e-212
4.91476e-213
1.54609e-213
4.9231e-214
1.57918e-214
4.84097e-215
2.04159e-250
9.13313e-250
3.98579e-249
1.78882e-248
8.28003e-248
3.95382e-247
1.94787e-246
9.90141e-246
5.19338e-245
2.81085e-244
1.56989e-243
9.04777e-243
5.38081e-242
3.30191e-241
2.09054e-240
1.36547e-239
9.19959e-239
6.39209e-238
4.57936e-237
3.38172e-236
2.57338e-235
2.01718e-234
1.62809e-233
1.35241e-232
1.15563e-231
1.01525e-230
9.16496e-230
8.49631e-229
8.08378e-228
7.8895e-227
7.9248e-226
9.23357e-225
1.05615e-223
1.18339e-222
1.29768e-221
1.39132e-220
1.45698e-219
1.48856e-218
1.48202e-217
1.43606e-216
1.35251e-215
1.23633e-214
1.09521e-213
9.38665e-213
7.76991e-212
6.20001e-211
4.75946e-210
3.50721e-209
2.475e-208
1.66835e-207
1.07125e-206
6.53252e-206
3.77075e-205
2.05291e-204
1.05e-203
5.02337e-203
2.23709e-202
9.22402e-202
3.50017e-201
1.21406e-200
3.81971e-200
1.08056e-199
2.72096e-199
6.02877e-199
1.15985e-198
1.9086e-198
2.64254e-198
3.02847e-198
2.83811e-198
2.17696e-198
1.411e-198
7.98355e-199
4.0229e-199
1.83788e-199
7.73228e-200
3.03592e-200
1.12503e-200
3.97276e-201
1.34776e-201
4.4235e-202
1.41308e-202
4.41658e-203
1.35676e-203
4.11291e-204
1.23467e-204
3.68182e-205
1.09365e-205
3.24388e-206
9.62888e-207
2.86592e-207
8.56832e-208
2.57726e-208
7.81036e-209
2.38776e-209
7.37252e-210
2.30142e-210
7.2695e-211
2.32406e-211
7.48367e-212
2.3019e-212
7.46838e-248
3.33846e-247
1.45577e-246
6.5282e-246
3.01931e-245
1.44059e-244
7.09148e-244
3.60185e-243
1.8877e-242
1.02088e-241
5.69725e-241
3.28096e-240
1.94972e-239
1.19552e-238
7.56354e-238
4.93658e-237
3.32352e-236
2.30762e-235
1.65206e-234
1.21917e-233
9.27142e-233
7.26293e-232
5.85846e-231
4.86366e-230
4.15371e-229
3.6473e-228
3.29097e-227
3.04957e-226
2.9004e-225
2.82977e-224
2.84166e-223
3.31029e-222
3.78587e-221
4.24168e-220
4.65142e-219
4.98753e-218
5.22383e-217
5.33848e-216
5.31695e-215
5.15444e-214
4.85731e-213
4.44312e-212
3.9391e-211
3.3792e-210
2.80014e-209
2.23706e-208
1.71962e-207
1.2691e-206
8.97109e-206
6.05862e-205
3.89836e-204
2.3827e-203
1.37885e-202
7.52785e-202
3.86209e-201
1.85391e-200
8.28675e-200
3.43071e-199
1.30764e-198
4.55786e-198
1.44171e-197
4.10243e-197
1.03967e-196
2.31963e-196
4.49628e-196
7.45844e-196
1.04141e-195
1.20391e-195
1.1381e-195
8.80341e-196
5.74868e-196
3.27618e-196
1.66243e-196
7.64666e-197
3.23851e-197
1.27983e-197
4.77313e-198
1.69613e-198
5.78982e-199
1.91188e-199
6.14421e-200
1.93175e-200
5.96887e-201
1.81981e-201
5.49384e-202
1.64738e-202
4.92014e-203
1.46721e-203
4.37816e-204
1.30987e-204
3.93611e-205
1.18986e-205
3.62355e-206
1.11311e-206
3.4531e-207
1.08291e-207
3.43613e-208
1.10341e-208
3.56825e-209
1.1017e-209
2.73108e-245
1.21975e-244
5.31396e-244
2.38076e-243
1.10008e-242
5.24388e-242
2.57895e-241
1.30866e-240
6.85222e-240
3.70231e-239
2.06425e-238
1.18768e-237
7.05143e-237
4.31988e-236
2.73055e-235
1.78061e-234
1.19774e-233
8.30912e-233
5.94359e-232
4.38258e-231
3.33012e-230
2.60666e-229
2.10099e-228
1.74295e-227
1.48748e-226
1.30525e-225
1.17698e-224
1.09e-223
1.03611e-222
1.01037e-221
1.01416e-220
1.18096e-219
1.35019e-218
1.51237e-217
1.65817e-216
1.77781e-215
1.86199e-214
1.90299e-213
1.89561e-212
1.83814e-211
1.73281e-210
1.5858e-209
1.40674e-208
1.20765e-207
1.00157e-206
8.00965e-206
6.16411e-205
4.55521e-204
3.22486e-203
2.18161e-202
1.40642e-201
8.61453e-201
4.99706e-200
2.7354e-199
1.40751e-198
6.77852e-198
3.04086e-197
1.26395e-196
4.83885e-196
1.6948e-195
5.38951e-195
1.54259e-194
3.9344e-194
8.83945e-194
1.72633e-193
2.88677e-193
4.06509e-193
4.74088e-193
4.52163e-193
3.52797e-193
2.32181e-193
1.33328e-193
6.81565e-194
3.15775e-194
1.34689e-194
5.36005e-195
2.0128e-195
7.20098e-196
2.47452e-196
8.22507e-197
2.66045e-197
8.41802e-198
2.61746e-198
8.02974e-199
2.43893e-199
7.35736e-200
2.21038e-200
6.62983e-201
1.98966e-201
5.98617e-202
1.80875e-202
5.49737e-203
1.68305e-203
5.19714e-204
1.62052e-204
5.10762e-205
1.62866e-205
5.25518e-206
1.70737e-206
5.29331e-207
9.96134e-243
4.44447e-242
1.93424e-241
8.65654e-241
3.99567e-240
1.90262e-239
9.34708e-239
4.73799e-238
2.47817e-237
1.33754e-236
7.44955e-236
4.28157e-235
2.53931e-234
1.55399e-233
9.81228e-233
6.39192e-232
4.2951e-231
2.97658e-230
2.127e-229
1.56679e-228
1.18935e-227
9.30056e-227
7.48916e-226
6.20708e-225
5.29247e-224
4.64e-223
4.18047e-222
3.86835e-221
3.67423e-220
3.58032e-219
3.59128e-218
4.17927e-217
4.77538e-216
5.3462e-215
5.85889e-214
6.27913e-213
6.57435e-212
6.71741e-211
6.69025e-210
6.48689e-209
6.11521e-208
5.59699e-207
4.96604e-206
4.2646e-205
3.53839e-204
2.83129e-203
2.18044e-202
1.61268e-201
1.14284e-200
7.74034e-200
4.9967e-199
3.06526e-198
1.78118e-197
9.76942e-197
5.03799e-196
2.43226e-195
1.09411e-194
4.56155e-194
1.7522e-193
6.1598e-193
1.96681e-192
5.65461e-192
1.44929e-191
3.27358e-191
6.43073e-191
1.08223e-190
1.53466e-190
1.80349e-190
1.73445e-190
1.3653e-190
9.06235e-191
5.24939e-191
2.70692e-191
1.26504e-191
5.44227e-192
2.18417e-192
8.2705e-193
2.98316e-193
1.03339e-193
3.46211e-194
1.12855e-194
3.59809e-195
1.12714e-195
3.48314e-196
1.06556e-196
3.23705e-197
9.79222e-198
2.95694e-198
8.93275e-199
2.70497e-199
8.22513e-200
2.51543e-200
7.74807e-201
2.40682e-201
7.54855e-202
2.39279e-202
7.6726e-203
2.48926e-203
8.13009e-204
2.53235e-204
3.24134e-240
1.44321e-239
6.2666e-239
2.79796e-238
1.28833e-237
6.11925e-237
2.99844e-236
1.51583e-235
7.90659e-235
4.25526e-234
2.36304e-233
1.35401e-232
8.00514e-232
4.88303e-231
3.07289e-230
1.99479e-229
1.33559e-228
9.22134e-228
6.56394e-227
4.81577e-226
3.64048e-225
2.83455e-224
2.27229e-223
1.87454e-222
1.5906e-221
1.38748e-220
1.24351e-219
1.14436e-218
1.0807e-217
1.04677e-216
1.04337e-215
1.20602e-214
1.36834e-213
1.52059e-212
1.65351e-211
1.75768e-210
1.82455e-209
1.8474e-208
1.82238e-207
1.74914e-206
1.63129e-205
1.47609e-204
1.29388e-203
1.09683e-202
8.97558e-202
7.07646e-201
5.36399e-200
3.90024e-199
2.71368e-198
1.8019e-197
1.13856e-196
6.82442e-196
3.86695e-195
2.06364e-194
1.03292e-193
4.82711e-193
2.09565e-192
8.4051e-192
3.09514e-191
1.03932e-190
3.15816e-190
8.61105e-190
2.08714e-189
4.45112e-189
8.2605e-189
1.31854e-188
1.78883e-188
2.03993e-188
1.94019e-188
1.54157e-188
1.0492e-188
6.30154e-189
3.39458e-189
1.66487e-189
7.53461e-190
3.1837e-190
1.26889e-190
4.81253e-191
1.75034e-191
6.14581e-192
2.09553e-192
6.97436e-193
2.27607e-193
7.3128e-194
2.32141e-194
7.30419e-195
2.28443e-195
7.11995e-196
2.21646e-196
6.90591e-197
2.15756e-197
6.77036e-198
2.13708e-198
6.79493e-199
2.17889e-199
7.05425e-200
2.30798e-200
7.6326e-201
2.53778e-201
8.02371e-202
6.2928e-238
2.78911e-237
1.20484e-236
5.35046e-236
2.44984e-235
1.15684e-234
5.63422e-234
2.83042e-233
1.4667e-232
7.8401e-232
4.32307e-231
2.45895e-230
1.44271e-229
8.73071e-229
5.44912e-228
3.50716e-227
2.32739e-226
1.59214e-225
1.12251e-224
8.15405e-224
6.10078e-223
4.69959e-222
3.72573e-221
3.0383e-220
2.54737e-219
2.19458e-218
1.94155e-217
1.76284e-216
1.64162e-215
1.56704e-214
1.53844e-213
1.74972e-212
1.95225e-211
2.13216e-210
2.27718e-209
2.37589e-208
2.419e-207
2.40062e-206
2.31928e-205
2.17849e-204
1.98666e-203
1.75633e-202
1.50282e-201
1.24246e-200
9.90684e-200
7.6034e-199
5.60504e-198
3.95963e-197
2.67402e-196
1.72167e-195
1.05381e-194
6.11291e-194
3.34913e-193
1.72667e-192
8.34304e-192
3.76142e-191
1.57461e-190
6.08769e-190
2.16074e-189
6.99436e-189
2.04973e-188
5.39389e-188
1.26315e-187
2.60671e-187
4.6914e-187
7.28582e-187
9.66568e-187
1.08602e-186
1.02811e-186
8.22164e-187
5.68126e-187
3.48589e-187
1.92672e-187
9.72453e-188
4.53833e-188
1.98031e-188
8.15883e-189
3.20101e-189
1.20489e-189
4.37961e-190
1.54607e-190
5.32722e-191
1.79957e-191
5.9832e-192
1.96471e-192
6.39163e-193
2.06574e-193
6.64916e-194
2.13628e-194
6.86479e-195
2.21036e-195
7.14303e-196
2.32025e-196
7.58591e-197
2.49939e-197
8.30792e-198
2.78856e-198
9.45269e-199
3.21726e-199
1.03739e-199
7.491e-236
3.30219e-235
1.41776e-234
6.25579e-234
2.84536e-233
1.33435e-232
6.45239e-232
3.21743e-231
1.65444e-230
8.7732e-230
4.79764e-229
2.70553e-228
1.57329e-227
9.43345e-227
5.83166e-226
3.71635e-225
2.44103e-224
1.65224e-223
1.15214e-222
8.27465e-222
6.1186e-221
4.65632e-220
3.64525e-219
2.93422e-218
2.42719e-217
2.06208e-216
1.79818e-215
1.60843e-214
1.47479e-213
1.38537e-212
1.33765e-211
1.49471e-210
1.63769e-209
1.75538e-208
1.83885e-207
1.88065e-206
1.87575e-205
1.82236e-204
1.72244e-203
1.5817e-202
1.40915e-201
1.21615e-200
1.0151e-199
8.18025e-199
6.35273e-198
4.7449e-197
3.40128e-196
2.33459e-195
1.53062e-194
9.56004e-194
5.6722e-193
3.1872e-192
1.6904e-191
8.43198e-191
3.94029e-190
1.71764e-189
6.95216e-189
2.59935e-188
8.92728e-188
2.79879e-187
7.95428e-187
2.03356e-186
4.63674e-186
9.34104e-186
1.64612e-185
2.51197e-185
3.28838e-185
3.66543e-185
3.46525e-185
2.78704e-185
1.94794e-185
1.21402e-185
6.8378e-186
3.52579e-186
1.68447e-186
7.53718e-187
3.18868e-187
1.28606e-187
4.98067e-188
1.86387e-188
6.77679e-189
2.4055e-189
8.37147e-190
2.86711e-190
9.69586e-191
3.24733e-191
1.08002e-191
3.57558e-192
1.18093e-192
3.89874e-193
1.28891e-193
4.27392e-194
1.42358e-194
4.76952e-195
1.6093e-195
5.47454e-196
1.87932e-196
6.51067e-197
2.262e-197
7.42137e-198
6.2738e-234
2.7496e-233
1.1728e-232
5.13959e-232
2.32112e-231
1.08052e-230
5.18521e-230
2.56519e-229
1.30829e-228
6.87894e-228
3.72882e-227
2.08372e-226
1.20033e-225
7.12722e-225
4.36167e-224
2.75065e-223
1.78729e-222
1.19629e-221
8.24617e-221
5.85205e-220
4.27417e-219
3.21149e-218
2.48128e-217
1.97031e-216
1.6071e-215
1.34568e-214
1.15597e-213
1.01807e-212
9.18613e-212
8.48704e-211
8.05516e-210
8.83866e-209
9.50476e-208
9.99364e-207
1.02636e-205
1.02851e-204
1.00453e-203
9.55094e-203
8.82894e-202
7.92437e-201
6.89591e-200
5.80931e-199
4.72996e-198
3.71564e-197
2.81091e-196
2.04379e-195
1.42521e-194
9.51006e-194
6.05751e-193
3.67345e-192
2.11498e-191
1.15261e-190
5.92646e-190
2.86505e-189
1.29735e-188
5.48014e-188
2.1499e-187
7.79536e-187
2.59865e-186
7.918e-186
2.1909e-185
5.46538e-185
1.21925e-184
2.41074e-184
4.18397e-184
6.31129e-184
8.19904e-184
9.10811e-184
8.62173e-184
6.97611e-184
4.92353e-184
3.10778e-184
1.77723e-184
9.32432e-185
4.54122e-185
2.07485e-185
8.97574e-186
3.70608e-186
1.47076e-186
5.64387e-187
2.10524e-187
7.66868e-188
2.73903e-188
9.62709e-189
3.34052e-189
1.14764e-189
3.91377e-190
1.32803e-190
4.49334e-191
1.51887e-191
5.1384e-192
1.74259e-192
5.93279e-193
2.03052e-193
6.99472e-194
2.42789e-194
8.49918e-195
3.00064e-195
1.06132e-195
3.53509e-196
4.10602e-232
1.78874e-231
7.57803e-231
3.29746e-230
1.47827e-229
6.82937e-229
3.25152e-228
1.59546e-227
8.06843e-227
4.20528e-226
2.2589e-225
1.25047e-224
7.13347e-224
4.19312e-223
2.5394e-222
1.58423e-221
1.01794e-220
6.73504e-220
4.58735e-219
3.21552e-218
2.31872e-217
1.71939e-216
1.31046e-215
1.02605e-214
8.24815e-214
6.80332e-213
5.75405e-212
4.98672e-211
4.42531e-210
4.01875e-209
3.74693e-208
4.0345e-207
4.25523e-206
4.38568e-205
4.41257e-204
4.32934e-203
4.13747e-202
3.84689e-201
3.47529e-200
3.04643e-199
2.58752e-198
2.12621e-197
1.68753e-196
1.29141e-195
9.51152e-195
6.72898e-194
4.56303e-193
2.95931e-192
1.83114e-191
1.0783e-190
6.02641e-190
3.18726e-189
1.59023e-188
7.45998e-188
3.2786e-187
1.34473e-186
5.12584e-186
1.80766e-185
5.86877e-185
1.74461e-184
4.7201e-184
1.15442e-183
2.53292e-183
4.94301e-183
8.49916e-183
1.27499e-182
1.65325e-182
1.83933e-182
1.74909e-182
1.42551e-182
1.01524e-182
6.47756e-183
3.75013e-183
1.99486e-183
9.86492e-184
4.58282e-184
2.01834e-184
8.49386e-185
3.43886e-185
1.34732e-185
5.13426e-186
1.91148e-186
6.97982e-187
2.50847e-187
8.90038e-188
3.12648e-188
1.09004e-188
3.78066e-189
1.30716e-189
4.51394e-190
1.55956e-190
5.39955e-191
1.8761e-191
6.55059e-192
2.30121e-192
8.14255e-193
2.90457e-193
1.04444e-193
3.75929e-194
1.27093e-194
2.41436e-230
1.04496e-229
4.39455e-229
1.89753e-228
8.43882e-228
3.86626e-227
1.8249e-226
8.87438e-226
4.44619e-225
2.29501e-224
1.22044e-223
6.68583e-223
3.77285e-222
2.19288e-221
1.3126e-220
8.09014e-220
5.1333e-219
3.35238e-218
2.25272e-217
1.5571e-216
1.10667e-215
8.084e-215
6.06634e-214
4.67395e-213
3.69523e-212
2.99583e-211
2.48894e-210
2.1175e-209
1.84345e-208
1.64121e-207
1.4991e-206
1.57936e-205
1.62889e-204
1.64061e-203
1.61204e-202
1.54361e-201
1.4388e-200
1.3039e-199
1.14741e-198
9.79128e-198
8.09085e-197
6.46441e-196
4.98599e-195
3.70619e-194
2.65021e-193
1.81962e-192
1.19716e-191
7.53115e-191
4.51972e-190
2.58135e-189
1.3994e-188
7.18118e-188
3.47805e-187
1.58488e-186
6.77197e-186
2.70351e-185
1.0045e-184
3.45914e-184
1.099e-183
3.20519e-183
8.53307e-183
2.06058e-182
4.4807e-182
8.70057e-182
1.49458e-181
2.24848e-181
2.93335e-181
3.29089e-181
3.15927e-181
2.59977e-181
1.86837e-181
1.20285e-181
7.02789e-182
3.77439e-182
1.88561e-182
8.85624e-183
3.94684e-183
1.68228e-183
6.90474e-184
2.74494e-184
1.06227e-184
4.01939e-185
1.49268e-185
5.45923e-186
1.97228e-186
7.05761e-187
2.50768e-187
8.86716e-188
3.12667e-188
1.10148e-188
3.88344e-189
1.37241e-189
4.86861e-190
1.73602e-190
6.22958e-191
2.25209e-191
8.20935e-192
3.01677e-192
1.10907e-192
3.81851e-193
1.80185e-228
7.72613e-228
3.21466e-227
1.37251e-226
6.03242e-226
2.72995e-225
1.27209e-224
6.10355e-224
3.01539e-223
1.53385e-222
8.03303e-222
4.3311e-221
2.40378e-220
1.37314e-219
8.07227e-219
4.88264e-218
3.03808e-217
1.94412e-216
1.27907e-215
8.6491e-215
6.0087e-214
4.28677e-213
3.13907e-212
2.35803e-211
1.81596e-210
1.4328e-209
1.15739e-208
9.56466e-208
8.08045e-207
6.97429e-206
6.16995e-205
6.2842e-204
6.26147e-203
6.08811e-202
5.77094e-201
5.32759e-200
4.78492e-199
4.1763e-198
3.53813e-197
2.90591e-196
2.31073e-195
1.77655e-194
1.31864e-193
9.43468e-193
6.49619e-192
4.29693e-191
2.72528e-190
1.65404e-189
9.58601e-189
5.29289e-188
2.77752e-187
1.38168e-186
6.4976e-186
2.88019e-185
1.19966e-184
4.67977e-184
1.70363e-183
5.76562e-183
1.80641e-182
5.21516e-182
1.3801e-181
3.32735e-181
7.25644e-181
1.41948e-180
2.46656e-180
3.7664e-180
4.99825e-180
5.70673e-180
5.56728e-180
4.64207e-180
3.36822e-180
2.1844e-180
1.28342e-180
6.92272e-181
3.47091e-181
1.63558e-181
7.31378e-182
3.12933e-182
1.29025e-182
5.15747e-183
2.00905e-183
7.66092e-184
2.87078e-184
1.06081e-184
3.87716e-185
1.40545e-185
5.06544e-186
1.81925e-186
6.52434e-187
2.34082e-187
8.41676e-188
3.0378e-188
1.10218e-188
4.02536e-189
1.48167e-189
5.50256e-190
2.06346e-190
7.81021e-191
2.95787e-191
1.04502e-191
2.49398e-226
1.05402e-225
4.31296e-225
1.80925e-224
7.80662e-224
3.46535e-223
1.58252e-222
7.43459e-222
3.59289e-221
1.78598e-220
9.13096e-220
4.80073e-219
2.5953e-218
1.4424e-217
8.2397e-217
4.83696e-216
2.91712e-215
1.80689e-214
1.14911e-213
7.50031e-213
5.02227e-212
3.44837e-211
2.42654e-210
1.74886e-209
1.29013e-208
9.73437e-208
7.50678e-207
5.91197e-206
4.75127e-205
3.89408e-204
3.26549e-203
3.14232e-202
2.9544e-201
2.70719e-200
2.41573e-199
2.09752e-198
1.77068e-197
1.45207e-196
1.15579e-195
8.92144e-195
6.67205e-194
4.82981e-193
3.38058e-192
2.28531e-191
1.49017e-190
9.35924e-190
5.65284e-189
3.27745e-188
1.82048e-187
9.66664e-187
4.89533e-186
2.3584e-185
1.07803e-184
4.66238e-184
1.90231e-183
7.29989e-183
2.62602e-182
8.82466e-182
2.75946e-181
7.99376e-181
2.13412e-180
5.2182e-180
1.15977e-179
2.32175e-179
4.14175e-179
6.50443e-179
8.87781e-179
1.04031e-178
1.03721e-178
8.78944e-179
6.44262e-179
4.20369e-179
2.47615e-179
1.33514e-179
6.6762e-180
3.13225e-180
1.39303e-180
5.92503e-181
2.42864e-181
9.65639e-182
3.74523e-182
1.4238e-182
5.32773e-183
1.96944e-183
7.21531e-184
2.62743e-184
9.53465e-185
3.45627e-185
1.25426e-185
4.56582e-186
1.67036e-186
6.15187e-187
2.28451e-187
8.56617e-188
3.24742e-188
1.246e-188
4.84206e-189
1.90411e-189
7.49802e-190
2.7402e-190
5.04504e-224
2.09775e-223
8.42434e-223
3.46477e-222
1.46445e-221
6.36219e-221
2.84089e-220
1.30371e-219
6.14821e-219
2.9792e-218
1.4831e-217
7.5838e-217
3.98254e-216
2.14729e-215
1.18841e-214
6.74942e-214
3.93229e-213
2.34936e-212
1.43882e-211
9.0286e-211
5.80197e-210
3.81617e-209
2.56747e-208
1.76565e-207
1.24021e-206
8.89017e-206
6.4978e-205
4.83799e-204
3.66616e-203
2.82532e-202
2.2214e-201
1.99431e-200
1.74496e-199
1.48405e-198
1.22595e-197
9.83066e-197
7.64779e-196
5.76946e-195
4.21921e-194
2.99036e-193
2.05378e-192
1.36676e-191
8.81293e-191
5.50539e-190
3.33103e-189
1.95103e-188
1.10527e-187
6.04841e-187
3.19191e-186
1.62105e-185
7.90395e-185
3.69028e-184
1.64528e-183
6.98473e-183
2.81528e-182
1.07413e-181
3.867e-181
1.3091e-180
4.15068e-180
1.22674e-179
3.36003e-179
8.46808e-179
1.94654e-178
4.03841e-178
7.4697e-178
1.21505e-177
1.7132e-177
2.06504e-177
2.10603e-177
1.81433e-177
1.34363e-177
8.81913e-178
5.2048e-178
2.80148e-178
1.39379e-178
6.4881e-179
2.85649e-179
1.20075e-179
4.85914e-180
1.90655e-180
7.29797e-181
2.74001e-181
1.01374e-181
3.71114e-182
1.34918e-182
4.88688e-183
1.76879e-183
6.41471e-184
2.33682e-184
8.57092e-185
3.1719e-185
1.18675e-185
4.49692e-186
1.72847e-186
6.74781e-187
2.67818e-187
1.0811e-187
4.43104e-188
1.82033e-188
6.89871e-189
1.08085e-221
4.41864e-221
1.74013e-220
7.01106e-220
2.90052e-219
1.23232e-218
5.37639e-218
2.40841e-217
1.10759e-216
5.22835e-216
2.53282e-215
1.25893e-214
6.41863e-214
3.35589e-213
1.7987e-212
9.87971e-212
5.55899e-211
3.20281e-210
1.88862e-209
1.13924e-208
7.02579e-208
4.42699e-207
2.84805e-206
1.86926e-205
1.25055e-204
8.51964e-204
5.90457e-203
4.15847e-202
2.97297e-201
2.15549e-200
1.58974e-199
1.33185e-198
1.08448e-197
8.5572e-197
6.53806e-196
4.83378e-195
3.45642e-194
2.38965e-193
1.59729e-192
1.03246e-191
6.45726e-191
3.91102e-190
2.29675e-189
1.30954e-188
7.25972e-188
3.91778e-187
2.05973e-186
1.05502e-185
5.26087e-185
2.54983e-184
1.19844e-183
5.4468e-183
2.38631e-182
1.00451e-181
4.04921e-181
1.55772e-180
5.69784e-180
1.97348e-179
6.44061e-179
1.96885e-178
5.59692e-178
1.46674e-177
3.50712e-177
7.56094e-177
1.4501e-176
2.43811e-176
3.53912e-176
4.37148e-176
4.54585e-176
3.97417e-176
2.97297e-176
1.96462e-176
1.16344e-176
6.26276e-177
3.1061e-177
1.43703e-177
6.27094e-178
2.60666e-178
1.04106e-178
4.02533e-179
1.51691e-179
5.6039e-180
2.04009e-180
7.3526e-181
2.6343e-181
9.41812e-182
3.37167e-182
1.21259e-182
4.3943e-183
1.60921e-183
5.9709e-184
2.25024e-184
8.63206e-185
3.37655e-185
1.34863e-185
5.50467e-186
2.29595e-186
9.75901e-187
4.16222e-187
1.62885e-187
2.21462e-219
8.89115e-219
3.42904e-218
1.35154e-217
5.465e-217
2.26734e-216
9.65074e-216
4.21362e-215
1.88679e-214
8.66316e-214
4.07763e-213
1.96699e-212
9.72137e-212
4.92081e-211
2.55017e-210
1.35253e-209
7.33801e-209
4.07052e-208
2.30745e-207
1.3359e-206
7.89402e-206
4.75779e-205
2.92253e-204
1.82804e-203
1.16326e-202
7.52275e-202
4.93849e-201
3.28708e-200
2.21564e-199
1.51076e-198
1.04515e-197
8.17295e-197
6.19779e-196
4.54308e-195
3.21634e-194
2.1978e-193
1.44883e-192
9.21184e-192
5.64946e-191
3.34347e-190
1.91128e-189
1.05689e-188
5.66515e-188
2.95134e-187
1.49899e-186
7.44698e-186
3.62986e-185
1.73995e-184
8.21107e-184
3.81327e-183
1.7394e-182
7.76858e-182
3.3838e-181
1.43115e-180
5.85031e-180
2.30041e-179
8.65633e-179
3.09951e-178
1.04921e-177
3.33261e-177
9.84707e-177
2.68004e-176
6.64406e-176
1.48166e-175
2.93131e-175
5.068e-175
7.53803e-175
9.50361e-175
1.00485e-174
8.90204e-175
6.72656e-175
4.47902e-175
2.6655e-175
1.43786e-175
7.12686e-176
3.28684e-176
1.4265e-176
5.88486e-177
2.3282e-177
8.90252e-178
3.31285e-178
1.2071e-178
4.33019e-179
1.53687e-179
5.42115e-180
1.90847e-180
6.73174e-181
2.38805e-181
8.55068e-182
3.10109e-182
1.14296e-182
4.29441e-183
1.64944e-183
6.49129e-184
2.62186e-184
1.0878e-184
4.6345e-185
2.02028e-185
8.8532e-186
3.54843e-186
4.23207e-217
1.66629e-216
6.28302e-216
2.41836e-215
9.54047e-215
3.85809e-214
1.59906e-213
6.79147e-213
2.95514e-212
1.31703e-211
6.01033e-211
2.80767e-210
1.3421e-209
6.56218e-209
3.28056e-208
1.67604e-207
8.74648e-207
4.65971e-206
2.53282e-205
1.40375e-204
7.92712e-204
4.55777e-203
2.6659e-202
1.58487e-201
9.5668e-201
5.85713e-200
3.63267e-199
2.27948e-198
1.44528e-197
9.24855e-197
5.99052e-196
4.36545e-195
3.07976e-194
2.09628e-193
1.37565e-192
8.69894e-192
5.29881e-191
3.10896e-190
1.75748e-189
9.57845e-189
5.03909e-188
2.56366e-187
1.26461e-186
6.06972e-186
2.84724e-185
1.31217e-184
5.97426e-184
2.70101e-183
1.21705e-182
5.47255e-182
2.45213e-181
1.09056e-180
4.78666e-180
2.05981e-179
8.63048e-179
3.49645e-178
1.36e-177
5.04194e-177
1.76777e-176
5.81269e-176
1.77605e-175
4.99175e-175
1.27608e-174
2.93e-174
5.95829e-174
1.05661e-173
1.60754e-173
2.06613e-173
2.21939e-173
1.99178e-173
1.52047e-173
1.02057e-173
6.10638e-174
3.3029e-174
1.63745e-174
7.53708e-175
3.25894e-175
1.33749e-175
5.25779e-176
1.99563e-176
7.3648e-177
2.65902e-177
9.44386e-178
3.31584e-178
1.15619e-178
4.02071e-179
1.40013e-179
4.90153e-180
1.73174e-180
6.19871e-181
2.25664e-181
8.38691e-182
3.19339e-182
1.24956e-182
5.03688e-183
2.09456e-183
8.9849e-184
3.96058e-184
1.76047e-184
7.15698e-185
7.45697e-215
2.87527e-214
1.05816e-213
3.9701e-213
1.52515e-212
5.99984e-212
2.41658e-211
9.96321e-211
4.20361e-210
1.81445e-209
8.00981e-209
3.61492e-208
1.66725e-207
7.85479e-207
3.77825e-206
1.85457e-205
9.28416e-205
4.73724e-204
2.46211e-203
1.30251e-202
7.00849e-202
3.83251e-201
2.12805e-200
1.19869e-199
6.84248e-199
3.95375e-198
2.30971e-197
1.36236e-196
8.10275e-196
4.85369e-195
2.93687e-194
1.99025e-193
1.3043e-192
8.23704e-192
5.0104e-191
2.93469e-190
1.65508e-189
8.98946e-189
4.70482e-188
2.37496e-187
1.15802e-186
5.46577e-186
2.50488e-185
1.11929e-184
4.90384e-184
2.12129e-183
9.13332e-183
3.94564e-182
1.72118e-181
7.60294e-181
3.39485e-180
1.52323e-179
6.80858e-179
3.00255e-178
1.29396e-177
5.40091e-177
2.16518e-176
8.27009e-176
2.98552e-175
1.01016e-174
3.17483e-174
9.17713e-174
2.41266e-173
5.69564e-173
1.18987e-172
2.16392e-172
3.36683e-172
4.40981e-172
4.81082e-172
4.37384e-172
3.37502e-172
2.28546e-172
1.37602e-172
7.46791e-173
3.70457e-173
1.7022e-173