/*--------------------------------*- C++ -*----------------------------------*\
  =========                 |
  \\      /  F ield         | OpenFOAM: The Open Source CFD Toolbox
   \\    /   O peration     | Website:  https://openfoam.org
    \\  /    A nd           | Version:  9
     \\/     M anipulation  |
\*---------------------------------------------------------------------------*/
FoamFile
{
    format      ascii;
    class       surfaceScalarField;
    location    "0.02";
    object      alphaPhi0.water;
}
// * * * * * * * * * * * * * * * * * * * * * * * * * * * * * * * * * * * * * //

dimensions      [0 3 -1 0 0 0 0];

internalField   nonuniform List<scalar> 
39700
(
6.3622e-272
7.88015e-272
2.85428e-271
3.70558e-271
1.24935e-270
1.7002e-270
5.6237e-270
8.02197e-270
2.61073e-269
3.90336e-269
1.25027e-268
1.95917e-268
6.17713e-268
1.01443e-267
3.1488e-267
5.41903e-267
1.65616e-266
2.9867e-266
8.98816e-266
1.69843e-265
5.03338e-265
9.96535e-265
2.90847e-264
6.03288e-264
1.73409e-263
3.76814e-263
1.06673e-262
2.42813e-262
6.76981e-262
1.61407e-261
4.43185e-261
1.10668e-260
2.99236e-260
7.82536e-260
2.08342e-259
5.70535e-259
1.49546e-258
4.28796e-258
1.10632e-257
3.32113e-257
8.43241e-257
2.64997e-256
6.61949e-256
2.17746e-255
5.34948e-255
1.84171e-254
4.44842e-254
1.60267e-253
3.80437e-253
1.43415e-252
3.34427e-252
1.31895e-251
3.01998e-251
1.24589e-250
2.79977e-250
1.20804e-249
2.66309e-249
1.20158e-248
2.59744e-248
1.22532e-247
2.6064e-247
1.49907e-246
3.03227e-246
1.7368e-245
3.46152e-245
1.97443e-244
3.86895e-244
2.19765e-243
4.22995e-243
2.39268e-242
4.51917e-242
2.54561e-241
4.71305e-241
2.64374e-240
4.79263e-240
2.67717e-239
4.74626e-239
2.64026e-238
4.57171e-238
2.53268e-237
4.27724e-237
2.35986e-236
3.88127e-236
2.13276e-235
3.41062e-235
1.86671e-234
2.89748e-234
1.5797e-233
2.37551e-233
1.29023e-232
1.87591e-232
1.01516e-231
1.42394e-231
7.67869e-231
1.03664e-230
5.57151e-230
7.22071e-230
3.86863e-229
4.79969e-229
2.56403e-228
3.036e-228
1.61755e-227
1.82187e-227
9.68372e-227
1.03372e-226
5.48322e-226
5.52534e-226
2.92585e-225
2.77096e-225
1.46538e-224
1.29798e-224
6.85795e-224
5.65095e-224
2.98431e-223
2.27394e-223
1.20089e-222
8.40519e-223
4.44108e-222
2.8339e-222
1.49888e-221
8.64668e-222
4.58039e-221
2.36606e-221
1.25598e-220
5.74706e-221
3.05877e-220
1.22467e-220
6.53883e-220
2.25932e-220
1.21079e-219
3.55548e-220
1.9135e-219
4.69815e-220
2.54046e-219
5.13429e-220
2.79081e-219
4.59208e-220
2.51027e-219
3.37139e-220
1.85422e-219
2.10583e-220
9.51936e-220
1.1508e-220
4.98601e-220
5.61134e-221
2.32997e-220
2.48441e-221
9.88513e-221
1.01417e-221
3.86621e-221
3.86737e-222
1.41233e-221
1.39304e-222
4.87252e-222
4.78478e-223
1.60267e-222
1.57985e-223
5.06649e-223
5.04931e-224
1.55008e-223
1.57149e-224
4.61723e-224
4.78751e-225
1.346e-224
1.43415e-225
3.85759e-225
4.24128e-226
1.09125e-225
1.24262e-226
3.05768e-226
3.61796e-227
8.51279e-227
1.04972e-227
2.36136e-227
3.04255e-228
6.54232e-228
8.82886e-229
1.81442e-228
2.56999e-229
5.04704e-229
7.51771e-230
1.41058e-229
2.21338e-230
3.96747e-230
6.56843e-231
1.12462e-230
1.96726e-231
3.2169e-231
5.95331e-232
9.29636e-232
1.82221e-232
2.71698e-232
5.64622e-233
8.03785e-233
1.77155e-233
2.40762e-233
5.60278e-234
7.26843e-234
2.10104e-234
2.85741e-269
3.5395e-269
1.28119e-268
1.66348e-268
5.60443e-268
7.62763e-268
2.52117e-267
3.59666e-267
1.1697e-266
1.74899e-266
5.59818e-266
8.77303e-266
2.76416e-265
4.53973e-265
1.40817e-264
2.42359e-264
7.40194e-264
1.33493e-263
4.01468e-263
7.58661e-263
2.24687e-262
4.44865e-262
1.29755e-261
2.69152e-261
7.73168e-261
1.68012e-260
4.75341e-260
1.08201e-259
3.01495e-259
7.18835e-259
1.97264e-258
4.92588e-258
1.33119e-257
3.48117e-257
9.26354e-257
2.53671e-256
6.6459e-256
1.90552e-255
4.91415e-255
1.47514e-254
3.74386e-254
1.17647e-253
2.93766e-253
9.66252e-253
2.37307e-252
8.16913e-252
1.97261e-251
7.10605e-251
1.68643e-250
6.35655e-250
1.48202e-249
5.84402e-249
1.33795e-248
5.51874e-248
1.24012e-247
5.3498e-247
1.17939e-246
5.32022e-246
1.15019e-245
5.4246e-245
1.15411e-244
6.63607e-244
1.34273e-243
7.68843e-243
1.53297e-242
8.74111e-242
1.71375e-241
9.73097e-241
1.87419e-240
1.05973e-239
2.0031e-239
1.12787e-238
2.09004e-238
1.17187e-237
2.12656e-237
1.18736e-236
2.10743e-236
1.17176e-235
2.03154e-235
1.12488e-234
1.9024e-234
1.04906e-233
1.72803e-233
9.49052e-233
1.52021e-232
8.31593e-232
1.29309e-231
7.04608e-231
1.0616e-230
5.76281e-230
8.39576e-230
4.54097e-229
6.38318e-229
3.44038e-228
4.65505e-228
2.50064e-227
3.24848e-227
1.73961e-226
2.16357e-226
1.1553e-225
1.37144e-225
7.30401e-225
8.24825e-225
4.38268e-224
4.69112e-224
2.48765e-223
2.51378e-223
1.33085e-222
1.26403e-222
6.6837e-222
5.93781e-222
3.1371e-221
2.59292e-221
1.36939e-220
1.04676e-220
5.52873e-220
3.88254e-220
2.05187e-219
1.31392e-219
6.9516e-219
4.02515e-219
2.13308e-218
1.10626e-218
5.87523e-218
2.6999e-218
1.43778e-217
5.7833e-218
3.08979e-217
1.07295e-217
5.75399e-217
1.69873e-217
9.149e-217
2.25902e-217
1.22247e-216
2.48487e-217
1.35174e-216
2.2367e-217
1.22365e-216
1.65193e-217
9.09239e-217
1.03688e-217
4.69068e-217
5.69213e-218
2.46797e-217
2.78734e-218
1.15815e-217
1.23906e-218
4.9332e-218
5.07755e-219
1.93679e-218
1.94343e-219
7.10104e-219
7.02554e-220
2.45856e-219
2.42158e-220
8.11468e-220
8.02306e-221
2.57397e-220
2.57286e-221
7.9011e-221
8.03394e-222
2.36117e-221
2.45548e-222
6.90529e-222
7.37919e-223
1.98528e-222
2.18915e-223
5.6335e-223
6.4337e-224
1.58335e-223
1.87893e-224
4.42145e-224
5.46796e-225
1.23011e-224
1.58953e-225
3.41809e-225
4.62591e-226
9.50691e-226
1.3504e-226
2.65196e-226
3.96125e-227
7.4325e-227
1.16948e-227
2.09621e-227
3.47991e-228
5.95785e-228
1.04499e-228
1.70868e-228
3.17049e-229
4.95052e-229
9.72875e-230
1.45049e-229
3.02191e-230
4.30159e-230
9.50421e-231
1.29154e-230
3.01274e-231
3.90794e-231
1.13187e-231
1.0548e-266
1.30674e-266
4.7279e-266
6.13943e-266
2.0675e-265
2.81421e-265
9.29775e-265
1.32656e-264
4.31235e-264
6.44881e-264
2.06327e-263
3.23379e-263
1.01847e-262
1.67288e-262
5.187e-262
8.92833e-262
2.72577e-261
4.91645e-261
1.47802e-260
2.79334e-260
8.26988e-260
1.63755e-259
4.77466e-259
9.90509e-259
2.84445e-258
6.18162e-258
1.7484e-257
3.98016e-257
1.10875e-256
2.64371e-256
7.2532e-256
1.81131e-255
4.89395e-255
1.27987e-254
3.40519e-254
9.32508e-254
2.44273e-253
7.00403e-253
1.80609e-252
5.42163e-252
1.37591e-251
4.32368e-251
1.07962e-250
3.55103e-250
8.72146e-250
3.00223e-249
7.25013e-249
2.61166e-248
6.19896e-248
2.3364e-247
5.44839e-247
2.1483e-246
4.91974e-246
2.02909e-245
4.56117e-245
1.96743e-244
4.33913e-244
1.95712e-243
4.23329e-243
1.99622e-242
4.24963e-242
2.44307e-241
4.94681e-241
2.83194e-240
5.65122e-240
3.2216e-239
6.32211e-239
3.58888e-238
6.91955e-238
3.91144e-237
7.40213e-237
4.16655e-236
7.73109e-236
4.33333e-235
7.87483e-235
4.39531e-234
7.81339e-234
4.34273e-233
7.54191e-233
4.1744e-232
7.07258e-232
3.89852e-231
6.43426e-231
3.53228e-230
5.66984e-230
3.10023e-229
4.83139e-229
2.63151e-228
3.97403e-228
2.15636e-227
3.14932e-227
1.70264e-226
2.39958e-226
1.29278e-225
1.75397e-225
9.41843e-225
1.22697e-224
6.56825e-224
8.19308e-224
4.37345e-223
5.20757e-223
2.77264e-222
3.14102e-222
1.66856e-221
1.79187e-221
9.50023e-221
9.63275e-221
5.0991e-220
4.86021e-220
2.56971e-219
2.29134e-219
1.21057e-218
1.00441e-218
5.30491e-218
4.07135e-218
2.15069e-217
1.5167e-217
8.01729e-217
5.15682e-217
2.72912e-216
1.58774e-216
8.41709e-216
4.38749e-216
2.33114e-215
1.07711e-215
5.73871e-215
2.32192e-215
1.24118e-214
4.33731e-215
2.32734e-214
6.91714e-215
3.72767e-214
9.26876e-215
5.01891e-214
1.02742e-214
5.59255e-214
9.31772e-215
5.10066e-214
6.92956e-215
3.81633e-214
4.37441e-215
1.98002e-214
2.41414e-215
1.04725e-214
1.188e-215
4.93856e-215
5.30568e-216
2.11331e-215
2.18386e-216
8.33337e-216
8.39437e-217
3.06822e-216
3.04708e-217
1.06662e-216
1.05448e-217
3.53439e-217
3.50727e-218
1.12542e-217
1.12901e-218
3.46763e-218
3.53856e-219
1.04009e-218
1.08547e-219
3.05276e-219
3.27376e-220
8.80789e-220
9.74631e-221
2.50807e-220
2.87425e-221
7.07329e-221
8.42261e-222
1.98184e-221
2.45927e-222
5.532e-222
7.17245e-223
1.54216e-222
2.09405e-223
4.30294e-223
6.13218e-224
1.20406e-223
1.80435e-224
3.38488e-224
5.34306e-225
9.57513e-225
1.59457e-225
2.72944e-225
4.80219e-226
7.85037e-226
1.46109e-226
2.28087e-226
4.49575e-227
6.70121e-227
1.40021e-227
1.99264e-227
4.41535e-228
5.99842e-228
1.40314e-228
1.81952e-228
5.28129e-229
3.82237e-264
4.73627e-264
1.71273e-263
2.22448e-263
7.48723e-263
1.01932e-262
3.36597e-262
4.80328e-262
1.56066e-261
2.33427e-261
7.46476e-261
1.17017e-260
3.68363e-260
6.0516e-260
1.87551e-259
3.22885e-259
9.85303e-259
1.77749e-258
5.34128e-258
1.00963e-257
2.98781e-257
5.91722e-257
1.72461e-256
3.57828e-256
1.02718e-255
2.23263e-255
6.31248e-255
1.43721e-254
4.00231e-254
9.54439e-254
2.61776e-253
6.53804e-253
1.76601e-252
4.61905e-252
1.22863e-251
3.36495e-251
8.81271e-251
2.52712e-250
6.51539e-250
1.956e-249
4.96333e-249
1.5598e-248
3.89444e-248
1.28102e-247
3.14611e-247
1.08305e-246
2.61551e-246
9.42196e-246
2.23651e-245
8.42963e-245
1.966e-244
7.75194e-244
1.77559e-243
7.32307e-243
1.64658e-242
7.10215e-242
1.5669e-241
7.06693e-241
1.52924e-240
7.21062e-240
1.53582e-239
8.82835e-239
1.78873e-238
1.02388e-237
2.04468e-237
1.16544e-236
2.28901e-236
1.29918e-235
2.50729e-235
1.41702e-234
2.68451e-234
1.51073e-233
2.80654e-233
1.5727e-232
2.86179e-232
1.59687e-231
2.8428e-231
1.5796e-230
2.74756e-230
1.5203e-229
2.58018e-229
1.42178e-228
2.35086e-228
1.29015e-227
2.07494e-227
1.13419e-226
1.7712e-226
9.64394e-226
1.45963e-225
7.91748e-225
1.15905e-224
6.26417e-224
8.85012e-224
4.76653e-223
6.48376e-223
3.48059e-222
4.54668e-222
2.43325e-221
3.04386e-221
1.6244e-220
1.93999e-220
1.03267e-219
1.17353e-219
6.23287e-219
6.7153e-219
3.55988e-218
3.62182e-218
1.91706e-217
1.83374e-217
9.69519e-217
8.67716e-217
4.58449e-216
3.81868e-216
2.01706e-215
1.55443e-215
8.21256e-215
5.81699e-215
3.07553e-214
1.98746e-214
1.0521e-213
6.15151e-214
3.26217e-213
1.70958e-213
9.0867e-213
4.22287e-213
2.25084e-212
9.16403e-213
4.90084e-212
1.72412e-212
9.25584e-212
2.77063e-212
1.49384e-211
3.74217e-212
2.02735e-211
4.18171e-212
2.27733e-211
3.82242e-212
2.09342e-211
2.86367e-212
1.57779e-211
1.81886e-212
8.23604e-212
1.00954e-212
4.3809e-212
4.99473e-213
2.07696e-212
2.24208e-213
8.93273e-213
9.27377e-214
3.5395e-213
3.58149e-214
1.30928e-213
1.306e-214
4.5721e-214
4.53966e-215
1.52169e-214
1.51648e-215
4.8662e-215
4.90236e-216
1.50567e-215
1.5429e-216
4.53474e-216
4.75223e-217
1.33637e-216
1.439e-217
3.871e-217
4.30088e-218
1.10657e-217
1.27325e-218
3.13271e-218
3.74522e-219
8.81042e-219
1.09761e-219
2.46836e-219
3.21284e-220
6.90599e-220
9.41362e-221
1.93376e-220
2.76633e-221
5.42995e-221
8.16766e-222
1.5317e-221
2.42675e-222
4.34737e-222
7.26615e-223
1.2433e-222
2.1953e-223
3.58743e-223
6.70031e-224
1.04557e-223
2.06801e-224
3.08131e-224
6.46015e-225
9.18982e-225
2.04306e-225
2.77446e-225
6.5107e-226
8.43936e-226
2.4555e-226
1.38843e-261
1.72085e-261
6.21866e-261
8.07883e-261
2.7173e-260
3.70031e-260
1.22106e-259
1.74291e-259
5.65913e-259
8.46646e-259
2.70568e-258
4.24245e-258
1.33462e-257
2.1931e-257
6.79243e-257
1.16966e-256
3.56702e-256
6.43645e-256
1.93292e-255
3.65454e-255
1.08084e-254
2.14105e-254
6.23653e-254
1.29427e-253
3.71321e-253
8.07264e-253
2.28118e-252
5.19486e-252
1.44588e-251
3.44875e-251
9.45421e-251
2.36173e-250
6.37632e-250
1.66806e-249
4.43493e-249
1.21485e-248
3.18035e-248
9.12151e-248
2.35081e-247
7.05858e-247
1.7905e-246
5.62774e-246
1.4047e-245
4.62119e-245
1.13465e-244
3.90654e-244
9.43215e-244
3.39817e-243
8.06511e-243
3.04011e-242
7.08965e-242
2.79568e-241
6.40333e-241
2.6411e-240
5.93869e-240
2.56164e-239
5.65221e-239
2.5493e-238
5.51759e-238
2.60166e-237
5.54294e-237
3.1862e-236
6.45813e-236
3.69653e-235
7.38559e-235
4.20942e-234
8.27256e-234
4.69486e-233
9.06703e-233
5.12377e-232
9.71477e-232
5.46636e-231
1.01645e-230
5.69504e-230
1.03739e-229
5.78766e-229
1.03154e-228
5.73068e-228
9.98083e-228
5.52156e-227
9.38419e-227
5.16998e-226
8.56151e-226
4.69751e-225
7.5676e-225
4.13559e-224
6.46997e-224
3.52198e-223
5.34089e-223
2.89638e-222
4.24879e-222
2.29577e-221
3.25063e-221
1.75035e-220
2.38651e-220
1.28085e-219
1.6773e-219
8.97476e-219
1.12563e-218
6.00606e-218
7.19271e-218
3.82822e-217
4.36304e-217
2.31706e-216
2.50406e-216
1.32735e-215
1.35482e-215
7.17094e-215
6.88278e-215
3.63905e-214
3.26874e-214
1.72711e-213
1.44414e-213
7.62893e-213
5.90331e-213
3.11939e-212
2.21917e-212
1.17355e-211
7.61942e-212
4.03448e-211
2.3709e-211
1.25765e-210
6.62713e-211
3.52354e-210
1.64726e-210
8.78308e-210
3.59899e-210
1.92539e-209
6.82063e-210
3.66297e-209
1.1046e-209
5.95783e-209
1.50408e-209
8.15134e-209
1.69468e-209
9.2322e-209
1.56171e-209
8.55555e-209
1.17896e-209
6.49738e-209
7.53682e-210
3.4135e-209
4.20885e-210
1.82673e-209
2.09442e-210
8.7102e-210
9.45373e-211
3.76672e-210
3.93115e-211
1.50041e-210
1.52604e-211
5.57849e-211
5.59268e-212
1.95775e-211
1.95356e-212
6.54745e-212
6.55717e-213
2.10374e-212
2.1297e-213
6.53955e-213
6.7336e-214
1.97856e-213
2.08337e-214
5.85687e-214
6.33655e-215
1.70401e-214
1.90212e-215
4.89219e-215
5.65521e-216
1.39087e-215
1.67045e-216
3.92801e-216
4.91576e-217
1.105e-216
1.44473e-217
3.10403e-217
4.24988e-218
8.72601e-218
1.25375e-218
2.45974e-218
3.71585e-219
6.96491e-219
1.10817e-219
1.98419e-219
3.3302e-220
5.69528e-220
1.00975e-220
1.6492e-220
3.09264e-221
4.82345e-221
9.57788e-222
1.42634e-221
3.00199e-222
4.26818e-222
9.52485e-223
1.29279e-222
3.04478e-223
3.94469e-223
1.15086e-223
5.06037e-259
6.27405e-259
2.26529e-258
2.94387e-258
9.89286e-258
1.34761e-257
4.44303e-257
6.34392e-257
2.05802e-256
3.07995e-256
9.83416e-256
1.54248e-255
4.84823e-255
7.96939e-255
2.46615e-254
4.24809e-254
1.29441e-253
2.33641e-253
7.01059e-253
1.3259e-252
3.91814e-252
7.76391e-252
2.25968e-251
4.69095e-251
1.34475e-250
2.92441e-250
8.25746e-250
1.881e-249
5.23146e-249
1.24817e-248
3.41919e-248
8.54376e-248
2.30507e-247
6.03176e-247
1.6026e-246
4.39115e-246
1.14881e-245
3.29573e-245
8.48861e-245
2.54943e-244
6.46321e-244
2.03194e-243
5.06903e-243
1.66799e-242
4.09342e-242
1.40964e-241
3.40198e-241
1.22589e-240
2.90834e-240
1.09649e-239
2.55617e-239
1.00815e-238
2.30845e-238
9.52287e-238
2.1408e-237
9.2356e-237
2.03751e-236
9.19082e-236
1.98907e-235
9.37984e-235
1.99843e-234
1.14884e-233
2.32884e-233
1.33307e-232
2.66399e-232
1.5184e-231
2.98495e-231
1.69405e-230
3.27301e-230
1.84957e-229
3.50862e-229
1.97421e-228
3.67327e-228
2.058e-227
3.75156e-227
2.09288e-226
3.73336e-226
2.07389e-225
3.61551e-225
1.99998e-224
3.4028e-224
1.8745e-223
3.10796e-223
1.70508e-222
2.75056e-222
1.50296e-221
2.35481e-221
1.2817e-220
1.94676e-220
1.05561e-219
1.55121e-219
8.38071e-219
1.18889e-218
6.401e-218
8.74514e-218
4.69307e-217
6.15909e-217
3.29525e-216
4.1426e-216
2.21022e-215
2.65352e-215
1.41222e-214
1.61382e-214
8.57017e-214
9.28824e-214
4.92349e-213
5.04069e-213
2.66807e-212
2.56921e-212
1.35847e-211
1.22449e-211
6.47047e-211
5.43069e-211
2.86921e-210
2.22919e-210
1.17812e-209
8.41795e-210
4.45241e-209
2.90449e-209
1.53825e-208
9.08621e-209
4.82092e-208
2.55459e-208
1.35857e-207
6.39003e-208
3.40799e-207
1.40572e-207
7.52227e-207
2.6838e-207
1.44167e-206
4.38075e-207
2.36337e-206
6.01448e-207
3.2602e-206
6.83405e-207
3.72364e-206
6.35057e-207
3.47948e-206
4.83228e-207
2.6633e-206
3.11032e-207
1.40872e-206
1.74822e-207
7.58738e-207
8.7536e-208
3.6401e-207
3.97479e-208
1.58348e-207
1.6624e-208
6.34369e-208
6.48958e-209
2.37171e-208
2.39137e-209
8.36867e-209
8.39803e-210
2.81369e-209
2.83364e-210
9.08772e-210
9.25087e-211
2.8394e-210
2.93971e-211
8.63388e-211
9.14069e-212
2.56839e-211
2.79372e-212
7.50882e-212
8.42653e-213
2.16606e-212
2.51712e-213
6.1871e-213
7.46958e-214
1.75538e-213
2.20813e-214
4.96049e-214
6.51863e-215
1.39963e-214
1.92595e-215
3.95182e-215
5.70613e-216
1.11874e-215
1.6983e-216
3.18109e-216
5.0857e-217
9.09976e-217
1.53451e-217
2.62248e-217
4.67119e-218
7.62402e-218
1.43623e-218
2.23846e-218
4.46486e-219
6.64441e-219
1.40461e-219
1.99566e-219
4.47271e-220
6.06651e-220
1.43474e-220
1.85752e-220
5.43578e-221
1.84855e-256
2.29283e-256
8.26968e-256
1.07513e-255
3.60904e-255
4.91821e-255
1.61976e-254
2.31368e-254
7.49766e-254
1.12252e-253
3.5803e-253
5.61791e-253
1.76389e-252
2.9006e-252
8.9664e-252
1.54513e-251
4.70308e-251
8.49244e-251
2.54555e-250
4.81622e-250
1.42176e-249
2.81835e-249
8.19438e-249
1.70175e-248
4.87348e-248
1.06023e-247
2.99072e-247
6.81521e-247
1.89361e-246
4.51962e-246
1.2369e-245
3.09184e-245
8.33388e-245
2.18152e-244
5.79092e-244
1.58727e-243
4.14895e-243
1.19066e-242
3.0641e-242
9.20558e-242
2.33185e-241
7.33335e-241
1.828e-240
6.017e-240
1.47553e-239
5.08278e-239
1.2258e-238
4.41839e-238
1.04754e-237
3.95049e-237
9.20396e-237
3.63098e-236
8.30961e-236
3.42874e-235
7.70428e-235
3.32446e-234
7.33114e-234
3.30766e-233
7.15589e-233
3.37518e-232
7.18907e-232
4.13352e-231
8.37769e-231
4.79632e-230
9.58408e-230
5.46344e-229
1.07404e-228
6.09625e-228
1.17795e-227
6.65729e-227
1.26314e-226
7.108e-226
1.32294e-225
7.41248e-225
1.3518e-224
7.54172e-224
1.34603e-223
7.47755e-223
1.30444e-222
7.21591e-222
1.22867e-221
6.76845e-221
1.12323e-220
6.16225e-220
9.95079e-220
5.4373e-219
8.52885e-219
4.64213e-218
7.05999e-218
3.82814e-217
5.63348e-217
3.04356e-216
4.3244e-216
2.32825e-215
3.18639e-215
1.70996e-214
2.24837e-214
1.20293e-213
1.51537e-213
8.08516e-213
9.72853e-213
5.17774e-212
5.93123e-212
3.14992e-211
3.42284e-211
1.81448e-210
1.86298e-210
9.86167e-210
9.52569e-210
5.0372e-209
4.55572e-209
2.40762e-208
2.02812e-208
1.07167e-207
8.35937e-208
4.41855e-207
3.17091e-207
1.67743e-206
1.09946e-206
5.82385e-206
3.45796e-206
1.83503e-205
9.77911e-206
5.20158e-205
2.46179e-205
1.31316e-204
5.45324e-205
2.91856e-204
1.04894e-204
5.63533e-204
1.72588e-204
9.31181e-204
2.38944e-204
1.29528e-203
2.73847e-204
1.4921e-203
2.5666e-204
1.40616e-203
1.96904e-204
1.0851e-203
1.2765e-204
5.78045e-204
7.22427e-205
3.13463e-204
3.64127e-205
1.51374e-204
1.664e-205
6.62675e-205
7.00281e-206
2.67118e-205
2.75033e-206
1.00469e-205
1.01951e-206
3.566e-206
3.6012e-207
1.20589e-206
1.22206e-207
3.91693e-207
4.01206e-208
1.23066e-207
1.28199e-208
3.76266e-208
4.00787e-209
1.12536e-208
1.2315e-209
3.30753e-209
3.73402e-210
9.59111e-210
1.12117e-210
2.75368e-210
3.34398e-211
7.85217e-211
9.9347e-212
2.22996e-211
2.94721e-212
6.32274e-212
8.74951e-213
1.79378e-212
2.60452e-213
5.10202e-213
7.78771e-214
1.45745e-213
2.34269e-214
4.18808e-214
7.10012e-215
1.21235e-214
2.17078e-215
3.5399e-215
6.70299e-216
1.04378e-215
2.09252e-216
3.11126e-216
6.6099e-217
9.38308e-217
2.11324e-217
2.86378e-217
6.80493e-218
8.80259e-218
2.58471e-218
6.75888e-254
8.38742e-254
3.02135e-253
3.92989e-253
1.31751e-252
1.7963e-252
5.90833e-252
8.44355e-252
2.73267e-251
4.0932e-251
1.30386e-250
2.04689e-250
6.41852e-250
1.05598e-249
3.26012e-249
5.62066e-249
1.70865e-248
3.0868e-248
9.2408e-248
1.74919e-247
5.1572e-247
1.02278e-246
2.97007e-246
6.17088e-246
1.76505e-245
3.84162e-245
1.08234e-244
2.46753e-244
6.84783e-244
1.63515e-243
4.4697e-243
1.11777e-242
3.00939e-242
7.88097e-242
2.08964e-241
5.73008e-241
1.49611e-240
4.29532e-240
1.10418e-239
3.31869e-239
8.39762e-239
2.642e-238
6.57902e-238
2.16639e-237
5.30731e-237
1.82892e-236
4.40655e-236
1.58894e-235
3.76374e-235
1.4199e-234
3.30527e-234
1.3044e-233
2.98273e-233
1.23116e-232
2.7643e-232
1.19321e-231
2.62945e-231
1.18673e-230
2.56579e-230
1.21056e-229
2.57704e-229
1.48215e-228
3.00257e-228
1.71946e-227
3.43454e-227
1.95836e-226
3.84874e-226
2.18505e-225
4.22125e-225
2.38617e-224
4.52704e-224
2.54796e-223
4.74228e-223
2.65758e-222
4.8471e-222
2.70465e-221
4.82824e-221
2.68261e-220
4.68128e-220
2.58995e-219
4.41193e-219
2.43073e-218
4.03611e-218
2.21454e-217
3.57854e-217
1.95559e-216
3.07005e-216
1.67115e-215
2.54404e-215
1.37959e-214
2.03247e-214
1.09817e-213
1.5623e-213
8.41214e-213
1.15292e-212
6.18767e-212
8.14901e-212
4.36032e-211
5.50267e-211
2.93621e-210
3.54003e-210
1.88428e-209
2.16323e-209
1.14896e-208
1.25154e-208
6.63533e-208
6.83088e-208
3.61638e-207
3.50344e-207
1.85288e-206
1.68119e-206
8.88606e-206
7.51208e-206
3.96999e-205
3.10888e-205
1.64352e-204
1.18454e-204
6.26719e-204
4.12734e-204
2.18656e-203
1.30509e-203
6.92657e-203
3.71255e-203
1.97494e-202
9.40612e-203
5.01778e-202
2.09819e-202
1.12299e-201
4.06642e-202
2.18465e-201
6.74481e-202
3.63893e-201
9.41755e-202
5.10461e-201
1.08879e-201
5.93147e-201
1.02943e-201
5.63861e-201
7.96471e-202
4.38787e-201
5.20233e-202
2.35494e-201
2.96568e-202
1.28626e-201
1.50535e-202
6.25491e-202
6.92647e-203
2.75688e-202
2.93451e-203
1.11867e-202
1.1601e-203
4.235e-203
4.32809e-204
1.51278e-203
1.5385e-204
5.14787e-204
5.2535e-205
1.68249e-204
1.73533e-205
5.31847e-205
5.57853e-206
1.63587e-205
1.7544e-206
4.92165e-206
5.42234e-207
1.45496e-206
1.65359e-207
4.24329e-207
4.99322e-208
1.22517e-207
1.49759e-208
3.51303e-208
4.47363e-209
1.00314e-208
1.33429e-209
2.85955e-209
3.98217e-210
8.15551e-210
1.19157e-210
2.33171e-210
3.58106e-211
6.69478e-211
1.08265e-211
1.93342e-211
3.29737e-212
5.62427e-212
1.01299e-212
1.65013e-212
3.14273e-213
4.88861e-213
9.8563e-214
1.46393e-213
3.12757e-214
4.43504e-214
1.00435e-214
1.35962e-214
3.24798e-215
4.19706e-215
1.23705e-215
2.4702e-251
3.06714e-251
1.10326e-250
1.43583e-250
4.80651e-250
6.55692e-250
2.15345e-249
3.07922e-249
9.9507e-249
1.49133e-248
4.74342e-248
7.45073e-248
2.33288e-247
3.84023e-247
1.18383e-246
2.04213e-246
6.19875e-246
1.12047e-245
3.34935e-245
6.34348e-245
1.86752e-244
3.70573e-244
1.07454e-243
2.23377e-243
6.37996e-243
1.38934e-242
3.90872e-242
8.91593e-242
2.4708e-241
5.90302e-241
1.61132e-240
4.03166e-240
1.08394e-239
2.84009e-239
7.52019e-239
2.06319e-238
5.37969e-238
1.54528e-237
3.96711e-237
1.19294e-236
3.0147e-236
9.48932e-236
2.35999e-235
7.77492e-235
1.90238e-234
6.55877e-234
1.57836e-233
5.69397e-233
1.34717e-232
5.08461e-232
1.18228e-231
4.66786e-231
1.06624e-230
4.40299e-230
9.87584e-230
4.26471e-229
9.38901e-229
4.2392e-228
9.15722e-228
4.32214e-227
9.19339e-227
5.28945e-226
1.07075e-225
6.13401e-225
1.22443e-224
6.98403e-224
1.37176e-223
7.79053e-223
1.50429e-222
8.50609e-222
1.61312e-221
9.0819e-221
1.68981e-220
9.47246e-220
1.7273e-219
9.64085e-219
1.72088e-218
9.56383e-218
1.66895e-217
9.23587e-217
1.57352e-216
8.67126e-216
1.44018e-215
7.9038e-215
1.27768e-214
6.98373e-214
1.09693e-213
5.97228e-213
9.09776e-213
4.93453e-212
7.27567e-212
3.9319e-211
5.59913e-211
3.0154e-210
4.13747e-210
2.22098e-209
2.92886e-209
1.56744e-208
1.98111e-208
1.05731e-207
1.27695e-207
6.79817e-207
7.81995e-207
4.15417e-206
4.53507e-206
2.4048e-205
2.48184e-205
1.31415e-204
1.27666e-204
6.75304e-204
6.14638e-204
3.24923e-203
2.75636e-203
1.4569e-202
1.1453e-202
6.05545e-202
4.38311e-202
2.31929e-201
1.53467e-201
8.13104e-201
4.87878e-201
2.5895e-200
1.39602e-200
7.42652e-200
3.55975e-200
1.89896e-199
7.99633e-200
4.27954e-199
1.5615e-199
8.38807e-199
2.61105e-199
1.40845e-198
3.67699e-199
1.99255e-198
4.28882e-199
2.3357e-198
4.09137e-199
2.24012e-198
3.19324e-199
1.75834e-198
2.10217e-199
9.51058e-199
1.20758e-199
5.23417e-199
6.17538e-200
2.56417e-199
2.86223e-200
1.13836e-199
1.22132e-200
4.65204e-200
4.8623e-201
1.77346e-200
1.8266e-201
6.37858e-201
6.53736e-202
2.1853e-201
2.24732e-202
7.18999e-202
7.47253e-203
2.28778e-202
2.41786e-203
7.08253e-203
7.65285e-204
2.14447e-203
2.38026e-204
6.37955e-204
7.30408e-205
1.87211e-204
2.21909e-205
5.43843e-205
6.69575e-206
1.56879e-205
2.01205e-206
4.50617e-206
6.03611e-207
1.29202e-206
1.81179e-207
3.70596e-207
5.45188e-208
1.06552e-207
1.64754e-208
3.07621e-208
5.008e-209
8.93215e-209
1.53339e-209
2.61219e-209
4.7354e-210
7.70408e-210
1.47665e-210
2.2941e-210
4.65442e-211
6.90442e-211
1.48421e-211
2.10207e-211
4.78924e-212
6.47532e-212
1.55602e-212
2.00822e-212
5.94358e-213
9.00383e-249
1.1187e-248
4.01731e-248
5.23173e-248
1.74837e-247
2.38663e-247
7.82487e-247
1.1196e-246
3.61186e-246
5.41667e-246
1.71991e-245
2.70329e-245
8.44966e-245
1.39182e-244
4.2832e-244
7.39337e-244
2.24037e-243
4.05221e-243
1.20923e-242
2.29167e-242
6.7352e-242
1.33731e-241
3.87117e-241
8.05252e-241
2.29603e-240
5.00311e-240
1.40518e-239
3.20726e-239
8.87318e-239
2.12121e-238
5.78055e-238
1.44722e-237
3.88455e-237
1.01843e-236
2.69227e-236
7.39078e-236
1.924e-235
5.52986e-235
1.41738e-234
4.26468e-234
1.07604e-233
3.38899e-233
8.41536e-233
2.774e-232
6.77712e-232
2.33785e-231
5.6176e-231
2.0277e-230
4.79046e-230
1.80905e-229
4.20045e-229
1.65931e-228
3.785e-228
1.56382e-227
3.50294e-227
1.51347e-226
3.32771e-226
1.50325e-225
3.24321e-225
1.53153e-224
3.25382e-224
1.873e-223
3.78735e-223
2.17068e-222
4.32845e-222
2.47004e-221
4.84685e-221
2.75383e-220
5.31273e-220
3.00539e-219
5.69492e-219
3.20757e-218
5.96382e-218
3.34443e-217
6.09472e-217
3.40304e-216
6.07112e-216
3.3753e-215
5.88752e-215
3.25929e-214
5.55098e-214
3.06007e-213
5.08121e-213
2.78954e-212
4.50888e-212
2.46533e-211
3.87233e-211
2.10896e-210
3.21309e-210
1.74328e-209
2.57106e-209
1.38986e-208
1.98003e-208
1.06665e-207
1.4644e-207
7.863e-207
1.03768e-206
5.55486e-206
7.02728e-206
3.75139e-205
4.53571e-205
2.4153e-204
2.78196e-204
1.47821e-203
1.61621e-203
8.57217e-203
8.86235e-203
4.69369e-202
4.56897e-202
2.41729e-201
2.20517e-201
1.16595e-200
9.91654e-201
5.24228e-200
4.13308e-200
2.18553e-199
1.58712e-199
8.39889e-199
5.57782e-199
2.95541e-198
1.78051e-198
9.45041e-198
5.1178e-198
2.72243e-197
1.31146e-197
6.99529e-197
2.96191e-197
1.58491e-196
5.81817e-197
3.12466e-196
9.79171e-197
5.28018e-196
1.38866e-196
7.52213e-196
1.63225e-196
8.88499e-196
1.57022e-196
8.5924e-196
1.2365e-196
6.8042e-196
8.21054e-197
3.71181e-196
4.75794e-197
2.0606e-196
2.45457e-197
1.01829e-196
1.14762e-197
4.55995e-197
4.93937e-198
1.87949e-197
1.98324e-198
7.22581e-198
7.51297e-199
2.6206e-198
2.71108e-199
9.05188e-199
9.39536e-200
3.00225e-199
3.14891e-200
9.62852e-200
1.02684e-200
3.00398e-200
3.27497e-201
9.16492e-201
1.02626e-201
2.74685e-201
3.17235e-202
8.11989e-202
9.70756e-203
2.37576e-202
2.9498e-203
6.90153e-203
8.92536e-204
1.99607e-203
2.69574e-204
5.76189e-204
8.14522e-205
1.66367e-204
2.46691e-205
4.81435e-205
7.50236e-206
1.39877e-205
2.29469e-206
4.08679e-206
7.0689e-207
1.20246e-206
2.19605e-207
3.56759e-207
6.88803e-208
1.06856e-207
2.18354e-208
3.23441e-208
7.00197e-209
9.90248e-209
2.27176e-209
3.06714e-209
7.41986e-210
9.56251e-210
2.84342e-210
2.92758e-246
3.64015e-246
1.30353e-245
1.69883e-245
5.66017e-245
7.73218e-245
2.52725e-244
3.61871e-244
1.16371e-243
1.74648e-243
5.52745e-243
8.69423e-243
2.70853e-242
4.46475e-242
1.36931e-241
2.36533e-241
7.14257e-241
1.29283e-240
3.84421e-240
7.29061e-240
2.13486e-239
4.24194e-239
1.22332e-238
2.54649e-238
7.23286e-238
1.57718e-237
4.4122e-237
1.00777e-236
2.77677e-236
6.64277e-236
1.80268e-235
4.51636e-235
1.20705e-234
3.16678e-234
8.33457e-234
2.28957e-233
5.93324e-233
1.70647e-232
4.35345e-232
1.31078e-231
3.29133e-231
1.0373e-230
2.56298e-230
8.45411e-230
2.05482e-229
7.09303e-229
1.69535e-228
6.12344e-228
1.43875e-227
5.43672e-227
1.2552e-226
4.96159e-226
1.12513e-225
4.65152e-225
1.03558e-224
4.47707e-224
9.78148e-224
4.42134e-223
9.47601e-223
4.47751e-222
9.4474e-222
5.44141e-221
1.09225e-220
6.26371e-220
1.23953e-219
7.07737e-219
1.37776e-218
7.8323e-218
1.49851e-217
8.48155e-217
1.59326e-216
8.97844e-216
1.65421e-215
9.28129e-215
1.67526e-214
9.35862e-214
1.65287e-213
9.19375e-213
1.58673e-212
8.78816e-212
1.48005e-211
8.16277e-211
1.33944e-210
7.35665e-210
1.17424e-209
6.42318e-209
9.95503e-209
5.42404e-208
8.14699e-208
4.422e-207
6.42347e-207
3.47376e-206
4.86908e-206
2.62399e-205
3.54031e-205
1.90165e-204
2.46312e-204
1.31901e-203
1.63538e-203
8.73316e-203
1.03321e-202
5.5037e-202
6.19199e-202
3.29114e-201
3.50794e-201
1.86109e-200
1.87164e-200
9.9151e-200
9.36587e-200
4.95627e-199
4.3758e-199
2.31408e-198
1.8992e-198
1.00415e-197
7.61515e-198
4.02725e-197
2.8035e-197
1.48368e-196
9.4116e-197
4.98677e-196
2.85927e-196
1.51754e-195
7.79477e-196
4.14595e-195
1.88906e-195
1.00742e-194
4.02848e-195
2.15504e-194
7.4763e-195
4.01372e-194
1.19349e-194
6.43297e-194
1.61949e-194
8.76767e-194
1.84733e-194
1.00493e-193
1.75768e-194
9.61096e-194
1.39721e-194
7.68198e-194
9.51382e-195
4.29696e-194
5.71678e-195
2.47334e-194
3.08112e-195
1.27681e-194
1.5119e-195
6.00038e-195
6.84586e-196
2.60172e-195
2.89414e-196
1.0531e-195
1.15405e-196
4.02004e-196
4.37909e-197
1.46007e-196
1.59342e-197
5.0844e-197
5.5973e-198
1.70898e-197
1.90929e-198
5.57712e-198
6.35695e-199
1.77624e-198
2.07532e-199
5.54604e-199
6.67004e-200
1.70454e-199
2.11801e-200
5.17515e-200
6.66606e-201
1.5571e-200
2.08538e-201
4.65612e-201
6.50104e-202
1.38725e-201
2.0242e-202
4.12761e-202
6.30801e-203
1.22901e-202
1.97107e-203
3.66884e-203
6.18602e-204
1.09989e-203
1.95286e-204
3.31642e-204
6.20981e-205
1.00714e-204
1.99143e-205
3.08424e-205
6.44774e-206
9.53505e-206
2.10965e-206
2.97864e-206
6.97695e-207
9.40424e-207
2.31983e-207
2.98485e-207
9.00928e-208
5.67889e-244
7.067e-244
2.51704e-243
3.28308e-243
1.08733e-242
1.48659e-242
4.82873e-242
6.91987e-242
2.211e-241
3.32099e-241
1.04408e-240
1.64361e-240
5.08521e-240
8.38934e-240
2.55469e-239
4.41656e-239
1.32387e-238
2.39821e-238
7.07687e-238
1.34323e-237
3.90239e-237
7.76027e-237
2.21978e-236
4.62444e-236
1.30245e-235
2.84237e-235
7.88239e-235
1.80183e-234
4.91997e-234
1.17792e-233
3.16681e-233
7.94029e-233
2.10169e-232
5.51826e-232
1.43787e-231
3.95302e-231
1.01383e-230
2.91817e-230
7.36533e-230
2.21933e-229
5.51125e-229
1.73827e-228
4.24595e-228
1.40161e-227
3.3665e-227
1.16296e-226
2.74572e-226
9.92467e-226
2.30238e-225
8.70668e-225
1.98382e-224
7.84743e-224
1.75537e-223
7.26235e-223
1.59407e-222
6.89648e-222
1.48472e-221
6.71586e-221
1.41754e-220
6.70272e-220
1.39199e-219
8.02297e-219
1.58352e-218
9.08715e-218
1.76723e-217
1.00971e-216
1.93053e-216
1.09819e-215
2.06231e-215
1.16802e-214
2.15219e-214
1.21359e-213
2.19172e-213
1.23048e-212
2.17552e-212
1.21607e-211
2.10223e-211
1.17002e-210
1.97499e-210
1.09449e-209
1.80139e-209
9.9407e-209
1.59279e-208
8.75304e-208
1.36308e-207