/*--------------------------------*- C++ -*----------------------------------*\
  =========                 |
  \\      /  F ield         | OpenFOAM: The Open Source CFD Toolbox
   \\    /   O peration     | Website:  https://openfoam.org
    \\  /    A nd           | Version:  9
     \\/     M anipulation  |
\*---------------------------------------------------------------------------*/
FoamFile
{
    format      ascii;
    class       volScalarField;
    location    "0.02";
    object      p;
}
// * * * * * * * * * * * * * * * * * * * * * * * * * * * * * * * * * * * * * //

dimensions      [1 -1 -2 0 0 0 0];

internalField   nonuniform List<scalar> 
20000
(
0.605109
0.605099
0.605094
0.605092
0.60509
0.605088
0.605086
0.605084
0.605082
0.605079
0.605076
0.605071
0.605065
0.605058
0.605049
0.605037
0.605024
0.605007
0.604988
0.604964
0.604937
0.604905
0.604868
0.604825
0.604775
0.604717
0.604651
0.604575
0.604488
0.604389
0.604267
0.60412
0.603961
0.603791
0.603608
0.603413
0.603208
0.602991
0.602765
0.60253
0.602287
0.602038
0.601784
0.601526
0.601267
0.60101
0.600755
0.600507
0.600269
0.600043
0.599834
0.599644
0.599477
0.599338
0.59923
0.599156
0.59912
0.599124
0.59917
0.59926
0.599394
0.599572
0.599792
0.600053
0.60035
0.600679
0.601035
0.601412
0.601804
0.602203
0.602566
0.60288
0.603171
0.603437
0.603679
0.603898
0.604094
0.604267
0.604421
0.604555
0.604672
0.604772
0.604859
0.604932
0.604994
0.605045
0.605087
0.60512
0.605147
0.605167
0.605181
0.605191
0.605197
0.605198
0.605197
0.605192
0.605184
0.605173
0.605157
0.605134
0.603144
0.603131
0.603125
0.603123
0.603122
0.603122
0.603124
0.603126
0.603129
0.603133
0.603136
0.60314
0.603144
0.603147
0.603149
0.60315
0.60315
0.603148
0.603145
0.603139
0.603131
0.603119
0.603104
0.603085
0.60306
0.60303
0.602993
0.602948
0.602895
0.602832
0.602751
0.602651
0.602539
0.602416
0.602281
0.602136
0.60198
0.601815
0.60164
0.601457
0.601266
0.60107
0.600869
0.600664
0.600459
0.600254
0.600052
0.599855
0.599667
0.599489
0.599324
0.599175
0.599047
0.598942
0.598863
0.598814
0.598796
0.598813
0.598865
0.598954
0.599079
0.59924
0.599436
0.599663
0.599919
0.600201
0.600501
0.600817
0.60114
0.601466
0.601757
0.602005
0.60223
0.602433
0.602613
0.602772
0.602909
0.603027
0.603127
0.60321
0.603278
0.603333
0.603376
0.603409
0.603433
0.603448
0.603456
0.603458
0.603455
0.603448
0.603436
0.603421
0.603402
0.603381
0.603357
0.60333
0.6033
0.603266
0.603227
0.603182
0.601191
0.601191
0.601194
0.601198
0.601203
0.601209
0.601217
0.601225
0.601235
0.601245
0.601256
0.601268
0.60128
0.601292
0.601305
0.601317
0.601329
0.60134
0.60135
0.601359
0.601367
0.601373
0.601376
0.601377
0.601374
0.601366
0.601354
0.601337
0.601312
0.60128
0.601235
0.601174
0.601101
0.601018
0.600925
0.600821
0.600706
0.600583
0.600451
0.600311
0.600163
0.60001
0.599852
0.59969
0.599527
0.599363
0.599202
0.599045
0.598894
0.598751
0.598619
0.598499
0.598395
0.598311
0.59825
0.598214
0.598204
0.598223
0.598272
0.598351
0.598461
0.598601
0.598768
0.598962
0.599177
0.599412
0.599661
0.599919
0.600182
0.600441
0.600669
0.600858
0.601027
0.601175
0.601301
0.601407
0.601494
0.601564
0.601618
0.601657
0.601684
0.6017
0.601707
0.601705
0.601696
0.601682
0.601663
0.601639
0.601613
0.601583
0.601552
0.601518
0.601483
0.601447
0.60141
0.601371
0.601332
0.601293
0.601253
0.601213
0.599234
0.599243
0.599254
0.599266
0.599279
0.599293
0.599308
0.599324
0.599341
0.599359
0.599379
0.599399
0.59942
0.599442
0.599465
0.599489
0.599512
0.599536
0.599561
0.599585
0.599608
0.599631
0.599653
0.599673
0.599692
0.599707
0.59972
0.599728
0.599732
0.599729
0.599718
0.599696
0.599663
0.599619
0.599566
0.599502
0.599429
0.599347
0.599256
0.599157
0.599052
0.59894
0.598824
0.598703
0.598581
0.598457
0.598334
0.598214
0.598099
0.59799
0.597887
0.597794
0.597714
0.59765
0.597604
0.597579
0.597576
0.597597
0.597642
0.597712
0.597807
0.597926
0.598066
0.598227
0.598405
0.598596
0.598796
0.599
0.599204
0.599402
0.59957
0.599706
0.599821
0.599916
0.599992
0.600048
0.600088
0.600111
0.600121
0.600118
0.600105
0.600083
0.600054
0.600019
0.599979
0.599935
0.599888
0.599839
0.599789
0.599738
0.599687
0.599635
0.599584
0.599534
0.599484
0.599435
0.599387
0.599341
0.599296
0.599253
0.597277
0.597294
0.597313
0.597333
0.597354
0.597376
0.597399
0.597424
0.59745
0.597477
0.597506
0.597536
0.597568
0.597601
0.597635
0.597671
0.597708
0.597746
0.597785
0.597825
0.597865
0.597907
0.597948
0.597989
0.59803
0.59807
0.598108
0.598143
0.598176
0.598205
0.59823
0.598247
0.598255
0.598252
0.59824
0.598219
0.598188
0.598148
0.598101
0.598045
0.597982
0.597914
0.59784
0.597761
0.59768
0.597597
0.597513
0.597431
0.597352
0.597276
0.597204
0.597137
0.59708
0.597035
0.597005
0.596991
0.596995
0.597017
0.597058
0.597119
0.597198
0.597296
0.597409
0.597537
0.597676
0.597823
0.597974
0.598124
0.598269
0.598405
0.598513
0.598594
0.598655
0.598697
0.598721
0.598728
0.598718
0.598695
0.59866
0.598615
0.598561
0.5985
0.598433
0.598363
0.59829
0.598215
0.59814
0.598064
0.597989
0.597916
0.597843
0.597773
0.597704
0.597638
0.597574
0.597513
0.597455
0.597399
0.597346
0.597294
0.595319
0.595344
0.59537
0.595398
0.595427
0.595457
0.595489
0.595523
0.595558
0.595595
0.595634
0.595675
0.595717
0.595762
0.595809
0.595857
0.595908
0.59596
0.596015
0.596071
0.59613
0.59619
0.596251
0.596314
0.596378
0.596442
0.596507
0.596571
0.596634
0.596694
0.596756
0.596814
0.596863
0.596903
0.596933
0.596954
0.596966
0.59697
0.596965
0.596953
0.596933
0.596907
0.596876
0.596839
0.596799
0.596756
0.596711
0.596666
0.596623
0.59658
0.596538
0.596498
0.596463
0.596438
0.596422
0.596419
0.596429
0.596452
0.59649
0.596541
0.596606
0.596682
0.59677
0.596865
0.596967
0.59707
0.597173
0.59727
0.597357
0.59743
0.597479
0.597505
0.597512
0.597502
0.597474
0.597431
0.597374
0.597304
0.597225
0.597136
0.597041
0.596941
0.596838
0.596732
0.596626
0.59652
0.596415
0.596312
0.596211
0.596113
0.596019
0.595928
0.595841
0.595758
0.595679
0.595603
0.595532
0.595464
0.595399
0.595337
0.593361
0.593393
0.593427
0.593462
0.593499
0.593537
0.593578
0.593621
0.593665
0.593712
0.593761
0.593813
0.593867
0.593923
0.593982
0.594044
0.594109
0.594176
0.594247
0.59432
0.594396
0.594475
0.594557
0.594642
0.594729
0.594818
0.594909
0.595001
0.595094
0.595186
0.595285
0.595384
0.595474
0.595555
0.595627
0.59569
0.595745
0.595791
0.595829
0.595859
0.595882
0.595898
0.595907
0.595912
0.595911
0.595907
0.5959
0.595891
0.595882
0.595872
0.595858
0.595843
0.59583
0.595823
0.595822
0.595829
0.595845
0.595869
0.595903
0.595946
0.595996
0.596053
0.596115
0.596181
0.596246
0.596308
0.596364
0.59641
0.596442
0.596455
0.596446
0.596419
0.596374
0.596313
0.596236
0.596145
0.596041
0.595927
0.595803
0.595673
0.595538
0.5954
0.59526
0.595119
0.59498
0.594843
0.594708
0.594577
0.59445
0.594328
0.594211
0.594099
0.593992
0.59389
0.593794
0.593702
0.593616
0.593534
0.593456
0.593381
0.591403
0.591442
0.591483
0.591526
0.591571
0.591618
0.591667
0.591719
0.591773
0.59183
0.591889
0.591952
0.592017
0.592086
0.592158
0.592233
0.592312
0.592395
0.592481
0.592571
0.592666
0.592764
0.592866
0.592973
0.593083
0.593197
0.593314
0.593434
0.593557
0.593681
0.593816
0.593955
0.594086
0.594208
0.594322
0.594426
0.594522
0.59461
0.59469
0.594762
0.594826
0.594883
0.594933
0.594976
0.595015
0.595048
0.595078
0.595104
0.595128
0.595148
0.595162
0.595172
0.59518
0.59519
0.595203
0.59522
0.595242
0.595268
0.595298
0.595333
0.59537
0.595409
0.595447
0.595483
0.595514
0.595537
0.595549
0.595546
0.595524
0.59548
0.595414
0.595336
0.595241
0.595131
0.595006
0.594868
0.594719
0.594562
0.594396
0.594226
0.594052
0.593876
0.5937
0.593526
0.593353
0.593184
0.59302
0.592861
0.592708
0.59256
0.592419
0.592285
0.592157
0.592035
0.591919
0.59181
0.591707
0.591608
0.591515
0.591426
0.589444
0.589491
0.58954
0.58959
0.589643
0.589698
0.589757
0.589818
0.589881
0.589948
0.590019
0.590092
0.59017
0.590251
0.590336
0.590425
0.590518
0.590616
0.590719
0.590827
0.590939
0.591057
0.59118
0.591309
0.591442
0.591581
0.591725
0.591873
0.592025
0.592181
0.592352
0.592532
0.592703
0.592866
0.593021
0.593167
0.593304
0.593433
0.593554
0.593667
0.593771
0.593868
0.593958
0.59404
0.594117
0.594187
0.594252
0.594312
0.594368
0.594419
0.59446
0.594493
0.594522
0.594549
0.594576
0.594604
0.594632
0.59466
0.594687
0.594714
0.594739
0.594761
0.594777
0.594785
0.594783
0.594768
0.594737
0.594687
0.594613
0.594512
0.594392
0.594264
0.59412
0.593961
0.593789
0.593606
0.593413
0.593213
0.593007
0.592797
0.592585
0.592372
0.592161
0.591952
0.591747
0.591546
0.591352
0.591164
0.590983
0.59081
0.590644
0.590485
0.590334
0.590191
0.590055
0.589926
0.589804
0.589688
0.589577
0.589472
0.587486
0.58754
0.587596
0.587654
0.587715
0.587779
0.587846
0.587917
0.587991
0.588068
0.588149
0.588234
0.588324
0.588417
0.588516
0.588619
0.588728
0.588841
0.588961
0.589086
0.589217
0.589355
0.589499
0.58965
0.589807
0.589971
0.590141
0.590318
0.5905
0.590687
0.590895
0.591115
0.591326
0.59153
0.591725
0.591912
0.592091
0.592261
0.592422
0.592575
0.59272
0.592857
0.592985
0.593106
0.593219
0.593325
0.593425
0.593519
0.593607
0.593686
0.593755
0.593811
0.593861
0.593906
0.593947
0.593985
0.59402
0.594051
0.594077
0.594097
0.594111
0.594116
0.594111
0.594093
0.59406
0.594008
0.593936
0.593838
0.593714
0.593558
0.593384
0.593206
0.593014
0.592807
0.592589
0.592361
0.592124
0.591882
0.591635
0.591386
0.591136
0.590887
0.590641
0.590398
0.59016
0.589928
0.589703
0.589486
0.589277
0.589076
0.588884
0.588701
0.588526
0.588359
0.588201
0.588051
0.587908
0.587772
0.587642
0.587518
0.585528
0.58559
0.585653
0.585719
0.585788
0.585861
0.585937
0.586017
0.586101
0.586189
0.586281
0.586378
0.586479
0.586586
0.586698
0.586816
0.58694
0.58707
0.587206
0.587349
0.5875
0.587658
0.587823
0.587996
0.588178
0.588367
0.588564
0.588769
0.588981
0.5892
0.589443
0.589703
0.589955
0.590199
0.590435
0.590662
0.590882
0.591092
0.591294
0.591487
0.591671
0.591846
0.592013
0.592171
0.592321
0.592462
0.592596
0.592723
0.592842
0.592951
0.593046
0.593126
0.593196
0.59326
0.593316
0.593366
0.593408
0.593442
0.593467
0.593483
0.593486
0.593477
0.593452
0.593409
0.593345
0.593258
0.593145
0.593003
0.592828
0.592618
0.592391
0.592164
0.591923
0.591669
0.591405
0.591132
0.590853
0.590568
0.590282
0.589994
0.589706
0.589421
0.58914
0.588863
0.588593
0.588329
0.588074
0.587827
0.587589
0.58736
0.587141
0.586931
0.586731
0.586539
0.586357
0.586184
0.586018
0.58586
0.585709
0.585566
0.583569
0.583639
0.58371
0.583784
0.583861
0.583943
0.584028
0.584118
0.584212
0.58431
0.584414
0.584523
0.584637
0.584757
0.584883
0.585015
0.585155
0.585301
0.585455
0.585616
0.585786
0.585964
0.586151
0.586347
0.586553
0.586767
0.586991
0.587224
0.587466
0.587717
0.587996
0.588296
0.588587
0.588871
0.589148
0.589415
0.589674
0.589925
0.590166
0.590398
0.590621
0.590835
0.591039
0.591234
0.59142
0.591596
0.591764
0.591923
0.592072
0.59221
0.592332
0.592437
0.592529
0.592611
0.592683
0.592745
0.592796
0.592835
0.592861
0.592872
0.592867
0.592844
0.5928
0.592734
0.592642
0.592521
0.592369
0.592182
0.591958
0.591694
0.591414
0.591139
0.59085
0.590549
0.590239
0.589921
0.589598
0.589273
0.588946
0.588619
0.588295
0.587974
0.587657
0.587347
0.587044
0.586749
0.586462
0.586185
0.585918
0.58566
0.585413
0.585175
0.584948
0.584731
0.584523
0.584324
0.584135
0.583953
0.583779
0.583614
0.581611
0.581688
0.581767
0.581849
0.581935
0.582025
0.58212
0.58222
0.582324
0.582433
0.582549
0.582669
0.582796
0.58293
0.58307
0.583217
0.583372
0.583535
0.583707
0.583887
0.584076
0.584275
0.584484
0.584703
0.584933
0.585173
0.585424
0.585685
0.585957
0.586238
0.586553
0.586892
0.587223
0.587547
0.587863
0.58817
0.588469
0.588758
0.589039
0.58931
0.589571
0.589822
0.590063
0.590295
0.590516
0.590727
0.590928
0.591119
0.591299
0.591466
0.591615
0.591744
0.591859
0.591961
0.59205
0.592126
0.592187
0.592232
0.59226
0.592269
0.592257
0.592222
0.592161
0.592072
0.591952
0.591799
0.591609
0.591379
0.591107
0.59079
0.590458
0.590134
0.589797
0.589449
0.589092
0.58873
0.588364
0.587996
0.587629
0.587264
0.586902
0.586545
0.586194
0.58585
0.585514
0.585187
0.584869
0.584561
0.584263
0.583976
0.5837
0.583434
0.583178
0.582933
0.582698
0.582473
0.582257
0.58205
0.581852
0.581663
0.579653
0.579737
0.579824
0.579914
0.580009
0.580109
0.580213
0.580322
0.580437
0.580558
0.580685
0.580818
0.580958
0.581105
0.58126
0.581422
0.581593
0.581773
0.581962
0.582161
0.582371
0.582591
0.582821
0.583064
0.583317
0.583583
0.583861
0.58415
0.584451
0.584764
0.585114
0.585492
0.585862
0.586225
0.58658
0.586926
0.587264
0.587592
0.587911
0.58822
0.588519
0.588807
0.589086
0.589353
0.58961
0.589855
0.590089
0.590312
0.590522
0.590718
0.590895
0.591051
0.591189
0.591313
0.59142
0.591511
0.591584
0.591637
0.591668
0.591676
0.591659
0.591613
0.591537
0.591427
0.591281
0.591096
0.590869
0.590597
0.590278
0.589909
0.589525
0.589153
0.588767
0.588372
0.587969
0.587561
0.587151
0.586741
0.586333
0.585929
0.585529
0.585136
0.584749
0.584371
0.584002
0.583642
0.583292
0.582953
0.582625
0.582307
0.582001
0.581705
0.58142
0.581146
0.580883
0.580629
0.580386
0.580152
0.579926
0.579713
0.577694
0.577787
0.577881
0.57798
0.578084
0.578193
0.578307
0.578426
0.578552
0.578684
0.578823
0.578968
0.579121
0.579282
0.579452
0.57963
0.579817
0.580014
0.580222
0.58044
0.580669
0.58091
0.581163
0.581428
0.581707
0.581998
0.582302
0.58262
0.58295
0.583293
0.583678
0.584094
0.584503
0.584904
0.585298
0.585683
0.586059
0.586425
0.586782
0.587129
0.587465
0.587791
0.588105
0.588409
0.588701
0.58898
0.589248
0.589503
0.589744
0.589969
0.590174
0.590358
0.590522
0.590668
0.590796
0.590903
0.590989
0.591052
0.591088
0.591097
0.591075
0.591021
0.59093
0.590801
0.59063
0.590415
0.590153
0.58984
0.589474
0.589053
0.588618
0.588198
0.587764
0.58732
0.58687
0.586417
0.585963
0.58551
0.58506
0.584615
0.584177
0.583746
0.583324
0.582911
0.582508
0.582115
0.581733
0.581361
0.581001
0.580652
0.580315
0.579988
0.579673
0.579369
0.579075
0.578792
0.57852
0.578257
0.578003
0.577763
0.575736
0.575837
0.575939
0.576047
0.57616
0.576278
0.576402
0.576532
0.576668
0.576812
0.576962
0.577121
0.577287
0.577462
0.577647
0.57784
0.578044
0.578259
0.578484
0.578722
0.578971
0.579233
0.579509
0.579797
0.5801
0.580417
0.580747
0.581093
0.581452
0.581826
0.582245
0.582699
0.583145
0.583584
0.584016
0.584438
0.584852
0.585257
0.585651
0.586035
0.586409
0.586771
0.587122
0.587462
0.587789
0.588103
0.588405
0.588692
0.588964
0.58922
0.589455
0.589667
0.589858
0.590029
0.590178
0.590304
0.590405
0.590479
0.590523
0.590534
0.59051
0.590448
0.590344
0.590197
0.590003
0.589759
0.589462
0.58911
0.588698
0.588226
0.58774
0.587272
0.58679
0.586298
0.585801
0.585301
0.584801
0.584304
0.583811
0.583325
0.582847
0.582378
0.581919
0.58147
0.581031
0.580604
0.580188
0.579784
0.579391
0.57901
0.578641
0.578282
0.577935
0.5776
0.577275
0.576961
0.576658
0.576365
0.576082
0.575814
0.573777
0.573886
0.573998
0.574114
0.574236
0.574364
0.574498
0.574638
0.574786
0.574941
0.575104
0.575275
0.575455
0.575645
0.575844
0.576054
0.576274
0.576506
0.57675
0.577007
0.577277
0.57756
0.577858
0.57817
0.578497
0.578839
0.579196
0.579569
0.579957
0.58036
0.580813
0.581304
0.581788
0.582264
0.582733
0.583193
0.583644
0.584086
0.584517
0.584939
0.585349
0.585749
0.586137
0.586512
0.586875
0.587225
0.58756
0.587881
0.588185
0.588472
0.588738
0.58898
0.5892
0.589397
0.58957
0.589717
0.589835
0.589921
0.589973
0.589988
0.589964
0.589896
0.589782
0.589618
0.589402
0.589131
0.5888
0.588409
0.587953
0.587431
0.586895
0.586379
0.585849
0.585308
0.584763
0.584215
0.583668
0.583126
0.582589
0.582061
0.581541
0.581032
0.580534
0.580047
0.579573
0.57911
0.578659
0.578221
0.577794
0.577379
0.576977
0.576586
0.576206
0.575838
0.575481
0.575135
0.5748
0.574476
0.574162
0.573866
0.571819
0.571936
0.572056
0.572182
0.572313
0.572451
0.572595
0.572746
0.572905
0.573072
0.573248
0.573432
0.573626
0.57383
0.574044
0.57427
0.574508
0.574757
0.57502
0.575296
0.575586
0.575891
0.576211
0.576546
0.576897
0.577264
0.577647
0.578047
0.578463
0.578896
0.579382
0.579909
0.580429
0.580943
0.581448
0.581945
0.582433
0.582911
0.58338
0.583839
0.584287
0.584723
0.585148
0.585561
0.58596
0.586345
0.586716
0.587071
0.587409
0.587728
0.588026
0.5883
0.588551
0.588776
0.588974
0.589143
0.589279
0.58938
0.589442
0.589463
0.589439
0.589367
0.589244
0.589066
0.588829
0.588531
0.588169
0.58774
0.587241
0.58667
0.586084
0.585521
0.584942
0.584353
0.583759
0.583163
0.582568
0.581979
0.581397
0.580823
0.580261
0.57971
0.579171
0.578645
0.578132
0.577632
0.577145
0.57667
0.576208
0.575759
0.575321
0.574896
0.574483
0.574081
0.573691
0.573313
0.572945
0.572589
0.572244
0.571918
0.56986
0.569986
0.570115
0.57025
0.570391
0.570539
0.570694
0.570856
0.571026
0.571205
0.571393
0.571591
0.571799
0.572018
0.572248
0.572489
0.572744
0.573011
0.573293
0.573589
0.573899
0.574225
0.574567
0.574925
0.5753
0.575692
0.576101
0.576527
0.576971
0.577432
0.57795
0.578513
0.57907
0.579619
0.58016
0.580693
0.581218
0.581734
0.58224
0.582736
0.583221
0.583695
0.584158
0.584608
0.585044
0.585466
0.585873
0.586263
0.586636
0.586989
0.58732
0.587629
0.587911
0.588166
0.588392
0.588584
0.58874
0.588857
0.588932
0.58896
0.588939
0.588864
0.588733
0.588541
0.588286
0.587963
0.587571
0.587105
0.586564
0.585945
0.58531
0.5847
0.584074
0.583436
0.582792
0.582147
0.581503
0.580866
0.580236
0.579616
0.579008
0.578413
0.577831
0.577264
0.57671
0.57617
0.575644
0.575131
0.574632
0.574146
0.573673
0.573212
0.572764
0.572328
0.571904
0.571492
0.571091
0.570703
0.570325
0.56997
0.567901
0.568036
0.568174
0.568319
0.56847
0.568628
0.568793
0.568967
0.569149
0.56934
0.569541
0.569752
0.569974
0.570208
0.570453
0.570712
0.570983
0.571269
0.571569
0.571884
0.572215
0.572562
0.572926
0.573307
0.573705
0.574121
0.574555
0.575008
0.575478
0.575967
0.576518
0.577116
0.577707
0.578292
0.578869
0.579438
0.579999
0.580552
0.581095
0.581629
0.582152
0.582665
0.583165
0.583654
0.584129
0.584589
0.585033
0.585461
0.585869
0.586257
0.586624
0.586968
0.587284
0.587571
0.587825
0.588042
0.58822
0.588355
0.588443
0.58848
0.588463
0.588388
0.58825
0.588047
0.587774
0.587429
0.587007
0.586507
0.585925
0.585259
0.584575
0.583919
0.583245
0.582558
0.581864
0.581169
0.580476
0.579788
0.579109
0.578441
0.577785
0.577143
0.576516
0.575904
0.575306
0.574724
0.574157
0.573604
0.573065
0.572541
0.57203
0.571532
0.571047
0.570576
0.570117
0.569671
0.569237
0.568816
0.568407
0.568022
0.565943
0.566087
0.566234
0.566388
0.566549
0.566718
0.566894
0.567079
0.567274
0.567477
0.567691
0.567916
0.568152
0.568401
0.568662
0.568937
0.569225
0.569529
0.569847
0.570182
0.570533
0.570901
0.571286
0.57169
0.572111
0.572551
0.57301
0.573488
0.573985
0.574502
0.575083
0.575715
0.576341
0.576961
0.577573
0.578179
0.578776
0.579366
0.579947
0.580519
0.581081
0.581632
0.582173
0.582701
0.583215
0.583715
0.584199
0.584664
0.58511
0.585536
0.58594
0.58632
0.586672
0.586991
0.587275
0.587519
0.58772
0.587875
0.587977
0.588025
0.588014
0.587939
0.587797
0.587584
0.587295
0.586928
0.586479
0.585945
0.585324
0.584612
0.583881
0.583179
0.582457
0.581721
0.580978
0.580231
0.579487
0.578748
0.578018
0.577299
0.576594
0.575902
0.575227
0.574567
0.573923
0.573295
0.572683
0.572087
0.571506
0.570941
0.57039
0.569854
0.569331
0.568823
0.568329
0.567848
0.567381
0.566928
0.566488
0.566073
0.563984
0.564137
0.564294
0.564458
0.56463
0.564809
0.564997
0.565194
0.5654
0.565616
0.565843
0.566082
0.566333
0.566596
0.566873
0.567164
0.56747
0.567791
0.568129
0.568482
0.568853
0.569242
0.569649
0.570074
0.570518
0.570982
0.571464
0.571967
0.57249
0.573033
0.573645
0.574311
0.574971
0.575625
0.576273
0.576915
0.577549
0.578176
0.578795
0.579406
0.580007
0.580599
0.58118
0.581749
0.582305
0.582846
0.58337
0.583876
0.584362
0.584826
0.585269
0.585687
0.586076
0.586429
0.586744
0.587017
0.587242
0.587417
0.587537
0.587597
0.587593
0.58752
0.587375
0.587154
0.586851
0.586464
0.585989
0.585423
0.584763
0.584006
0.583229
0.582482
0.581712
0.580928
0.580133
0.579335
0.578539
0.577747
0.576964
0.576193
0.575434
0.574691
0.573963
0.573253
0.572559
0.571882
0.571223
0.57058
0.569955
0.569345
0.568753
0.568176
0.567614
0.567069
0.566538
0.566023
0.565524
0.565039
0.564568
0.564125
0.562025
0.562188
0.562355
0.562529
0.562711
0.562901
0.563101
0.563309
0.563528
0.563757
0.563998
0.56425
0.564516
0.564794
0.565087
0.565395
0.565717
0.566056
0.566412
0.566785
0.567175
0.567584
0.568012
0.568458
0.568925
0.569411
0.569917
0.570444
0.570992
0.571561
0.572203
0.572902
0.573596
0.574285
0.574968
0.575646
0.576317
0.576982
0.57764
0.578291
0.578933
0.579566
0.580189
0.580801
0.581399
0.581983
0.58255
0.583098
0.583626
0.584131
0.584613
0.585071
0.585498
0.585887
0.586234
0.586536
0.586787
0.586984
0.587122
0.587196
0.587201
0.587133
0.586987
0.586759
0.586444
0.586038
0.585538
0.584941
0.584243
0.583443
0.58262
0.581828
0.581011
0.580177
0.579332
0.578481
0.577631
0.576785
0.575948
0.575121
0.574307
0.573509
0.572727
0.571962
0.571215
0.570486
0.569776
0.569084
0.56841
0.567755
0.567117
0.566498
0.565896
0.565312
0.564745
0.564196
0.563663
0.563147
0.562647
0.562176
0.560065
0.560238
0.560416
0.560601
0.560793
0.560995
0.561206
0.561427
0.561658
0.5619
0.562154
0.562421
0.562701
0.562995
0.563303
0.563627
0.563967
0.564323
0.564697
0.565088
0.565498
0.565927
0.566375
0.566842
0.56733
0.567838
0.568367
0.568918
0.56949
0.570085
0.570756
0.571488
0.572216
0.572939
0.573658
0.574372
0.575081
0.575785
0.576483
0.577174
0.577859
0.578535
0.579201
0.579857
0.5805
0.581128
0.581739
0.582332
0.582903
0.58345
0.583975
0.584474
0.584939
0.585364
0.585745
0.586078
0.586357
0.586577
0.586735
0.586824
0.58684
0.586778
0.586633
0.5864
0.586074
0.585651
0.585128
0.584501
0.583767
0.582923
0.582055
0.581218
0.580354
0.57947
0.578573
0.577669
0.576764
0.575862
0.574968
0.574084
0.573212
0.572356
0.571516
0.570694
0.56989
0.569106
0.568342
0.567597
0.566873
0.566168
0.565485
0.564821
0.564177
0.563554
0.56295
0.562366
0.561801
0.561254
0.560726
0.560227
0.558106
0.558289
0.558477
0.558673
0.558877
0.55909
0.559312
0.559545
0.559789
0.560045
0.560313
0.560593
0.560888
0.561197
0.561521
0.561861
0.562218
0.562592
0.562983
0.563393
0.563821
0.564269
0.564737
0.565225
0.565733
0.566263
0.566814
0.567388
0.567984
0.568604
0.569304
0.570069
0.57083
0.571588
0.572343
0.573094
0.573841
0.574585
0.575323
0.576057
0.576785
0.577505
0.578217
0.578918
0.579607
0.580282
0.58094
0.581578
0.582194
0.582787
0.583355
0.583895
0.5844
0.584863
0.58528
0.585645
0.585953
0.586199
0.586378
0.586485
0.586514
0.586459
0.586316
0.58608
0.585745
0.585306
0.584761
0.584104
0.583334
0.582447
0.581534
0.580652
0.57974
0.578806
0.577856
0.576898
0.575936
0.574976
0.574023
0.573079
0.572147
0.57123
0.570329
0.569447
0.568584
0.567742
0.566921
0.566121
0.565343
0.564588
0.563856
0.563147
0.56246
0.561796
0.561155
0.560535
0.559938
0.559361
0.558804
0.558278
0.556146
0.55634
0.556538
0.556745
0.556961
0.557185
0.55742
0.557666
0.557922
0.558191
0.558473
0.558768
0.559077
0.559401
0.559741
0.560097
0.56047
0.560861
0.56127
0.561697
0.562144
0.562611
0.563098
0.563605
0.564134
0.564684
0.565257
0.565852
0.566472
0.567117
0.567846
0.568643
0.569439
0.570232
0.571022
0.571811
0.572598
0.573382
0.574163
0.57494
0.575712
0.576478
0.577236
0.577985
0.578722
0.579445
0.580151
0.580838
0.581501
0.58214
0.582753
0.583337
0.583883
0.584386
0.584839
0.585238
0.585577
0.58585
0.586053
0.586179
0.586223
0.586178
0.586039
0.585801
0.585457
0.585004
0.584437
0.583752
0.582946
0.582016
0.581057
0.58013
0.57917
0.578184
0.57718
0.576165
0.575145
0.574125
0.57311
0.572103
0.571109
0.570128
0.569165
0.56822
0.567296
0.566393
0.565512
0.564655
0.563823
0.563016
0.562234
0.561477
0.560747
0.560042
0.559362
0.558707
0.558076
0.557468
0.556882
0.55633
0.554186
0.55439
0.5546
0.554818
0.555045
0.555282
0.555529
0.555787
0.556057
0.556339
0.556634
0.556944
0.557267
0.557607
0.557962
0.558334
0.558723
0.55913
0.559556
0.560001
0.560466
0.56095
0.561456
0.561982
0.56253
0.563101
0.563694
0.564311
0.564954
0.565623
0.566381
0.567212
0.568041
0.56887
0.569698
0.570525
0.571352
0.572178
0.573002
0.573824
0.574642
0.575455
0.576262
0.577059
0.577845
0.578618
0.579374
0.580111
0.580824
0.581511
0.582171
0.582799
0.583389
0.583932
0.584424
0.584859
0.585231
0.585534
0.585763
0.58591
0.585971
0.585937
0.585804
0.585565
0.585214
0.584747
0.584159
0.583445
0.582603
0.58163
0.580625
0.579652
0.578641
0.577602
0.576542
0.575468
0.574387
0.573305
0.572226
0.571154
0.570094
0.569048
0.568019
0.56701
0.566022
0.565057
0.564116
0.563201
0.562313
0.561452
0.56062
0.559816
0.559041
0.558294
0.557575
0.556884
0.556219
0.555579
0.554963
0.554382
0.552226
0.552441
0.552662
0.552891
0.55313
0.553379
0.553639
0.553909
0.554192
0.554488
0.554797
0.555121
0.555459
0.555813
0.556183
0.556571
0.556976
0.557399
0.557842
0.558303
0.558785
0.559287
0.55981
0.560355
0.560922
0.561511
0.562125
0.562764
0.563429
0.564123
0.56491
0.565774
0.566638
0.567503
0.568369
0.569236
0.570104
0.570973
0.571842
0.57271
0.573575
0.574436
0.575292
0.57614
0.576978
0.577802
0.57861
0.579397
0.580162
0.580899
0.581607
0.582283
0.582917
0.583504
0.584036
0.58451
0.584917
0.585252
0.585509
0.58568
0.585759
0.585739
0.585613
0.585374
0.585018
0.584537
0.583928
0.583186
0.582307
0.58129
0.580237
0.579215
0.578153
0.577058
0.575939
0.574805
0.57366
0.572512
0.571367
0.570228
0.5691
0.567986
0.56689
0.565814
0.564761
0.563733
0.562732
0.561758
0.560814
0.5599
0.559017
0.558166
0.557346
0.556556
0.555798
0.555069
0.554368
0.553695
0.553047
0.552435
0.550265
0.550491
0.550723
0.550965
0.551216
0.551477
0.551749
0.552033
0.552329
0.552638
0.552961
0.553298
0.553651
0.55402
0.554405
0.554807
0.555228
0.555667
0.556125
0.556603
0.557101
0.55762
0.55816
0.558722
0.559307
0.559916
0.560549
0.561209
0.561897
0.562616
0.563432
0.56433
0.565229
0.566131
0.567036
0.567944
0.568854
0.569767
0.570682
0.571596
0.57251
0.573422
0.574328
0.575228
0.576118
0.576995
0.577856
0.578697
0.579514
0.580304
0.581063
0.581787
0.582469
0.583101
0.583677
0.584191
0.584637
0.585007
0.585294
0.585491
0.585591
0.585585
0.585468
0.585231
0.584869
0.584376
0.583745
0.582974
0.582058
0.580995
0.579892
0.57882
0.577704
0.576551
0.575371
0.574172
0.572961
0.571745
0.57053
0.569321
0.568122
0.566939
0.565774
0.564631
0.563512
0.562421
0.561359
0.560327
0.559328
0.558361
0.557429
0.55653
0.555665
0.554833
0.554033
0.553265
0.552527
0.551817
0.551134
0.550489
0.548304
0.548541
0.548785
0.549038
0.549301
0.549575
0.54986
0.550156
0.550465
0.550788
0.551125
0.551476
0.551843
0.552226
0.552626
0.553043
0.553479
0.553933
0.554406
0.5549
0.555414
0.555949
0.556505
0.557084
0.557687
0.558313
0.558966
0.559647
0.560358
0.561102
0.561947
0.562879
0.563815
0.564755
0.5657
0.566649
0.567603
0.568561
0.569522
0.570485
0.571448
0.572411
0.573369
0.574322
0.575265
0.576197
0.577113
0.578009
0.578881
0.579725
0.580537
0.581313
0.582044
0.582725
0.583347
0.583906
0.584392
0.5848
0.58512
0.585345
0.585467
0.585478
0.585371
0.585137
0.58477
0.584264
0.583612
0.582811
0.581856
0.580745
0.57959
0.578466
0.577292
0.576078
0.574834
0.573568
0.572287
0.571
0.569713
0.568431
0.56716
0.565905
0.56467
0.563459
0.562274
0.56112
0.559998
0.558909
0.557855
0.556837
0.555855
0.55491
0.554
0.553124
0.552283
0.551474
0.550696
0.549948
0.549227
0.548545
0.546343
0.546591
0.546846
0.547112
0.547387
0.547673
0.547971
0.54828
0.548602
0.548938
0.549289
0.549654
0.550034
0.550431
0.550845
0.551277
0.551727
0.552196
0.552684
0.553192
0.553721
0.554271
0.554844
0.555439
0.556058
0.556703
0.557375
0.558077
0.558811
0.55958
0.560456
0.561423
0.562396
0.563374
0.56436
0.565352
0.56635
0.567354
0.568362
0.569375
0.570389
0.571403
0.572414
0.573421
0.57442
0.575407
0.576379
0.577332
0.578261
0.579161
0.580029
0.580859
0.581643
0.582375
0.583048
0.583653
0.584184
0.584631
0.584987
0.585243
0.58539
0.58542
0.585323
0.585094
0.584723
0.584204
0.583531
0.582698
0.581703
0.580542
0.579332
0.578152
0.576918
0.57564
0.574328
0.572991
0.571639
0.570277
0.568915
0.567558
0.566213
0.564885
0.563579
0.562299
0.561049
0.559832
0.55865
0.557505
0.556398
0.55533
0.554299
0.553307
0.552351
0.551432
0.550547
0.549695
0.548875
0.548085
0.547323
0.546602
0.54438
0.54464
0.544907
0.545185
0.545473
0.545771
0.546081
0.546404
0.546739
0.547088
0.547452
0.54783
0.548225
0.548635
0.549063
0.549508
0.549972
0.550455
0.550957
0.55148
0.552023
0.552588
0.553175
0.553786
0.554422
0.555085
0.555776
0.556499
0.557256
0.558051
0.558958
0.559961
0.560971
0.56199
0.563016
0.564052
0.565095
0.566146
0.567203
0.568265
0.56933
0.570397
0.571463
0.572524
0.573579
0.574624
0.575653
0.576665
0.577653
0.578612
0.579538
0.580425
0.581266
0.582053
0.582778
0.583434
0.584012
0.584503
0.584897
0.585186
0.58536
0.58541
0.585327
0.585102
0.584728
0.584197
0.583502
0.582638
0.581601
0.580387
0.579119
0.57788
0.576582
0.575236
0.573853
0.572443
0.571015
0.569578
0.568139
0.566706
0.565285
0.563883
0.562506
0.561157
0.559842
0.558562
0.557321
0.55612
0.55496
0.55384
0.55276
0.55172
0.550718
0.549753
0.548823
0.547927
0.547062
0.546228
0.545423
0.54466
0.542418
0.542689
0.542968
0.543258
0.543558
0.543868
0.544191
0.544526
0.544875
0.545237
0.545613
0.546005
0.546413
0.546837
0.547278
0.547736
0.548213
0.548709
0.549225
0.549761
0.550318
0.550897
0.551499
0.552125
0.552778
0.553458
0.554169
0.554913
0.555694
0.556514
0.557453
0.558493
0.559542
0.560601
0.56167
0.562749
0.563838
0.564936
0.566042
0.567155
0.568272
0.569392
0.570513
0.57163
0.572743
0.573845
0.574935
0.576006
0.577056
0.578077
0.579064
0.580011
0.580912
0.581757
0.582539
0.583249
0.583877
0.584414
0.584849
0.585174
0.585378
0.585451
0.585383
0.585165
0.584789
0.584246
0.583529
0.582633
0.581552
0.580283
0.578953
0.577652
0.576287
0.57487
0.573413
0.571927
0.570421
0.568905
0.567388
0.565877
0.564381
0.562905
0.561456
0.560039
0.558658
0.557316
0.556016
0.554758
0.553542
0.55237
0.55124
0.55015
0.549099
0.548086
0.547108
0.546164
0.545254
0.544374
0.543525
0.542719