/*--------------------------------*- C++ -*----------------------------------*\
  =========                 |
  \\      /  F ield         | OpenFOAM: The Open Source CFD Toolbox
   \\    /   O peration     | Website:  https://openfoam.org
    \\  /    A nd           | Version:  9
     \\/     M anipulation  |
\*---------------------------------------------------------------------------*/
FoamFile
{
    format      ascii;
    class       volScalarField;
    location    "0.02";
    object      p_rgh;
}
// * * * * * * * * * * * * * * * * * * * * * * * * * * * * * * * * * * * * * //

dimensions      [1 -1 -2 0 0 0 0];

internalField   nonuniform List<scalar> 
20000
(
-8.08968e-06
-1.80969e-05
-2.24734e-05
-2.48233e-05
-2.67938e-05
-2.85823e-05
-3.03345e-05
-3.22216e-05
-3.44554e-05
-3.72606e-05
-4.08638e-05
-4.54936e-05
-5.13856e-05
-5.87902e-05
-6.79785e-05
-7.92473e-05
-9.29229e-05
-0.000109366
-0.000128977
-0.000152201
-0.000179536
-0.000211535
-0.000248821
-0.000292089
-0.000342115
-0.00039977
-0.000466024
-0.00054196
-0.000628772
-0.000727749
-0.000850007
-0.000996537
-0.00115526
-0.00132611
-0.00150891
-0.00170334
-0.00190896
-0.00212519
-0.00235126
-0.00258628
-0.00282913
-0.00307852
-0.0033329
-0.00359051
-0.00384934
-0.00410711
-0.0043613
-0.00460914
-0.00484756
-0.00507334
-0.00528302
-0.00547299
-0.00563946
-0.00577864
-0.00588686
-0.00596065
-0.00599687
-0.00599287
-0.00594656
-0.0058566
-0.00572247
-0.00554456
-0.00532425
-0.00506395
-0.00476706
-0.00443795
-0.00408187
-0.00370472
-0.00331295
-0.00291355
-0.00255027
-0.00223663
-0.00194603
-0.00167948
-0.00143714
-0.00121861
-0.00102304
-0.000849289
-0.000696019
-0.00056176
-0.000444992
-0.000344191
-0.000257867
-0.000184594
-0.000123021
-7.1887e-05
-3.00233e-05
3.64394e-06
3.00931e-05
5.02068e-05
6.47724e-05
7.44821e-05
7.99342e-05
8.1633e-05
7.99828e-05
7.52326e-05
6.73715e-05
5.59467e-05
4.00075e-05
1.75323e-05
-1.06507e-05
-2.38522e-05
-2.93433e-05
-3.1755e-05
-3.27651e-05
-3.24495e-05
-3.09578e-05
-2.85319e-05
-2.5429e-05
-2.18977e-05
-1.81749e-05
-1.44872e-05
-1.1057e-05
-8.11108e-06
-5.88709e-06
-4.63937e-06
-4.64331e-06
-6.20071e-06
-9.64626e-06
-1.53545e-05
-2.37473e-05
-3.53008e-05
-5.05542e-05
-7.01177e-05
-9.46814e-05
-0.000125022
-0.000162008
-0.000206606
-0.000259867
-0.00032291
-0.000403499
-0.000503676
-0.000615463
-0.000738715
-0.00087319
-0.00101855
-0.00117436
-0.00134002
-0.00151484
-0.00169796
-0.00188835
-0.00208484
-0.00228602
-0.00249033
-0.00269596
-0.00290089
-0.00310289
-0.0032995
-0.00348805
-0.003666
-0.00383081
-0.00397934
-0.00410791
-0.0042131
-0.00429177
-0.00434106
-0.00435842
-0.00434184
-0.00428966
-0.00420106
-0.00407585
-0.0039147
-0.00371912
-0.00349151
-0.00323514
-0.00295413
-0.00265329
-0.00233806
-0.00201438
-0.00168872
-0.00139725
-0.00114973
-0.000924283
-0.000721504
-0.000541306
-0.000383032
-0.000245635
-0.000127797
-2.80273e-05
5.52517e-05
0.00012363
0.000178657
0.000221811
0.00025447
0.000277903
0.000293262
0.000301586
0.000303797
0.000300706
0.000293013
0.000281312
0.000266083
0.000247693
0.000226367
0.000202253
0.000175264
0.000145087
0.000111077
7.23543e-05
2.76278e-05
-1.34235e-06
-1.63591e-06
1.08629e-06
5.09951e-06
1.0148e-05
1.64241e-05
2.39116e-05
3.25003e-05
4.20722e-05
5.24939e-05
6.36179e-05
7.52893e-05
8.73473e-05
9.96225e-05
0.000111934
0.000124088
0.000135874
0.000147058
0.00015738
0.000166541
0.0001742
0.00017996
0.000183368
0.000183897
0.000180945
0.000173823
0.000161758
0.000143885
0.000119254
8.68776e-05
4.18965e-05
-1.91041e-05
-9.12511e-05
-0.000174303
-0.000268032
-0.000372126
-0.000486167
-0.00060963
-0.000741866
-0.000882103
-0.00102943
-0.00118278
-0.00134093
-0.00150247
-0.00166582
-0.0018292
-0.00199063
-0.00214795
-0.00229883
-0.00244141
-0.0025741
-0.00269406
-0.0027975
-0.00288125
-0.00294259
-0.00297907
-0.00298861
-0.00296952
-0.00292056
-0.00284114
-0.00273132
-0.00259187
-0.00242434
-0.00223106
-0.00201516
-0.00178046
-0.00153145
-0.00127317
-0.00101112
-0.000751357
-0.000524014
-0.000334329
-0.000165514
-1.80838e-05
0.000108279
0.000214436
0.000301606
0.000371256
0.000425006
0.000464529
0.000491483
0.000507456
0.000513932
0.000512268
0.000503687
0.000489274
0.000469984
0.000446644
0.000419966
0.000390551
0.000358901
0.000325422
0.000290439
0.000254203
0.000216914
0.000178744
0.000139862
0.000100346
6.04015e-05
2.05277e-05
3.65813e-06
1.28284e-05
2.37121e-05
3.55079e-05
4.81882e-05
6.19715e-05
7.69108e-05
9.30096e-05
0.000110257
0.000128616
0.000148032
0.00016843
0.000189727
0.000211825
0.000234613
0.000257968
0.000281753
0.000305809
0.000329954
0.000353968
0.000377593
0.000400518
0.000422375
0.000442725
0.000461054
0.000476765
0.000489177
0.000497519
0.000500921
0.000498415
0.000487851
0.000465254
0.000432114
0.000388595
0.00033489
0.000271282
0.000198141
0.000115938
2.52446e-05
-7.32557e-05
-0.000178761
-0.000290342
-0.000406928
-0.000527293
-0.000650053
-0.000773652
-0.000896374
-0.00101633
-0.00113154
-0.00124078
-0.00134331
-0.00143661
-0.00151685
-0.00158099
-0.00162665
-0.00165178
-0.00165466
-0.00163393
-0.00158866
-0.00151852
-0.0014237
-0.00130512
-0.00116434
-0.00100365
-0.000826025
-0.000635072
-0.000434984
-0.000230444
-2.65261e-05
0.000171348
0.000339444
0.000475015
0.000590457
0.000685575
0.000760952
0.000817637
0.000857004
0.000880655
0.00089032
0.00088776
0.000874695
0.000852757
0.000823451
0.000788135
0.000748016
0.000704147
0.00065744
0.000608673
0.000558506
0.000507489
0.000456077
0.000404649
0.000353516
0.000302944
0.000253165
0.000204399
0.000156851
0.000110624
6.58213e-05
2.21603e-05
8.09284e-06
2.5478e-05
4.42492e-05
6.40836e-05
8.49732e-05
0.000107065
0.000130434
0.000155128
0.000181188
0.000208641
0.0002375
0.000267764
0.000299418
0.000332438
0.000366785
0.000402413
0.000439259
0.000477245
0.000516267
0.000556191
0.000596841
0.000637999
0.000679383
0.000720649
0.000761376
0.000801063
0.000839121
0.000874872
0.000907527
0.000936135
0.000961286
0.000978727
0.000986212
0.000983816
0.000971699
0.000950096
0.000919321
0.000879772
0.000831938
0.000776401
0.000713843
0.000645058
0.000570956
0.000492584
0.000411127
0.000327912
0.000244405
0.000162221
8.29936e-05
7.30472e-06
-6.48672e-05
-0.000131434
-0.000188548
-0.000233233
-0.000263405
-0.000277424
-0.000273906
-0.000251807
-0.000210523
-0.000149914
-7.03817e-05
2.70722e-05
0.000140831
0.000268656
0.000407697
0.000554541
0.000705278
0.000855567
0.00100074
0.00113603
0.00124443
0.00132517
0.00138651
0.00142863
0.00145234
0.00145889
0.00144976
0.00142669
0.00139147
0.00134595
0.00129188
0.00123095
0.00116468
0.00109445
0.00102147
0.000946792
0.000871309
0.000795775
0.000720817
0.000646948
0.00057458
0.000504041
0.000435593
0.00036944
0.000305742
0.000244624
0.000186171
0.000130337
7.71023e-05
2.56392e-05
1.21957e-05
3.72273e-05
6.34188e-05
9.09816e-05
0.000119928
0.000150361
0.000182358
0.000215983
0.000251303
0.000288382
0.000327276
0.000368032
0.000410695
0.000455303
0.000501885
0.000550465
0.000601055
0.000653653
0.000708234
0.000764748
0.000823107
0.000883181
0.000944782
0.00100766
0.00107149
0.00113587
0.00120031
0.00126421
0.00132689
0.00138748
0.00144942
0.00150781
0.00155668
0.00159612
0.00162626
0.00164727
0.00165939
0.00166296
0.00165836
0.00164606
0.00162664
0.00160073
0.0015691
0.00153263
0.0014923
0.00144922
0.00140462
0.00135985
0.00131622
0.0012737
0.00123144
0.0011911
0.00115662
0.00113095
0.00111587
0.00111265
0.00112237
0.00114573
0.00118308
0.00123435
0.00129893
0.00137573
0.00146308
0.00155877
0.00166004
0.00176366
0.00186596
0.00196291
0.00205021
0.00212348
0.00217215
0.00219821
0.00220576
0.00219526
0.00216771
0.00212451
0.00206726
0.00199776
0.00191789
0.00182952
0.00173445
0.00163439
0.0015309
0.00142537
0.00131903
0.00121295
0.001108
0.00100494
0.000904351
0.00080671
0.000712372
0.000621597
0.000534563
0.000451374
0.000372077
0.000296665
0.000225078
0.000157126
9.26226e-05
3.05229e-05
1.61286e-05
4.85933e-05
8.20441e-05
0.000117187
0.000154076
0.000192782
0.000233398
0.000276009
0.000320706
0.00036758
0.000416719
0.000468213
0.000522153
0.00057863
0.000637733
0.000699548
0.000764155
0.000831622
0.000902002
0.000975325
0.00105159
0.00113075
0.00121271
0.00129731
0.00138434
0.00147347
0.00156431
0.00165638
0.00174906
0.00184157
0.00194027
0.0020394
0.00212939
0.00221034
0.00228234
0.0023455
0.00239999
0.00244605
0.00248396
0.0025141
0.00253691
0.00255289
0.00256267
0.00256696
0.00256656
0.00256239
0.00255545
0.00254683
0.00253756
0.00252703
0.00251354
0.00249836
0.00248555
0.00247807
0.00247741
0.00248455
0.00250021
0.00252483
0.00255851
0.00260095
0.00265139
0.0027086
0.00277087
0.002836
0.0029013
0.00296367
0.00301965
0.00306549
0.00309716
0.00311058
0.00310125
0.00307433
0.00302985
0.00296846
0.00289137
0.00280008
0.00269631
0.00258189
0.00245873
0.00232872
0.00219368
0.00205533
0.00191525
0.00177487
0.00163541
0.00149796
0.00136341
0.00123249
0.00110576
0.00098365
0.000866468
0.000754396
0.000647526
0.000545865
0.00044935
0.000357863
0.000271223
0.000189126
0.000111257
3.64967e-05
1.99244e-05
5.97429e-05
0.000100485
0.000143248
0.000188115
0.000235153
0.000284475
0.000336189
0.000390409
0.00044725
0.000506833
0.000569286
0.000634742
0.00070334
0.000775221
0.000850525
0.000929393
0.00101196
0.00109835
0.00118867
0.001283
0.00138137
0.00148379
0.00159018
0.00170042
0.00181428
0.00193147
0.00205158
0.00217407
0.00229825
0.00243333
0.00257281
0.00270353
0.00282555
0.00293891
0.00304365
0.00313987
0.0032277
0.00330733
0.00337901
0.00344307
0.0034999
0.00354997
0.00359384
0.00363216
0.00366566
0.00369512
0.00372141
0.00374527
0.00376559
0.00377985
0.00378893
0.00379701
0.00380709
0.0038204
0.00383763
0.0038592
0.00388526
0.00391569
0.00394996
0.00398715
0.00402591
0.00406446
0.00410059
0.00413166
0.00415469
0.00416636
0.00416315
0.00414129
0.00409699
0.0040317
0.00395362
0.00385883
0.00374825
0.00362326
0.00348551
0.00333677
0.0031789
0.0030138
0.00284336
0.00266941
0.00249365
0.00231768
0.00214292
0.00197062
0.00180186
0.00163753
0.00147836
0.00132489
0.00117752
0.00103649
0.000901941
0.000773877
0.00065223
0.000536848
0.000427521
0.000323977
0.000225825
0.000132653
4.34189e-05
2.36372e-05
7.07937e-05
0.000118901
0.000169358
0.000222286
0.00027776
0.000335917
0.000396887
0.000460807
0.000527821
0.000598085
0.00067176
0.000749021
0.000830048
0.000915028
0.00100415
0.00109762
0.00119562
0.00129836
0.00140599
0.00151868
0.00163655
0.00175967
0.00188808
0.00202172
0.00216047
0.00230411
0.00245231
0.00260462
0.00276038
0.00293168
0.00311134
0.00328261
0.00344549
0.00359995
0.00374595
0.00388349
0.00401261
0.00413341
0.00424602
0.00435065
0.00444757
0.00453713
0.00461976
0.00469593
0.0047662
0.00483116
0.00489147
0.00494761
0.00499801
0.00503942
0.0050723
0.00510096
0.00512844
0.00515572
0.00518317
0.00521092
0.0052389
0.00526671
0.0052936
0.0053185
0.00533991
0.00535597
0.00536443
0.0053627
0.00534785
0.00531672
0.00526594
0.00519202
0.00509144
0.00497154
0.00484343
0.00469938
0.00454062
0.00436874
0.00418551
0.00399275
0.00379234
0.00358617
0.00337611
0.00316394
0.00295135
0.00273991
0.00253103
0.00232596
0.00212578
0.00193136
0.00174342
0.00156248
0.0013889
0.00122291
0.00106456
0.000913838
0.000770596
0.000634621
0.000505636
0.0003833
0.000267159
0.000156732
5.12079e-05
2.73249e-05
8.18601e-05
0.000137404
0.000195633
0.000256715
0.000320737
0.000387856
0.000458225
0.00053201
0.00060939
0.000690554
0.0007757
0.000865038
0.000958789
0.00105718
0.00116046
0.00126888
0.00138268
0.00150211
0.00162742
0.00175883
0.00189653
0.00204069
0.0021914
0.00234872
0.00251258
0.00268286
0.00285929
0.00304149
0.00322887
0.00343637
0.00365615
0.00386785
0.00407143
0.00426678
0.00445377
0.0046323
0.00480233
0.00496383
0.00511685
0.00526149
0.00539791
0.00552632
0.00564703
0.00576037
0.00586672
0.0059665
0.00606015
0.00614792
0.00622786
0.0062961
0.00635271
0.00640203
0.0064471
0.00648868
0.00652681
0.00656137
0.006592
0.00661803
0.00663853
0.00665219
0.00665741
0.0066522
0.00663428
0.00660104
0.0065496
0.00647692
0.00637979
0.00625489
0.006099
0.00592524
0.00574769
0.00555494
0.00534852
0.00513027
0.00490208
0.00466582
0.00442341
0.00417671
0.00392753
0.0036776
0.00342858
0.00318197
0.00293915
0.00270135
0.00246959
0.00224475
0.0020275
0.00181835
0.00161765
0.00142556
0.00124214
0.0010673
0.00090087
0.000742593
0.000592144
0.000449138
0.00031308
0.000183438
5.98179e-05
3.10052e-05
9.29912e-05
0.000156055
0.00022215
0.000291489
0.000364168
0.000440369
0.000520275
0.000604084
0.00069201
0.000784273
0.000881108
0.000982762
0.0010895
0.00120159
0.00131932
0.001443
0.00157291
0.00170938
0.00185269
0.00200314
0.00216099
0.00232647
0.00249977
0.00268099
0.00287016
0.00306721
0.00327195
0.00348408
0.00370303
0.00394663
0.00420636
0.00445829
0.0047023
0.00493822
0.00516583
0.00538493
0.00559539
0.00579708
0.00598995
0.006174
0.00634929
0.00651593
0.00667408
0.00682394
0.00696574
0.00709971
0.00722612
0.00734498
0.00745405
0.007549
0.00762951
0.00769983
0.007763
0.00781948
0.00786904
0.00791126
0.0079455
0.00797083
0.00798608
0.00798974
0.00798004
0.00795489
0.0079119
0.00784847
0.00776174
0.00764874
0.00750638
0.00733151
0.00712113
0.00689409
0.00666751
0.00642639
0.00617262
0.00590828
0.00563539
0.00535595
0.00507186
0.00478496
0.00449702
0.0042097
0.00392457
0.00364306
0.00336648
0.00309599
0.00283256
0.00257701
0.00233
0.00209198
0.00186328
0.00164406
0.00143432
0.00123397
0.00104282
0.000860577
0.000686905
0.000521391
0.000363524
0.000212735
6.92375e-05
3.46684e-05
0.000104191
0.000174885
0.000248967
0.000326681
0.000408138
0.000493552
0.000583141
0.000677136
0.000775782
0.000879335
0.000988065
0.00110226
0.00122222
0.00134826
0.00148072
0.00161993
0.00176626
0.00192004
0.00208165
0.00225143
0.0024297
0.00261677
0.00281287
0.00301817
0.00323277
0.00345666
0.00368972
0.00393169
0.00418208
0.00446158
0.00476097
0.00505278
0.00533685
0.00561291
0.00588066
0.00613983
0.00639016
0.00663145
0.00686358
0.00708644
0.0073
0.00750426
0.00769927
0.00788508
0.00806178
0.00822943
0.00838812
0.00853766
0.00867559
0.00879733
0.00890217
0.00899418
0.00907622
0.00914851
0.00921051
0.0092615
0.00930054
0.00932643
0.00933775
0.00933278
0.00930956
0.00926585
0.0091992
0.00910693
0.0089862
0.00883409
0.0086476
0.00842373
0.00815964
0.00787984
0.00760457
0.0073153
0.00701431
0.00670395
0.00638644
0.00606387
0.00573819
0.00541122
0.00508468
0.00476015
0.00443909
0.00412283
0.00381258
0.00350939
0.00321417
0.00292765
0.00265042
0.00238291
0.00212541
0.00187803
0.0016408
0.00141359
0.00119622
0.00098839
0.000789772
0.000599949
0.000418415
0.00024458
7.94578e-05
3.83081e-05
0.000115472
0.000193933
0.000276136
0.000362357
0.000452734
0.000547518
0.000646954
0.000751306
0.000860852
0.000975886
0.00109672
0.00122367
0.00135709
0.00149733
0.00164477
0.00179979
0.00196279
0.00213417
0.00231435
0.00250372
0.00270267
0.00291154
0.00313062
0.00336015
0.00360026
0.00385101
0.00411233
0.00438402
0.00466563
0.00498072
0.00531941
0.0056507
0.00597437
0.00629008
0.00659745
0.00689611
0.00718574
0.00746608
0.00773689
0.00799802
0.00824931
0.00849069
0.00872208
0.00894341
0.00915461
0.0093556
0.00954629
0.0097263
0.00989304
0.0100419
0.0101718
0.0102865
0.0103885
0.0104778
0.0105535
0.0106146
0.0106598
0.0106877
0.0106965
0.0106844
0.0106492
0.0105883
0.0104994
0.0103797
0.0102262
0.0100362
0.00980659
0.00953459
0.00921751
0.00888542
0.00856171
0.00822437
0.00787611
0.00751958
0.00715725
0.00679133
0.00642385
0.00605664
0.00569136
0.0053295
0.00497243
0.00462134
0.00427731
0.00394126
0.00361399
0.00329613
0.0029882
0.00269056
0.00240343
0.00212694
0.00186107
0.00160572
0.00136069
0.00112573
0.000900511
0.000684638
0.000477635
0.000278907
9.04571e-05
4.19192e-05
0.000126848
0.00021323
0.000303704
0.000398586
0.000498046
0.000602366
0.000711821
0.000826708
0.000947341
0.00107405
0.00120719
0.00134712
0.00149423
0.0016489
0.00181156
0.00198264
0.00216258
0.00235183
0.00255083
0.00276005
0.00297989
0.00321076
0.00345298
0.00370683
0.0039725
0.00425008
0.00453955
0.00484077
0.00515334
0.00550365
0.00588119
0.00625148
0.00661425
0.00696907
0.0073155
0.00765309
0.00798148
0.00830031
0.00860931
0.00890822
0.00919684
0.00947497
0.00974243
0.00999902
0.0102445
0.0104787
0.0107014
0.0109118
0.0111076
0.0112842
0.0114403
0.0115788
0.0117021
0.0118098
0.0119007
0.0119734
0.0120264
0.0120579
0.0120658
0.0120481
0.0120023
0.0119259
0.0118161
0.0116702
0.0114853
0.0112584
0.0109868
0.0106675
0.0102981
0.00991414
0.00954215
0.00915669
0.00876094
0.00835791
0.00795031
0.00754054
0.00713073
0.00672276
0.00631824
0.00591861
0.00552509
0.00513878
0.00476058
0.00439127
0.00403151
0.00368182
0.00334259
0.0030141
0.00269653
0.00238995
0.00209435
0.00180963
0.00153561
0.00127206
0.00101869
0.00077513
0.000540959
0.000315591
0.000102193
4.54948e-05
0.000138324
0.000232793
0.000331717
0.00043544
0.000544162
0.000658195
0.000777848
0.000903453
0.00103537
0.00117395
0.00131961
0.00147272
0.00163373
0.00180307
0.00198118
0.00216856
0.00236567
0.00257301
0.00279108
0.00302034
0.00326127
0.00351428
0.00377975
0.00405797
0.00434918
0.0046535
0.00497096
0.00530146
0.00564466
0.00602977
0.00644566
0.00685441
0.0072557
0.00764905
0.00803395
0.00840992
0.00877652
0.00913337
0.00948012
0.00981646
0.0101421
0.0104568
0.0107602
0.011052
0.0113318
0.0115993
0.0118541
0.0120953
0.0123206
0.0125258
0.0127092
0.0128731
0.0130193
0.013147
0.0132547
0.0133407
0.0134031
0.0134398
0.0134485
0.0134268
0.013372
0.0132815
0.0131523
0.0129817
0.0127665
0.012504
0.0121913
0.0118256
0.0114046
0.0109692
0.010549
0.0101154
0.00967183
0.00922179
0.00876828
0.00831391
0.00786096
0.00741137
0.00696676
0.00652852
0.00609778
0.00567548
0.0052624
0.00485914
0.0044662
0.00408396
0.00371268
0.00335254
0.00300365
0.00266603
0.00233965
0.0020244
0.00172014
0.00142666
0.0011437
0.00087096
0.00060806
0.000354452
0.000114606
4.9037e-05
0.000149924
0.000252668
0.000360238
0.000472992
0.000591162
0.000715095
0.000845135
0.000981653
0.00112504
0.0012757
0.00143407
0.00160058
0.0017757
0.0019599
0.00215368
0.00235757
0.00257207
0.00279771
0.00303502
0.0032845
0.00354665
0.0038219
0.00411065
0.00441323
0.0047299
0.00506081
0.00540602
0.00576549
0.00613891
0.00655831
0.00701196
0.00745857
0.00789777
0.00832905
0.00875183
0.00916562
0.00956996
0.0099644
0.0103486
0.0107221
0.0110847
0.0114358
0.0117752
0.0121024
0.0124168
0.012718
0.0130053
0.0132778
0.0135333
0.0137682
0.0139803
0.0141713
0.0143421
0.0144916
0.0146178
0.0147188
0.0147923
0.014836
0.0148471
0.014823
0.0147609
0.0146578
0.0145107
0.0143167
0.0140726
0.0137757
0.013423
0.0130118
0.0125399
0.0120535
0.0115854
0.0111035
0.0106118
0.0101142
0.00961398
0.00911407
0.00861691
0.00812455
0.00763867
0.00716062
0.00669147
0.00623204
0.00578296
0.0053447
0.00491757
0.00450179
0.0040975
0.00370475
0.00332356
0.00295389
0.00259568
0.00224882
0.00191316
0.00158853
0.00127473
0.000971469
0.000678473
0.000395229
0.000127618
5.25464e-05
0.000161678
0.000272905
0.000389325
0.000511305
0.000639114
0.000773144
0.000913771
0.0010614
0.00121646
0.0013794
0.00155067
0.00173077
0.00192019
0.00211946
0.00232911
0.00254969
0.00278176
0.00302587
0.00328257
0.00355239
0.00383583
0.00413335
0.00444536
0.00477222
0.00511418
0.00547144
0.0058441
0.00623214
0.00663532
0.00708844
0.00757921
0.00806302
0.00853949
0.00900807
0.00946817
0.00991929
0.0103609
0.0107927
0.0112141
0.0116248
0.0120242
0.012412
0.0127877
0.0131506
0.0135001
0.0138356
0.0141561
0.0144608
0.0147475
0.0150132
0.0152557
0.0154755
0.0156727
0.0158457
0.0159922
0.01611
0.0161964
0.0162486
0.0162638
0.016239
0.0161711
0.016057
0.0158935
0.0156776
0.015406
0.0150758
0.0146843
0.0142286
0.0137067
0.0131699
0.0126542
0.0121239
0.0115838
0.011038
0.0104903
0.00994377
0.00940114
0.00886462
0.00833597
0.00781656
0.00730742
0.00680931
0.00632273
0.005848
0.00538528
0.00493464
0.00449607
0.0040695
0.00365486
0.00325204
0.00286091
0.00248136
0.00211323
0.00175637
0.00141061
0.00107573
0.000751527
0.000437546
0.00014112
5.60081e-05
0.000173586
0.000293513
0.000418994
0.000550405
0.000688065
0.0008324
0.000983819
0.00114276
0.00130969
0.0014851
0.00166947
0.00186335
0.00206727
0.00228179
0.00250749
0.00274493
0.00299472
0.00325742
0.0035336
0.00382381
0.00412855
0.00444831
0.00478348
0.00513444
0.00550147
0.00588478
0.0062845
0.00670065
0.00713306
0.00761926
0.00814647
0.00866681
0.0091799
0.00968518
0.0101821
0.0106701
0.0111488
0.0116177
0.0120763
0.0125241
0.0129608
0.0133856
0.013798
0.0141973
0.0145827
0.0149533
0.0153081
0.0156459
0.0159649
0.0162629
0.0165375
0.0167879
0.0170132
0.0172114
0.0173801
0.0175163
0.0176172
0.0176798
0.0177007
0.0176768
0.0176048
0.0174812
0.0173029
0.0170664
0.0167687
0.0164067
0.0159776
0.0154786
0.0149075
0.014321
0.013758
0.0131796
0.0125908
0.0119962
0.0114001
0.0108058
0.0102163
0.00963403
0.00906086
0.00849823
0.00794718
0.00740844
0.00688241
0.0063693
0.00586917
0.00538193
0.00490745
0.00444557
0.00399608
0.00355882
0.00313359
0.00272024
0.0023186
0.00192854
0.00154992
0.00118256
0.000826368
0.000480918
0.000154967
5.93998e-05
0.000185628
0.000314477
0.000449243
0.00059031
0.000738041
0.000892897
0.00105532
0.00122578
0.00140478
0.00159285
0.00179052
0.00199837
0.00221697
0.00244691
0.0026888
0.00294325
0.00321085
0.00349222
0.00378792
0.00409851
0.0044245
0.00476637
0.00512453
0.00549936
0.00589114
0.00630012
0.00672643
0.00717016
0.00763121
0.00814983
0.00871277
0.00926896
0.00981805
0.0103595
0.0108928
0.0114175
0.011933
0.012439
0.0129349
0.0134203
0.0138945
0.014357
0.0148069
0.0152434
0.0156656
0.0160725
0.0164627
0.016835
0.0171879
0.0175197
0.0178279
0.0181106
0.0183657
0.0185909
0.0187833
0.0189396
0.0190567
0.0191312
0.0191595
0.0191381
0.0190635
0.0189322
0.0187405
0.0184852
0.0181628
0.0177704
0.0173049
0.0167637
0.0161446
0.0155092
0.0148994
0.0142729
0.0136352
0.0129914
0.012346
0.0117027
0.011065
0.0104352
0.00981559
0.00920763
0.00861244
0.00803072
0.00746288
0.00690906
0.00636921
0.0058432
0.00533078
0.00483169
0.00434566
0.00387243
0.00341175
0.00296342
0.00252727
0.00210316
0.00169098
0.00129061
0.000902001
0.000524778
0.000168989
6.27057e-05
0.000197797
0.000335805
0.000480095
0.000631051
0.000789078
0.000954672
0.00112831
0.00131049
0.00150177
0.0017027
0.00191386
0.00213586
0.0023693
0.0026148
0.00287301
0.00314455
0.00343003
0.00373009
0.00404528
0.00437617
0.00472327
0.00508706
0.00546795
0.00586632
0.00628247
0.00671664
0.00716903
0.00763976
0.00812882
0.00867918
0.00927713
0.00986853
0.0104531
0.0110303
0.0115997
0.0121608
0.0127132
0.0132564
0.01379
0.0143134
0.0148259
0.0153268
0.0158152
0.0162901
0.0167504
0.0171948
0.017622
0.0180303
0.0184185
0.0187857
0.0191292
0.0194457
0.0197323
0.019986
0.0202036
0.0203816
0.0205165
0.0206044
0.0206417
0.0206245
0.020549
0.0204114
0.0202081
0.0199354
0.01959
0.0191685
0.018668
0.0180859
0.0174199
0.0167365
0.0160804
0.015406
0.0147193
0.0140257
0.0133303
0.012637
0.0119494
0.0112704
0.0106023
0.00994671
0.00930485
0.00867751
0.00806511
0.00746781
0.00688554
0.00631813
0.0057653
0.00522674
0.00470211
0.0041911
0.00369342
0.00320884
0.00273717
0.00227828
0.00183208
0.00139845
0.000977389
0.000568531
0.000183011
6.59137e-05
0.0002101
0.000357517
0.000511582
0.000672662
0.00084121
0.00101777
0.00120283
0.00139695
0.00160071
0.0018147
0.00203953
0.00227583
0.00252425
0.00278543
0.00306004
0.00334871
0.00365208
0.00397078
0.00430537
0.00465641
0.00502441
0.00540984
0.00581312
0.00623462
0.00667466
0.00713351
0.00761138
0.00810849
0.00862492
0.00920633
0.00983864
0.0104647
0.0110842
0.0116968
0.0123021
0.0128997
0.0134892
0.0140701
0.0146419
0.015204
0.0157557
0.016296
0.016824
0.0173386
0.0178384
0.018322
0.0187877
0.0192338
0.0196591
0.0200632
0.0204435
0.0207953
0.0211147
0.0213984
0.0216427
0.0218438
0.0219979
0.0221008
0.0221486
0.0221372
0.0220625
0.0219204
0.0217071
0.0214188
0.0210518
0.0206028
0.0200687
0.0194469
0.0187351
0.0180044
0.0173026
0.0165805
0.0158447
0.0151011
0.0143548
0.0136103
0.0128715
0.0121415
0.0114227
0.010717
0.0100258
0.00934996
0.00868996
0.00804607
0.00741829
0.00680649
0.0062104
0.00562973
0.00506413
0.00451328
0.00397688
0.00345468
0.0029465
0.0024522
0.00197168
0.00150483
0.00105162
0.000611656
0.000196872
6.90038e-05
0.000222532
0.000379622
0.000543713
0.000715157
0.000894465
0.00108221
0.00127894
0.00148521
0.00170165
0.00192887
0.00216753
0.00241827
0.00268177
0.00295871
0.00324975
0.00355555
0.00387676
0.00421398
0.0045678
0.00493876
0.00532736
0.00573408
0.00615933
0.00660349
0.00706688
0.0075498
0.00805254
0.00857537
0.00911853
0.00973034
0.0103964
0.0110566
0.0117108
0.0123587
0.0129999
0.0136342
0.0142611
0.0148803
0.015491
0.0160928
0.0166846
0.0172656
0.0178346
0.0183903
0.0189312
0.0194557
0.0199617
0.0204474
0.0209116
0.0213543
0.0217727
0.0221611
0.0225147
0.0228297
0.023102
0.0233277
0.0235024
0.0236219
0.0236819
0.0236779
0.0236057
0.0234608
0.0232392
0.0229367
0.0225497
0.0220747
0.0215083
0.020848
0.0200914
0.0193143
0.0185673
0.0177978
0.0170129
0.0162187
0.0154208
0.0146241
0.0138325
0.0130496
0.012278
0.0115197
0.0107763
0.0100488
0.00933798
0.00864419
0.00796758
0.00730813
0.00666568
0.00604
0.00543083
0.00483789
0.00426092
0.00369968
0.00315401
0.00262374
0.00210876
0.0016089
0.00112408
0.000653799
0.000210467
7.19502e-05
0.000235075
0.000402104
0.000576484
0.000758547
0.000948862
0.00114804
0.00135664
0.00157527
0.00180457
0.0020452
0.00229781
0.0025631
0.00284177
0.00313449
0.00344195
0.00376482
0.00410373
0.0044593
0.0048321
0.00522268
0.00563152
0.0060591
0.00650582
0.00697207
0.00745821
0.00796458
0.00849151
0.00903941
0.0096087
0.0102504
0.0109497
0.0116437
0.0123324
0.0130156
0.013693
0.0143643
0.0150293
0.0156874
0.016338
0.0169804
0.0176137
0.0182367
0.0188482
0.0194467
0.0200304
0.0205975
0.0211458
0.021673
0.022178
0.0226609
0.0231187
0.0235449
0.0239339
0.0242813
0.024583
0.0248346
0.0250315
0.0251692
0.025243
0.0252482
0.0251801
0.0250342
0.0248059
0.024491
0.0240855
0.0235857
0.0229884
0.0222906
0.0214902
0.0206673
0.0198754
0.0190587
0.0182244
0.0173791
0.0165288
0.0156786
0.0148328
0.0139951
0.0131683
0.0123548
0.0115563
0.0107742
0.0100093
0.00926221
0.00853339
0.00782296
0.00713097
0.00645733
0.00580193
0.0051646
0.00454517
0.00394347
0.00335933
0.00279257
0.00224303
0.00171044
0.00119461
0.000694864
0.000223765
7.47254e-05
0.000247699
0.000424943
0.000609883
0.000802827
0.0010044
0.00121524
0.00143593
0.00166711
0.00190944
0.0021636
0.00243029
0.00271021
0.00300406
0.00331256
0.00363637
0.00397618
0.00433261
0.00470628
0.00509775
0.00550755
0.00593619
0.00638412
0.00685176
0.0073395
0.00784773
0.00837686
0.00892732
0.00949968
0.0100946
0.0107656
0.0114979
0.0122255
0.0129487
0.0136673
0.0143813
0.0150903
0.015794
0.016492
0.0171836
0.0178679
0.0185439
0.0192105
0.019866
0.0205089
0.0211373
0.0217489
0.0223413
0.022912
0.0234597
0.0239843
0.0244829
0.024948
0.0253735
0.0257547
0.0260872
0.0263661
0.0265869
0.0267444
0.0268337
0.0268498
0.0267877
0.0266424
0.0264092
0.0260834
0.0256609
0.0251376
0.0245103
0.023776
0.0229323
0.022064
0.0212275
0.0203634
0.0194793
0.0185823
0.0176786
0.0167735
0.0158717
0.0149772
0.0140929
0.0132216
0.0123652
0.0115254
0.0107032
0.00989972
0.00911547
0.00835093
0.00760637
0.00688198
0.00617784
0.00549395
0.00483029
0.00418674
0.00356318
0.00295939
0.00237513
0.00181
0.00126362
0.00073509
0.000236837
7.73006e-05
0.000260376
0.00044811
0.000643887
0.000847968
0.00106103
0.00128375
0.00151674
0.00176064
0.00201615
0.00228397
0.00256481
0.00285939
0.00316843
0.00349262
0.00383267
0.00418922
0.00456292
0.00495437
0.00536413
0.00579272
0.00624064
0.00670835
0.00719627
0.00770484
0.00823448
0.00878569
0.00935904
0.00995527
0.0105753
0.0112753
0.0120404
0.0128017
0.0135595
0.014314
0.0150651
0.0158125
0.0165559
0.0172948
0.0180285
0.0187561
0.0194763
0.0201879
0.0208891
0.0215782
0.0222529
0.0229109
0.0235495
0.0241657
0.0247579
0.0253259
0.0258664
0.0263716
0.0268349
0.0272513
0.027616
0.027924
0.0281702
0.0283494
0.0284562
0.0284851
0.0284307
0.0282878
0.0280512
0.027716
0.0272776
0.0267319
0.0260754
0.0253051
0.0244186
0.0235051
0.0226237
0.0217118
0.0207773
0.0198275
0.0188689
0.0179074
0.0169477
0.0159941
0.01505
0.0141182
0.0132012
0.0123009
0.0114186
0.0105558
0.00971329
0.00889189
0.00809219
0.00731466
0.00655964
0.00582735
0.0051179
0.0044313
0.00376742
0.00312601
0.0025067
0.00190895
0.00133213
0.000775078
0.000249868
7.96403e-05
0.000273068
0.000471565
0.000678438
0.000893894
0.00111867
0.00135348
0.00159893
0.00185572
0.00212453
0.0024061
0.00270114
0.00301038
0.00333453
0.00367431
0.0040304
0.00440346
0.00479412
0.00520297
0.00563057
0.00607743
0.00654406
0.00703092
0.00753847
0.00806716
0.00861751
0.00919013
0.00978577
0.0104054
0.0110502
0.0117791
0.0125769
0.013372
0.014165
0.0149559
0.0157447
0.0165314
0.0173155
0.0180965
0.0188736
0.0196458
0.0204117
0.0211698
0.0219184
0.0226553
0.0233782
0.0240845
0.024771
0.0254346
0.0260733
0.0266864
0.0272701
0.0278167
0.0283192
0.0287723
0.0291711
0.02951
0.0297837
0.0299866
0.0301127
0.0301563
0.0301115
0.0299726
0.0297341
0.0293907
0.0289375
0.0283702
0.0276851
0.026879
0.0259497
0.0249905
0.0240638
0.0231032
0.0221171
0.021113
0.020098
0.019078
0.0180582
0.0170431
0.0160367
0.015042
0.0140618
0.0130983
0.0121535
0.011229
0.0103259
0.00944556
0.00858878
0.00775637
0.00694893
0.00616689
0.00541053
0.0046799
0.00397489
0.00329519
0.00264028
0.00200942
0.00140174
0.000815768
0.000263166
8.16971e-05
0.000285711
0.000495225
0.000713433
0.000940485
0.00117718
0.00142426
0.00168235
0.00195214
0.00223436
0.00252973
0.00283897
0.00316281
0.00350198
0.00385717
0.00422907
0.00461834
0.00502558
0.00545139
0.00589632
0.0063609
0.00684561
0.00735096
0.00787742
0.00842553
0.00899591
0.00958932
0.0102067
0.0108494
0.0115188
0.0122765
0.0131072
0.0139365
0.0147651
0.0155931
0.0164207
0.0172476
0.0180735
0.0188978
0.0197196
0.0205377
0.0213507
0.022157
0.0229544
0.0237409
0.0245136
0.0252698
0.0260061
0.0267191
0.0274062
0.028066
0.0286945
0.0292841
0.0298275
0.0303194
0.0307542
0.0311262
0.0314296
0.0316581
0.0318057
0.0318659
0.0318325
0.0316993
0.0314602
0.0311098
0.0306426
0.0300542
0.0293405