/*--------------------------------*- C++ -*----------------------------------*\
  =========                 |
  \\      /  F ield         | OpenFOAM: The Open Source CFD Toolbox
   \\    /   O peration     | Website:  https://openfoam.org
    \\  /    A nd           | Version:  9
     \\/     M anipulation  |
\*---------------------------------------------------------------------------*/
FoamFile
{
    format      ascii;
    class       surfaceScalarField;
    location    "0.02";
    object      phi;
}
// * * * * * * * * * * * * * * * * * * * * * * * * * * * * * * * * * * * * * //

dimensions      [0 3 -1 0 0 0 0];

internalField   nonuniform List<scalar> 
39700
(
9.06803e-07
1.1233e-06
9.06803e-07
1.17734e-06
9.06804e-07
1.23412e-06
9.06807e-07
1.29361e-06
9.06811e-07
1.35589e-06
9.06814e-07
1.42109e-06
9.06817e-07
1.48933e-06
9.0682e-07
1.56075e-06
9.06824e-07
1.63549e-06
9.06827e-07
1.71371e-06
9.06831e-07
1.79554e-06
9.06836e-07
1.88115e-06
9.0684e-07
1.97071e-06
9.06845e-07
2.06436e-06
9.0685e-07
2.1623e-06
9.06856e-07
2.26469e-06
9.06862e-07
2.37173e-06
9.06868e-07
2.4836e-06
9.06875e-07
2.60049e-06
9.06882e-07
2.72262e-06
9.0689e-07
2.85018e-06
9.06898e-07
2.98339e-06
9.06907e-07
3.12245e-06
9.06916e-07
3.2676e-06
9.06926e-07
3.41904e-06
9.06936e-07
3.57701e-06
9.06947e-07
3.74174e-06
9.06959e-07
3.91344e-06
9.06971e-07
4.09234e-06
9.06984e-07
4.27869e-06
9.06999e-07
5.21665e-06
9.07014e-07
5.19511e-06
9.0703e-07
5.17359e-06
9.07045e-07
5.1521e-06
9.0706e-07
5.13065e-06
9.07074e-07
5.10926e-06
9.07088e-07
5.08794e-06
9.07101e-07
5.06675e-06
9.07113e-07
5.04573e-06
9.07124e-07
5.02491e-06
9.07133e-07
5.00437e-06
9.0714e-07
4.98416e-06
9.07146e-07
4.96436e-06
9.07148e-07
4.94504e-06
9.07148e-07
4.92629e-06
9.07144e-07
4.9082e-06
9.07137e-07
4.89088e-06
9.07126e-07
4.87443e-06
9.07111e-07
4.85897e-06
9.07091e-07
4.84463e-06
9.07066e-07
4.83155e-06
9.07037e-07
4.81988e-06
9.07002e-07
4.80974e-06
9.06963e-07
4.80128e-06
9.0692e-07
4.79465e-06
9.06872e-07
4.78998e-06
9.06821e-07
4.78743e-06
9.06767e-07
4.78712e-06
9.06712e-07
4.78917e-06
9.06655e-07
4.7937e-06
9.066e-07
4.80078e-06
9.06546e-07
4.8105e-06
9.06496e-07
4.82289e-06
9.0645e-07
4.83797e-06
9.0641e-07
4.85574e-06
9.06377e-07
4.87617e-06
9.06351e-07
4.89919e-06
9.06334e-07
4.92472e-06
9.06325e-07
4.95267e-06
9.06326e-07
4.98292e-06
9.06334e-07
4.09566e-06
9.06348e-07
3.92557e-06
9.06366e-07
3.76222e-06
9.06387e-07
3.60523e-06
9.0641e-07
3.45431e-06
9.06435e-07
3.30919e-06
9.0646e-07
3.16962e-06
9.06486e-07
3.03539e-06
9.06512e-07
2.9063e-06
9.06538e-07
2.78218e-06
9.06564e-07
2.66286e-06
9.06588e-07
2.54817e-06
9.06612e-07
2.43797e-06
9.06635e-07
2.3321e-06
9.06656e-07
2.23043e-06
9.06677e-07
2.13282e-06
9.06696e-07
2.03913e-06
9.06714e-07
1.94923e-06
9.06731e-07
1.863e-06
9.06746e-07
1.7803e-06
9.0676e-07
1.70102e-06
9.06773e-07
1.62504e-06
9.06785e-07
1.55224e-06
9.06795e-07
1.4825e-06
9.06803e-07
1.41573e-06
9.0681e-07
1.35182e-06
9.06817e-07
1.29067e-06
9.06824e-07
1.23217e-06
9.06836e-07
1.17619e-06
1.12267e-06
9.06711e-07
1.12329e-06
9.06715e-07
1.17734e-06
9.0672e-07
1.23412e-06
9.06728e-07
1.2936e-06
9.06737e-07
1.35588e-06
9.06745e-07
1.42108e-06
9.06753e-07
1.48932e-06
9.06762e-07
1.56074e-06
9.0677e-07
1.63548e-06
9.0678e-07
1.7137e-06
9.0679e-07
1.79553e-06
9.06802e-07
1.88114e-06
9.06814e-07
1.97069e-06
9.06827e-07
2.06435e-06
9.0684e-07
2.16229e-06
9.06855e-07
2.26468e-06
9.06871e-07
2.37171e-06
9.06888e-07
2.48358e-06
9.06906e-07
2.60048e-06
9.06926e-07
2.7226e-06
9.06946e-07
2.85016e-06
9.06968e-07
2.98336e-06
9.06992e-07
3.12243e-06
9.07017e-07
3.26757e-06
9.07043e-07
3.41902e-06
9.07071e-07
3.57698e-06
9.07101e-07
3.74171e-06
9.07133e-07
3.91341e-06
9.07166e-07
4.09231e-06
9.07202e-07
4.27865e-06
9.07243e-07
5.21661e-06
9.07285e-07
5.19506e-06
9.07327e-07
5.17355e-06
9.07368e-07
5.15206e-06
9.07409e-07
5.13061e-06
9.07448e-07
5.10922e-06
9.07486e-07
5.08791e-06
9.07521e-07
5.06672e-06
9.07553e-07
5.04569e-06
9.07582e-07
5.02488e-06
9.07607e-07
5.00435e-06
9.07627e-07
4.98414e-06
9.07641e-07
4.96435e-06
9.07648e-07
4.94503e-06
9.07648e-07
4.92629e-06
9.07639e-07
4.90821e-06
9.07621e-07
4.8909e-06
9.07593e-07
4.87446e-06
9.07553e-07
4.85901e-06
9.07502e-07
4.84468e-06
9.07438e-07
4.83162e-06
9.07362e-07
4.81996e-06
9.07274e-07
4.80983e-06
9.07173e-07
4.80138e-06
9.07062e-07
4.79476e-06
9.06941e-07
4.7901e-06
9.06811e-07
4.78756e-06
9.06675e-07
4.78725e-06
9.06534e-07
4.78931e-06
9.06393e-07
4.79384e-06
9.06255e-07
4.80092e-06
9.06121e-07
4.81063e-06
9.05996e-07
4.82301e-06
9.05884e-07
4.83808e-06
9.05787e-07
4.85584e-06
9.05708e-07
4.87625e-06
9.05648e-07
4.89925e-06
9.05611e-07
4.92476e-06
9.05596e-07
4.95269e-06
9.05605e-07
4.98291e-06
9.05632e-07
4.09563e-06
9.05673e-07
3.92553e-06
9.05724e-07
3.76216e-06
9.05783e-07
3.60517e-06
9.05847e-07
3.45425e-06
9.05915e-07
3.30912e-06
9.05985e-07
3.16955e-06
9.06056e-07
3.03532e-06
9.06127e-07
2.90623e-06
9.06196e-07
2.78211e-06
9.06264e-07
2.66279e-06
9.0633e-07
2.54811e-06
9.06393e-07
2.4379e-06
9.06453e-07
2.33204e-06
9.0651e-07
2.23037e-06
9.06563e-07
2.13276e-06
9.06612e-07
2.03908e-06
9.06659e-07
1.94918e-06
9.06701e-07
1.86295e-06
9.0674e-07
1.78026e-06
9.06775e-07
1.70099e-06
9.06807e-07
1.62501e-06
9.06836e-07
1.55221e-06
9.06861e-07
1.48248e-06
9.06881e-07
1.41571e-06
9.06898e-07
1.3518e-06
9.06914e-07
1.29065e-06
9.06935e-07
1.23214e-06
9.06963e-07
1.17616e-06
1.12263e-06
9.06578e-07
1.12329e-06
9.06584e-07
1.17733e-06
9.06592e-07
1.23411e-06
9.06603e-07
1.29359e-06
9.06614e-07
1.35587e-06
9.06625e-07
1.42107e-06
9.06636e-07
1.48931e-06
9.06648e-07
1.56073e-06
9.0666e-07
1.63547e-06
9.06674e-07
1.71368e-06
9.06689e-07
1.79552e-06
9.06706e-07
1.88113e-06
9.06724e-07
1.97068e-06
9.06744e-07
2.06433e-06
9.06765e-07
2.16226e-06
9.06787e-07
2.26466e-06
9.06812e-07
2.37169e-06
9.06838e-07
2.48355e-06
9.06866e-07
2.60045e-06
9.06896e-07
2.72257e-06
9.06928e-07
2.85013e-06
9.06963e-07
2.98333e-06
9.06999e-07
3.12239e-06
9.07038e-07
3.26753e-06
9.07079e-07
3.41897e-06
9.07124e-07
3.57694e-06
9.0717e-07
3.74166e-06
9.0722e-07
3.91336e-06
9.07273e-07
4.09226e-06
9.07327e-07
4.2786e-06
9.07394e-07
5.21654e-06
9.0746e-07
5.195e-06
9.07526e-07
5.17348e-06
9.07591e-07
5.152e-06
9.07655e-07
5.13055e-06
9.07716e-07
5.10915e-06
9.07776e-07
5.08785e-06
9.07831e-07
5.06666e-06
9.07882e-07
5.04564e-06
9.07928e-07
5.02484e-06
9.07967e-07
5.00431e-06
9.07999e-07
4.98411e-06
9.08021e-07
4.96432e-06
9.08033e-07
4.94502e-06
9.08034e-07
4.92629e-06
9.08021e-07
4.90822e-06
9.07995e-07
4.89092e-06
9.07952e-07
4.8745e-06
9.07893e-07
4.85906e-06
9.07816e-07
4.84475e-06
9.0772e-07
4.83171e-06
9.07606e-07
4.82007e-06
9.07474e-07
4.80996e-06
9.07325e-07
4.80153e-06
9.07159e-07
4.79492e-06
9.06978e-07
4.79028e-06
9.06786e-07
4.78775e-06
9.06584e-07
4.78745e-06
9.06378e-07
4.78952e-06
9.0617e-07
4.79405e-06
9.05967e-07
4.80113e-06
9.05773e-07
4.81083e-06
9.05593e-07
4.82319e-06
9.05432e-07
4.83825e-06
9.05294e-07
4.85598e-06
9.05184e-07
4.87636e-06
9.05105e-07
4.89933e-06
9.0506e-07
4.9248e-06
9.05049e-07
4.9527e-06
9.05076e-07
4.98288e-06
9.05125e-07
4.09559e-06
9.05194e-07
3.92546e-06
9.05278e-07
3.76208e-06
9.05374e-07
3.60508e-06
9.05478e-07
3.45415e-06
9.05587e-07
3.30901e-06
9.05698e-07
3.16944e-06
9.05811e-07
3.03521e-06
9.05922e-07
2.90612e-06
9.06032e-07
2.782e-06
9.06138e-07
2.66268e-06
9.06241e-07
2.548e-06
9.06338e-07
2.43781e-06
9.06431e-07
2.33195e-06
9.06518e-07
2.23029e-06
9.066e-07
2.13268e-06
9.06676e-07
2.039e-06
9.06746e-07
1.94911e-06
9.0681e-07
1.86289e-06
9.06868e-07
1.78021e-06
9.06921e-07
1.70094e-06
9.06969e-07
1.62496e-06
9.07011e-07
1.55217e-06
9.07047e-07
1.48244e-06
9.07078e-07
1.41568e-06
9.07103e-07
1.35178e-06
9.07127e-07
1.29063e-06
9.07155e-07
1.23212e-06
9.07187e-07
1.17613e-06
1.12261e-06
9.06393e-07
1.12328e-06
9.06402e-07
1.17733e-06
9.06413e-07
1.2341e-06
9.06425e-07
1.29358e-06
9.06438e-07
1.35586e-06
9.0645e-07
1.42106e-06
9.06463e-07
1.48929e-06
9.06477e-07
1.56071e-06
9.06493e-07
1.63545e-06
9.0651e-07
1.71366e-06
9.0653e-07
1.7955e-06
9.06551e-07
1.88111e-06
9.06574e-07
1.97065e-06
9.06599e-07
2.06431e-06
9.06627e-07
2.16224e-06
9.06657e-07
2.26463e-06
9.06689e-07
2.37166e-06
9.06723e-07
2.48352e-06
9.06761e-07
2.60041e-06
9.068e-07
2.72253e-06
9.06843e-07
2.85008e-06
9.06889e-07
2.98328e-06
9.06937e-07
3.12234e-06
9.06989e-07
3.26748e-06
9.07045e-07
3.41892e-06
9.07104e-07
3.57688e-06
9.07167e-07
3.7416e-06
9.07233e-07
3.91329e-06
9.07303e-07
4.09219e-06
9.07377e-07
4.27852e-06
9.07467e-07
5.21645e-06
9.07556e-07
5.19491e-06
9.07644e-07
5.17339e-06
9.07732e-07
5.15191e-06
9.07817e-07
5.13046e-06
9.079e-07
5.10907e-06
9.07979e-07
5.08777e-06
9.08054e-07
5.06659e-06
9.08123e-07
5.04557e-06
9.08185e-07
5.02478e-06
9.08238e-07
5.00425e-06
9.08281e-07
4.98407e-06
9.08312e-07
4.96429e-06
9.08329e-07
4.945e-06
9.08332e-07
4.92629e-06
9.08317e-07
4.90824e-06
9.08284e-07
4.89096e-06
9.08231e-07
4.87455e-06
9.08156e-07
4.85914e-06
9.08057e-07
4.84485e-06
9.07936e-07
4.83183e-06
9.07791e-07
4.82021e-06
9.07623e-07
4.81013e-06
9.07433e-07
4.80172e-06
9.07222e-07
4.79513e-06
9.06993e-07
4.79051e-06
9.06749e-07
4.78799e-06
9.06495e-07
4.78771e-06
9.06235e-07
4.78978e-06
9.05975e-07
4.79431e-06
9.05722e-07
4.80138e-06
9.05481e-07
4.81107e-06
9.05259e-07
4.82342e-06
9.05063e-07
4.83844e-06
9.04897e-07
4.85614e-06
9.04769e-07
4.87649e-06
9.04681e-07
4.89941e-06
9.04636e-07
4.92485e-06
9.04639e-07
4.9527e-06
9.04689e-07
4.98283e-06
9.04764e-07
4.09551e-06
9.04865e-07
3.92536e-06
9.04985e-07
3.76196e-06
9.05119e-07
3.60494e-06
9.05263e-07
3.454e-06
9.05413e-07
3.30886e-06
9.05566e-07
3.16928e-06
9.05719e-07
3.03505e-06
9.05871e-07
2.90597e-06
9.06019e-07
2.78186e-06
9.06162e-07
2.66254e-06
9.063e-07
2.54787e-06
9.0643e-07
2.43768e-06
9.06554e-07
2.33182e-06
9.0667e-07
2.23017e-06
9.06778e-07
2.13257e-06
9.06878e-07
2.0389e-06
9.0697e-07
1.94902e-06
9.07054e-07
1.86281e-06
9.07131e-07
1.78013e-06
9.072e-07
1.70087e-06
9.07261e-07
1.6249e-06
9.07315e-07
1.55211e-06
9.07362e-07
1.4824e-06
9.07401e-07
1.41564e-06
9.07433e-07
1.35175e-06
9.07463e-07
1.2906e-06
9.07493e-07
1.23209e-06
9.07524e-07
1.1761e-06
1.12259e-06
9.0614e-07
1.12328e-06
9.06152e-07
1.17732e-06
9.06166e-07
1.23408e-06
9.06181e-07
1.29356e-06
9.06195e-07
1.35585e-06
9.0621e-07
1.42104e-06
9.06225e-07
1.48928e-06
9.06242e-07
1.5607e-06
9.0626e-07
1.63544e-06
9.06281e-07
1.71364e-06
9.06304e-07
1.79547e-06
9.06329e-07
1.88108e-06
9.06357e-07
1.97062e-06
9.06388e-07
2.06427e-06
9.06421e-07
2.1622e-06
9.06457e-07
2.26459e-06
9.06496e-07
2.37162e-06
9.06539e-07
2.48348e-06
9.06584e-07
2.60036e-06
9.06633e-07
2.72248e-06
9.06686e-07
2.85003e-06
9.06742e-07
2.98323e-06
9.06802e-07
3.12228e-06
9.06866e-07
3.26742e-06
9.06935e-07
3.41885e-06
9.07008e-07
3.57681e-06
9.07085e-07
3.74152e-06
9.07167e-07
3.91321e-06
9.07254e-07
4.0921e-06
9.07345e-07
4.27843e-06
9.07456e-07
5.21634e-06
9.07567e-07
5.1948e-06
9.07676e-07
5.17328e-06
9.07785e-07
5.1518e-06
9.07891e-07
5.13036e-06
9.07993e-07
5.10897e-06
9.08092e-07
5.08767e-06
9.08185e-07
5.06649e-06
9.0827e-07
5.04549e-06
9.08347e-07
5.0247e-06
9.08414e-07
5.00419e-06
9.08468e-07
4.98402e-06
9.08509e-07
4.96425e-06
9.08532e-07
4.94498e-06
9.08538e-07
4.92628e-06
9.08524e-07
4.90825e-06
9.08487e-07
4.89099e-06
9.08426e-07
4.87461e-06
9.0834e-07
4.85923e-06
9.08226e-07
4.84497e-06
9.08084e-07
4.83197e-06
9.07915e-07
4.82038e-06
9.0772e-07
4.81033e-06
9.07498e-07
4.80194e-06
9.07253e-07
4.79538e-06
9.06986e-07
4.79078e-06
9.06704e-07
4.78827e-06
9.0641e-07
4.788e-06
9.06111e-07
4.79008e-06
9.05813e-07
4.7946e-06
9.05523e-07
4.80167e-06
9.0525e-07
4.81134e-06
9.05e-07
4.82366e-06
9.04782e-07
4.83866e-06
9.04602e-07
4.85632e-06
9.04467e-07
4.87662e-06
9.04381e-07
4.8995e-06
9.04348e-07
4.92488e-06
9.04371e-07
4.95267e-06
9.0445e-07
4.98276e-06
9.04557e-07
4.09541e-06
9.04693e-07
3.92522e-06
9.04851e-07
3.7618e-06
9.05026e-07
3.60477e-06
9.05211e-07
3.45382e-06
9.05402e-07
3.30867e-06
9.05596e-07
3.16909e-06
9.0579e-07
3.03486e-06
9.0598e-07
2.90578e-06
9.06166e-07
2.78167e-06
9.06345e-07
2.66236e-06
9.06516e-07
2.54769e-06
9.06678e-07
2.43751e-06
9.06831e-07
2.33167e-06
9.06974e-07
2.23003e-06
9.07106e-07
2.13244e-06
9.07229e-07
2.03878e-06
9.07341e-07
1.94891e-06
9.07443e-07
1.8627e-06
9.07536e-07
1.78004e-06
9.07619e-07
1.70078e-06
9.07692e-07
1.62483e-06
9.07756e-07
1.55205e-06
9.07811e-07
1.48234e-06
9.07857e-07
1.4156e-06
9.07894e-07
1.35171e-06
9.07925e-07
1.29057e-06
9.07954e-07
1.23206e-06
9.07978e-07
1.17607e-06
1.12257e-06
9.05822e-07
1.12327e-06
9.05835e-07
1.1773e-06
9.05851e-07
1.23407e-06
9.05868e-07
1.29354e-06
9.05884e-07
1.35583e-06
9.05901e-07
1.42103e-06
9.05918e-07
1.48926e-06
9.05936e-07
1.56068e-06
9.05957e-07
1.63541e-06
9.05981e-07
1.71362e-06
9.06007e-07
1.79545e-06
9.06036e-07
1.88105e-06
9.06068e-07
1.97059e-06
9.06103e-07
2.06424e-06
9.06142e-07
2.16216e-06
9.06184e-07
2.26455e-06
9.0623e-07
2.37157e-06
9.06279e-07
2.48343e-06
9.06332e-07
2.60031e-06
9.06389e-07
2.72242e-06
9.0645e-07
2.84997e-06
9.06516e-07
2.98316e-06
9.06587e-07
3.12221e-06
9.06662e-07
3.26734e-06
9.06743e-07
3.41877e-06
9.06828e-07
3.57672e-06
9.06919e-07
3.74143e-06
9.07016e-07
3.91311e-06
9.07118e-07
4.092e-06
9.07225e-07
4.27833e-06
9.07355e-07
5.21621e-06
9.07485e-07
5.19467e-06
9.07614e-07
5.17316e-06
9.07742e-07
5.15167e-06
9.07867e-07
5.13023e-06
9.07988e-07
5.10885e-06
9.08104e-07
5.08755e-06
9.08214e-07
5.06638e-06
9.08316e-07
5.04539e-06
9.08407e-07
5.02461e-06
9.08487e-07
5.00411e-06
9.08553e-07
4.98395e-06
9.08603e-07
4.9642e-06
9.08634e-07
4.94495e-06
9.08645e-07
4.92627e-06
9.08633e-07
4.90827e-06
9.08595e-07
4.89103e-06
9.08531e-07
4.87468e-06
9.08438e-07
4.85932e-06
9.08314e-07
4.84509e-06
9.08159e-07
4.83213e-06
9.07975e-07
4.82057e-06
9.0776e-07
4.81054e-06
9.07517e-07
4.80219e-06
9.07249e-07
4.79565e-06
9.06958e-07
4.79107e-06
9.0665e-07
4.78858e-06
9.0633e-07
4.78832e-06
9.06006e-07
4.7904e-06
9.05685e-07
4.79492e-06
9.05374e-07
4.80198e-06
9.05084e-07
4.81163e-06
9.04822e-07
4.82393e-06
9.04597e-07
4.83889e-06
9.04417e-07
4.8565e-06
9.04287e-07
4.87675e-06
9.04215e-07
4.89957e-06
9.04204e-07
4.92489e-06
9.04256e-07
4.95262e-06
9.04373e-07
4.98264e-06
9.04516e-07
4.09526e-06
9.04691e-07
3.92505e-06
9.0489e-07
3.7616e-06
9.05107e-07
3.60455e-06
9.05334e-07
3.45359e-06
9.05567e-07
3.30844e-06
9.05802e-07
3.16885e-06
9.06035e-07
3.03462e-06
9.06264e-07
2.90555e-06
9.06486e-07
2.78145e-06
9.06699e-07
2.66215e-06
9.06902e-07
2.54749e-06
9.07094e-07
2.43732e-06
9.07274e-07
2.33149e-06
9.07442e-07
2.22986e-06
9.07598e-07
2.13229e-06
9.07741e-07
2.03864e-06
9.07871e-07
1.94878e-06
9.0799e-07
1.86259e-06
9.08097e-07
1.77993e-06
9.08192e-07
1.70069e-06
9.08276e-07
1.62474e-06
9.08349e-07
1.55198e-06
9.08411e-07
1.48228e-06
9.08462e-07
1.41555e-06
9.08503e-07
1.35167e-06
9.08536e-07
1.29053e-06
9.08562e-07
1.23203e-06
9.08582e-07
1.17605e-06
1.12256e-06
9.0544e-07
1.12327e-06
9.05453e-07
1.17729e-06
9.0547e-07
1.23405e-06
9.05487e-07
1.29353e-06
9.05505e-07
1.35581e-06
9.05523e-07
1.42101e-06
9.05541e-07
1.48924e-06
9.05561e-07
1.56066e-06
9.05584e-07
1.63539e-06
9.0561e-07
1.7136e-06
9.05639e-07
1.79542e-06
9.05671e-07
1.88102e-06
9.05707e-07
1.97056e-06
9.05746e-07
2.0642e-06
9.05789e-07
2.16212e-06
9.05836e-07
2.2645e-06
9.05887e-07
2.37152e-06
9.05942e-07
2.48337e-06
9.06002e-07
2.60025e-06
9.06067e-07
2.72236e-06
9.06136e-07
2.8499e-06
9.0621e-07
2.98309e-06
9.0629e-07
3.12213e-06
9.06375e-07
3.26726e-06
9.06466e-07
3.41868e-06
9.06563e-07
3.57663e-06
9.06666e-07
3.74133e-06
9.06776e-07
3.913e-06
9.06892e-07
4.09188e-06
9.07013e-07
4.27821e-06
9.07161e-07
5.21606e-06
9.07309e-07
5.19452e-06
9.07456e-07
5.17301e-06
9.07601e-07
5.15153e-06
9.07743e-07
5.13009e-06
9.07881e-07
5.10871e-06
9.08014e-07
5.08742e-06
9.0814e-07
5.06626e-06
9.08256e-07
5.04527e-06
9.08362e-07
5.0245e-06
9.08455e-07
5.00402e-06
9.08533e-07
4.98387e-06
9.08592e-07
4.96414e-06
9.08632e-07
4.94491e-06
9.0865e-07
4.92625e-06
9.08642e-07
4.90827e-06
9.08608e-07
4.89107e-06
9.08544e-07
4.87474e-06
9.08449e-07
4.85941e-06
9.08322e-07
4.84522e-06
9.08161e-07
4.83229e-06
9.07969e-07
4.82076e-06
9.07745e-07
4.81077e-06
9.07491e-07
4.80244e-06
9.0721e-07
4.79593e-06
9.06907e-07
4.79137e-06
9.06587e-07
4.7889e-06
9.06255e-07
4.78865e-06
9.0592e-07
4.79074e-06
9.05591e-07
4.79525e-06
9.05275e-07
4.80229e-06
9.04983e-07
4.81192e-06
9.04723e-07
4.82419e-06
9.04506e-07
4.8391e-06
9.04338e-07
4.85667e-06
9.04228e-07
4.87686e-06
9.04182e-07
4.89962e-06
9.04203e-07
4.92487e-06
9.04294e-07
4.95253e-06
9.04456e-07
4.98248e-06
9.04641e-07
4.09508e-06
9.0486e-07
3.92483e-06
9.05103e-07
3.76136e-06
9.05364e-07
3.60429e-06
9.05634e-07
3.45332e-06
9.0591e-07
3.30816e-06
9.06187e-07
3.16858e-06
9.06459e-07
3.03435e-06
9.06726e-07
2.90528e-06
9.06983e-07
2.78119e-06
9.07229e-07
2.6619e-06
9.07463e-07
2.54726e-06
9.07684e-07
2.4371e-06
9.0789e-07
2.33129e-06
9.08082e-07
2.22967e-06
9.08259e-07
2.13211e-06
9.08421e-07
2.03847e-06
9.08569e-07
1.94863e-06
9.08702e-07
1.86245e-06
9.08822e-07
1.77981e-06
9.08929e-07
1.70058e-06
9.09022e-07
1.62465e-06
9.09104e-07
1.5519e-06
9.09173e-07
1.48221e-06
9.09229e-07
1.41549e-06
9.09275e-07
1.35162e-06
9.0931e-07
1.2905e-06
9.09336e-07
1.23201e-06
9.09354e-07
1.17604e-06
1.12255e-06
9.0499e-07
1.12326e-06
9.05002e-07
1.17728e-06
9.05019e-07
1.23403e-06
9.05037e-07
1.29351e-06
9.05055e-07
1.35579e-06
9.05073e-07
1.42099e-06
9.05093e-07
1.48922e-06
9.05115e-07
1.56064e-06
9.05139e-07
1.63537e-06
9.05167e-07
1.71357e-06
9.05198e-07
1.79539e-06
9.05233e-07
1.88098e-06
9.05271e-07
1.97052e-06
9.05314e-07
2.06416e-06
9.05361e-07
2.16207e-06
9.05412e-07
2.26445e-06
9.05468e-07
2.37146e-06
9.05529e-07
2.48331e-06
9.05595e-07
2.60019e-06
9.05665e-07
2.72229e-06
9.05742e-07
2.84982e-06
9.05824e-07
2.983e-06
9.05911e-07
3.12204e-06
9.06005e-07
3.26716e-06
9.06106e-07
3.41858e-06
9.06213e-07
3.57652e-06
9.06327e-07
3.74121e-06
9.06448e-07
3.91288e-06
9.06576e-07
4.09176e-06
9.0671e-07
4.27807e-06
9.06875e-07
5.2159e-06
9.07038e-07
5.19436e-06
9.07201e-07
5.17285e-06
9.07362e-07
5.15137e-06
9.0752e-07
5.12993e-06
9.07674e-07
5.10855e-06
9.07822e-07
5.08727e-06
9.07963e-07
5.06612e-06
9.08094e-07
5.04514e-06
9.08213e-07
5.02438e-06
9.08319e-07
5.00391e-06
9.08408e-07
4.98378e-06
9.08479e-07
4.96407e-06
9.08529e-07
4.94486e-06
9.08556e-07
4.92623e-06
9.08556e-07
4.90827e-06
9.08527e-07
4.89109e-06
9.08468e-07
4.8748e-06
9.08377e-07
4.85951e-06
9.08252e-07
4.84534e-06
9.08092e-07
4.83245e-06
9.079e-07
4.82095e-06
9.07675e-07
4.81099e-06
9.07421e-07
4.8027e-06
9.07139e-07
4.79621e-06
9.06835e-07
4.79168e-06
9.06515e-07
4.78922e-06
9.06185e-07
4.78898e-06
9.05853e-07
4.79107e-06
9.0553e-07
4.79558e-06
9.05223e-07
4.8026e-06
9.04943e-07
4.8122e-06
9.04701e-07
4.82443e-06
9.04505e-07
4.8393e-06
9.04364e-07
4.85681e-06
9.04286e-07
4.87694e-06
9.04276e-07
4.89963e-06
9.0434e-07
4.92481e-06
9.0448e-07
4.95239e-06
9.04697e-07
4.98226e-06
9.04929e-07
4.09484e-06
9.05195e-07
3.92456e-06
9.05486e-07
3.76107e-06
9.05793e-07
3.60399e-06
9.0611e-07
3.453e-06
9.0643e-07
3.30784e-06
9.06748e-07
3.16826e-06
9.07061e-07
3.03404e-06
9.07365e-07
2.90498e-06
9.07657e-07
2.7809e-06
9.07936e-07
2.66162e-06
9.08201e-07
2.54699e-06
9.08449e-07
2.43685e-06
9.0868e-07
2.33105e-06
9.08895e-07
2.22945e-06
9.09093e-07
2.13191e-06
9.09273e-07
2.03829e-06
9.09437e-07
1.94847e-06
9.09585e-07
1.8623e-06
9.09717e-07
1.77968e-06
9.09835e-07
1.70047e-06
9.09938e-07
1.62455e-06
9.10026e-07
1.55181e-06
9.10102e-07
1.48214e-06
9.10164e-07
1.41543e-06
9.10213e-07
1.35157e-06
9.10252e-07
1.29046e-06
9.10279e-07
1.23198e-06
9.10297e-07
1.17602e-06
1.12255e-06
9.04465e-07
1.12325e-06
9.04477e-07
1.17726e-06
9.04493e-07
1.23402e-06
9.04511e-07
1.29349e-06
9.0453e-07
1.35577e-06
9.0455e-07
1.42097e-06
9.04571e-07
1.4892e-06
9.04594e-07
1.56061e-06
9.0462e-07
1.63534e-06
9.0465e-07
1.71354e-06
9.04683e-07
1.79535e-06
9.0472e-07
1.88095e-06
9.04761e-07
1.97048e-06
9.04807e-07
2.06411e-06
9.04857e-07
2.16202e-06
9.04912e-07
2.26439e-06
9.04972e-07
2.3714e-06
9.05038e-07
2.48325e-06
9.05108e-07
2.60012e-06
9.05185e-07
2.72221e-06
9.05267e-07
2.84974e-06
9.05356e-07
2.98292e-06
9.05451e-07
3.12195e-06
9.05553e-07
3.26706e-06
9.05661e-07
3.41847e-06
9.05777e-07
3.5764e-06
9.05901e-07
3.74109e-06
9.06032e-07
3.91275e-06
9.06171e-07
4.09162e-06
9.06317e-07
4.27792e-06
9.06495e-07
5.21572e-06
9.06673e-07
5.19418e-06
9.0685e-07
5.17267e-06
9.07026e-07
5.15119e-06
9.07199e-07
5.12976e-06
9.07367e-07
5.10839e-06
9.07529e-07
5.08711e-06
9.07684e-07
5.06596e-06
9.07828e-07
5.04499e-06
9.07961e-07
5.02425e-06
9.0808e-07
5.00379e-06
9.08182e-07
4.98368e-06
9.08265e-07
4.96399e-06
9.08326e-07
4.9448e-06
9.08364e-07
4.92619e-06
9.08374e-07
4.90826e-06
9.08355e-07
4.89111e-06
9.08306e-07
4.87485e-06
9.08223e-07
4.85959e-06
9.08106e-07
4.84546e-06
9.07955e-07
4.8326e-06
9.07771e-07
4.82114e-06
9.07554e-07
4.81121e-06
9.07308e-07
4.80294e-06
9.07036e-07
4.79648e-06
9.06743e-07
4.79197e-06
9.06435e-07
4.78953e-06
9.0612e-07
4.7893e-06
9.05805e-07
4.79138e-06
9.05501e-07
4.79588e-06
9.05217e-07
4.80288e-06
9.04964e-07
4.81246e-06
9.04752e-07
4.82464e-06
9.04591e-07
4.83946e-06
9.0449e-07
4.85691e-06
9.04456e-07
4.87697e-06
9.04496e-07
4.89959e-06
9.04613e-07
4.92469e-06
9.04811e-07
4.95219e-06
9.0509e-07
4.98198e-06
9.05376e-07
4.09456e-06
9.05694e-07
3.92424e-06
9.06036e-07
3.76073e-06
9.06393e-07
3.60363e-06
9.06758e-07
3.45264e-06
9.07124e-07
3.30748e-06
9.07486e-07
3.1679e-06
9.07839e-07
3.03369e-06
9.08182e-07
2.90464e-06
9.0851e-07
2.78057e-06
9.08822e-07
2.66131e-06
9.09116e-07
2.5467e-06
9.09392e-07
2.43658e-06
9.09648e-07
2.3308e-06
9.09885e-07
2.22922e-06
9.10103e-07
2.13169e-06
9.10301e-07
2.0381e-06
9.10481e-07
1.94829e-06
9.10643e-07
1.86214e-06
9.10787e-07
1.77953e-06
9.10914e-07
1.70034e-06
9.11026e-07
1.62443e-06
9.11122e-07
1.55171e-06
9.11203e-07
1.48205e-06
9.1127e-07
1.41536e-06
9.11323e-07
1.35152e-06
9.11364e-07
1.29042e-06
9.11393e-07
1.23195e-06
9.11411e-07
1.176e-06
1.12254e-06
9.03862e-07
1.12325e-06
9.03874e-07
1.17725e-06
9.0389e-07
1.234e-06
9.03908e-07
1.29347e-06
9.03928e-07
1.35575e-06
9.03949e-07
1.42095e-06
9.03972e-07
1.48918e-06
9.03997e-07
1.56059e-06
9.04024e-07
1.63531e-06
9.04056e-07
1.71351e-06
9.04091e-07
1.79532e-06
9.0413e-07
1.88091e-06
9.04174e-07
1.97043e-06
9.04222e-07
2.06406e-06
9.04275e-07
2.16197e-06
9.04334e-07
2.26434e-06
9.04397e-07
2.37134e-06
9.04467e-07
2.48318e-06
9.04542e-07
2.60004e-06
9.04623e-07
2.72213e-06
9.04711e-07
2.84965e-06
9.04805e-07
2.98282e-06
9.04906e-07
3.12185e-06
9.05015e-07
3.26695e-06
9.05131e-07
3.41835e-06
9.05255e-07
3.57628e-06
9.05387e-07
3.74096e-06
9.05527e-07
3.91261e-06
9.05675e-07
4.09147e-06
9.05831e-07
4.27777e-06
9.06022e-07
5.21553e-06
9.06213e-07
5.19399e-06
9.06403e-07
5.17248e-06
9.06591e-07
5.151e-06
9.06777e-07
5.12957e-06
9.06958e-07
5.10821e-06
9.07134e-07
5.08693e-06
9.07302e-07
5.0658e-06
9.0746e-07
5.04484e-06
9.07606e-07
5.0241e-06
9.07738e-07
5.00366e-06
9.07853e-07
4.98357e-06
9.07949e-07
4.96389e-06
9.08024e-07
4.94472e-06
9.08074e-07
4.92614e-06
9.08098e-07
4.90824e-06
9.08093e-07
4.89112e-06
9.08057e-07
4.87488e-06
9.07988e-07
4.85966e-06
9.07885e-07
4.84556e-06
9.07749e-07
4.83273e-06
9.07581e-07
4.82131e-06
9.07382e-07
4.81141e-06
9.07155e-07
4.80317e-06
9.06903e-07
4.79673e-06
9.06632e-07
4.79224e-06
9.06348e-07
4.78982e-06
9.0606e-07
4.78959e-06
9.05775e-07
4.79167e-06
9.05504e-07
4.79615e-06
9.05257e-07
4.80313e-06
9.05045e-07
4.81267e-06
9.04877e-07
4.82481e-06
9.04764e-07
4.83957e-06
9.04715e-07
4.85696e-06
9.04738e-07
4.87695e-06
9.04838e-07
4.89949e-06
9.0502e-07
4.92451e-06
9.05286e-07
4.95193e-06
9.05635e-07
4.98163e-06
9.0598e-07
4.09421e-06
9.06357e-07
3.92387e-06
9.06755e-07
3.76033e-06
9.07165e-07
3.60322e-06
9.07581e-07
3.45222e-06
9.07995e-07
3.30706e-06
9.08402e-07
3.16749e-06
9.08798e-07
3.03329e-06
9.09179e-07
2.90426e-06
9.09543e-07
2.78021e-06
9.09888e-07
2.66097e-06
9.10213e-07
2.54637e-06
9.10516e-07
2.43627e-06
9.10797e-07
2.33052e-06
9.11057e-07
2.22896e-06
9.11294e-07
2.13146e-06
9.1151e-07
2.03788e-06
9.11705e-07
1.94809e-06
9.1188e-07
1.86197e-06
9.12036e-07
1.77938e-06
9.12173e-07
1.7002e-06
9.12293e-07
1.62432e-06
9.12395e-07
1.55161e-06
9.12482e-07
1.48197e-06
9.12554e-07
1.41529e-06
9.1261e-07
1.35146e-06
9.12654e-07
1.29038e-06
9.12685e-07
1.23192e-06
9.12705e-07
1.17598e-06
1.12253e-06
9.03181e-07
1.12324e-06
9.03193e-07
1.17724e-06
9.03209e-07
1.23399e-06
9.03227e-07
1.29345e-06
9.03248e-07
1.35573e-06
9.0327e-07
1.42093e-06
9.03294e-07
1.48916e-06
9.0332e-07
1.56056e-06
9.03349e-07
1.63528e-06
9.03382e-07
1.71347e-06
9.03419e-07
1.79528e-06
9.0346e-07
1.88087e-06
9.03506e-07
1.97039e-06
9.03557e-07
2.06401e-06
9.03613e-07
2.16192e-06
9.03674e-07
2.26427e-06
9.03741e-07
2.37127e-06
9.03814e-07
2.4831e-06
9.03893e-07
2.59996e-06
9.03979e-07
2.72204e-06
9.04071e-07
2.84956e-06
9.0417e-07
2.98272e-06
9.04277e-07
3.12174e-06
9.04391e-07
3.26684e-06
9.04513e-07
3.41823e-06
9.04644e-07
3.57615e-06
9.04783e-07
3.74082e-06
9.0493e-07
3.91246e-06
9.05086e-07
4.09131e-06
9.05251e-07
4.2776e-06
9.05453e-07
5.21533e-06
9.05655e-07
5.19379e-06
9.05857e-07
5.17228e-06
9.06057e-07
5.1508e-06
9.06255e-07
5.12937e-06
9.06448e-07
5.10801e-06
9.06636e-07
5.08675e-06
9.06816e-07
5.06562e-06
9.06987e-07
5.04467e-06
9.07146e-07
5.02395e-06
9.07292e-07
5.00351e-06
9.07421e-07
4.98344e-06
9.07532e-07
4.96378e-06
9.07621e-07
4.94463e-06
9.07687e-07
4.92607e-06
9.07727e-07
4.9082e-06
9.07739e-07
4.89111e-06
9.07721e-07
4.8749e-06
9.07672e-07
4.85971e-06
9.0759e-07
4.84564e-06
9.07476e-07
4.83285e-06
9.07332e-07
4.82145e-06
9.07159e-07
4.81158e-06
9.06959e-07
4.80337e-06
9.06738e-07
4.79696e-06
9.065e-07
4.79248e-06
9.06253e-07
4.79006e-06
9.06004e-07
4.78984e-06
9.05763e-07
4.79191e-06
9.05538e-07
4.79638e-06
9.05341e-07
4.80333e-06
9.05183e-07
4.81283e-06
9.05073e-07
4.82492e-06
9.05022e-07
4.83962e-06
9.05038e-07
4.85695e-06
9.0513e-07
4.87686e-06
9.05302e-07
4.89931e-06
9.05559e-07
4.92425e-06
9.05903e-07
4.95158e-06
9.06332e-07
4.9812e-06
9.06743e-07
4.0938e-06
9.07183e-07
3.92343e-06
9.07642e-07
3.75987e-06
9.0811e-07
3.60275e-06
9.08579e-07
3.45175e-06
9.09044e-07
3.3066e-06
9.09499e-07
3.16704e-06
9.09939e-07
3.03285e-06
9.10361e-07
2.90383e-06
9.10762e-07
2.7798e-06
9.11141e-07
2.66059e-06
9.11497e-07
2.54602e-06
9.11828e-07
2.43594e-06
9.12134e-07
2.33021e-06
9.12415e-07
2.22868e-06
9.12673e-07
2.1312e-06
9.12906e-07
2.03765e-06
9.13116e-07
1.94788e-06
9.13304e-07
1.86178e-06
9.13471e-07
1.77921e-06
9.13618e-07
1.70005e-06
9.13746e-07
1.62419e-06
9.13855e-07
1.5515e-06
9.13948e-07
1.48188e-06
9.14024e-07
1.41521e-06
9.14085e-07
1.3514e-06
9.14132e-07
1.29033e-06
9.14165e-07
1.23188e-06
9.14187e-07
1.17596e-06
1.12252e-06
9.02422e-07
1.12324e-06
9.02433e-07
1.17723e-06
9.02448e-07
1.23397e-06
9.02466e-07
1.29344e-06
9.02487e-07
1.35571e-06
9.0251e-07
1.4209e-06
9.02535e-07
1.48913e-06
9.02562e-07
1.56053e-06
9.02593e-07
1.63525e-06
9.02628e-07
1.71344e-06
9.02666e-07
1.79524e-06
9.0271e-07
1.88082e-06
9.02757e-07
1.97034e-06
9.0281e-07
2.06396e-06
9.02869e-07
2.16186e-06
9.02932e-07
2.26421e-06
9.03002e-07
2.3712e-06
9.03078e-07
2.48303e-06
9.0316e-07
2.59988e-06
9.03249e-07
2.72196e-06
9.03345e-07
2.84947e-06
9.03449e-07
2.98262e-06
9.0356e-07
3.12163e-06
9.03679e-07
3.26672e-06
9.03807e-07
3.4181e-06
9.03943e-07
3.57601e-06
9.04088e-07
3.74067e-06
9.04242e-07
3.91231e-06
9.04405e-07
4.09115e-06
9.04577e-07
4.27743e-06
9.04789e-07
5.21512e-06
9.05001e-07
5.19357e-06
9.05212e-07
5.17207e-06
9.05423e-07
5.15059e-06
9.05631e-07
5.12917e-06
9.05835e-07
5.10781e-06
9.06034e-07
5.08655e-06
9.06227e-07
5.06542e-06
9.0641e-07
5.04448e-06
9.06583e-07
5.02377e-06
9.06742e-07
5.00335e-06
9.06887e-07
4.98329e-06
9.07013e-07
4.96366e-06
9.0712e-07
4.94453e-06
9.07204e-07
4.92599e-06
9.07263e-07
4.90814e-06
9.07296e-07
4.89107e-06
9.07301e-07
4.8749e-06
9.07276e-07
4.85973e-06
9.07221e-07
4.8457e-06
9.07136e-07
4.83293e-06
9.07023e-07
4.82156e-06
9.06884e-07
4.81172e-06
9.06723e-07
4.80353e-06
9.06542e-07
4.79714e-06
9.06349e-07
4.79267e-06
9.06149e-07
4.79026e-06
9.05952e-07
4.79003e-06
9.05766e-07
4.79209e-06
9.05601e-07
4.79654e-06
9.05467e-07
4.80346e-06
9.05376e-07
4.81292e-06
9.05337e-07
4.82496e-06
9.05361e-07
4.8396e-06
9.05455e-07
4.85685e-06
9.05628e-07
4.87669e-06
9.05885e-07
4.89906e-06
9.06228e-07
4.92391e-06
9.0666e-07
4.95115e-06
9.07178e-07
4.98068e-06
9.07663e-07
4.09332e-06
9.08173e-07
3.92292e-06
9.08697e-07
3.75935e-06
9.09227e-07
3.60222e-06
9.09755e-07
3.45123e-06
9.10274e-07
3.30608e-06
9.10778e-07
3.16653e-06
9.11264e-07
3.03236e-06
9.11729e-07
2.90337e-06
9.12169e-07
2.77936e-06
9.12583e-07
2.66017e-06
9.12971e-07
2.54563e-06
9.1333e-07
2.43558e-06
9.13662e-07
2.32988e-06
9.13967e-07
2.22837e-06
9.14244e-07
2.13092e-06
9.14495e-07
2.0374e-06
9.14721e-07
1.94766e-06
9.14922e-07
1.86158e-06
9.15101e-07
1.77903e-06
9.15257e-07
1.6999e-06
9.15393e-07
1.62405e-06
9.1551e-07
1.55138e-06
9.15608e-07
1.48178e-06
9.1569e-07
1.41513e-06
9.15756e-07
1.35134e-06
9.15807e-07
1.29028e-06
9.15844e-07
1.23185e-06
9.15868e-07
1.17593e-06
1.1225e-06
9.01582e-07
1.12323e-06
9.01592e-07
1.17722e-06
9.01607e-07
1.23396e-06
9.01624e-07
1.29342e-06
9.01645e-07
1.35569e-06
9.01668e-07
1.42088e-06
9.01694e-07
1.48911e-06
9.01723e-07
1.56051e-06
9.01755e-07
1.63522e-06
9.01791e-07
1.7134e-06
9.01831e-07
1.7952e-06
9.01876e-07
1.88078e-06
9.01926e-07
1.97029e-06
9.0198e-07
2.06391e-06
9.02041e-07
2.1618e-06
9.02107e-07
2.26414e-06
9.02179e-07
2.37113e-06
9.02257e-07
2.48295e-06
9.02342e-07
2.59979e-06
9.02434e-07
2.72186e-06
9.02533e-07
2.84937e-06
9.0264e-07
2.98251e-06
9.02755e-07
3.12152e-06
9.02878e-07
3.26659e-06
9.0301e-07
3.41797e-06
9.03151e-07
3.57587e-06
9.03301e-07
3.74052e-06
9.0346e-07
3.91215e-06
9.03629e-07
4.09098e-06
9.03808e-07
4.27725e-06
9.04027e-07
5.2149e-06
9.04247e-07
5.19335e-06
9.04468e-07
5.17185e-06
9.04687e-07
5.15037e-06
9.04905e-07
5.12895e-06
9.0512e-07
5.10759e-06
9.0533e-07
5.08634e-06
9.05534e-07
5.06522e-06
9.05729e-07
5.04429e-06
9.05916e-07