/*--------------------------------*- C++ -*----------------------------------*\
  =========                 |
  \\      /  F ield         | OpenFOAM: The Open Source CFD Toolbox
   \\    /   O peration     | Website:  https://openfoam.org
    \\  /    A nd           | Version:  9
     \\/     M anipulation  |
\*---------------------------------------------------------------------------*/
FoamFile
{
    format      ascii;
    class       volScalarField;
    location    "0.02";
    object      rAU;
}
// * * * * * * * * * * * * * * * * * * * * * * * * * * * * * * * * * * * * * //

dimensions      [-1 3 1 0 0 0 0];

internalField   nonuniform List<scalar> 
20000
(
1.63617e-05
2.05543e-05
2.09094e-05
2.12467e-05
2.15668e-05
2.18701e-05
2.21572e-05
2.24287e-05
2.26851e-05
2.29272e-05
2.31556e-05
2.3371e-05
2.35742e-05
2.37658e-05
2.39465e-05
2.41171e-05
2.42781e-05
2.44303e-05
2.45742e-05
2.47105e-05
2.48397e-05
2.49623e-05
2.5079e-05
2.51902e-05
2.52964e-05
2.53981e-05
2.54957e-05
2.55897e-05
2.56804e-05
2.57809e-05
2.60094e-05
2.6053e-05
2.60854e-05
2.61179e-05
2.61504e-05
2.61828e-05
2.62153e-05
2.62476e-05
2.62797e-05
2.63116e-05
2.63432e-05
2.63743e-05
2.64048e-05
2.64347e-05
2.64637e-05
2.64918e-05
2.65187e-05
2.65444e-05
2.65685e-05
2.65909e-05
2.66113e-05
2.66296e-05
2.66455e-05
2.66587e-05
2.66691e-05
2.66764e-05
2.66803e-05
2.66807e-05
2.66774e-05
2.66702e-05
2.66589e-05
2.66435e-05
2.66239e-05
2.66001e-05
2.65722e-05
2.65402e-05
2.65042e-05
2.64644e-05
2.6421e-05
2.63626e-05
2.61131e-05
2.59952e-05
2.58867e-05
2.57746e-05
2.56587e-05
2.55389e-05
2.54148e-05
2.52862e-05
2.51527e-05
2.50138e-05
2.48691e-05
2.4718e-05
2.45601e-05
2.43947e-05
2.42211e-05
2.40389e-05
2.38472e-05
2.36455e-05
2.34329e-05
2.32089e-05
2.29726e-05
2.27233e-05
2.24603e-05
2.2183e-05
2.18906e-05
2.15824e-05
2.12579e-05
2.09166e-05
2.05582e-05
2.19708e-05
1.87413e-05
2.44514e-05
2.49522e-05
2.54305e-05
2.58864e-05
2.63201e-05
2.67321e-05
2.71228e-05
2.74928e-05
2.78428e-05
2.81734e-05
2.84854e-05
2.87796e-05
2.9057e-05
2.93182e-05
2.95642e-05
2.97957e-05
3.00136e-05
3.02187e-05
3.04118e-05
3.05937e-05
3.0765e-05
3.09265e-05
3.10788e-05
3.12227e-05
3.13587e-05
3.14874e-05
3.16093e-05
3.17251e-05
3.18543e-05
3.21758e-05
3.22115e-05
3.223e-05
3.22486e-05
3.22671e-05
3.22856e-05
3.2304e-05
3.23224e-05
3.23406e-05
3.23587e-05
3.23766e-05
3.23942e-05
3.24114e-05
3.24283e-05
3.24446e-05
3.24604e-05
3.24756e-05
3.249e-05
3.25036e-05
3.25162e-05
3.25277e-05
3.25379e-05
3.25469e-05
3.25544e-05
3.25602e-05
3.25644e-05
3.25667e-05
3.2567e-05
3.25652e-05
3.25613e-05
3.25551e-05
3.25466e-05
3.25357e-05
3.25225e-05
3.25069e-05
3.2489e-05
3.24688e-05
3.24464e-05
3.2422e-05
3.23782e-05
3.20445e-05
3.19054e-05
3.17795e-05
3.16472e-05
3.15081e-05
3.13617e-05
3.12076e-05
3.10452e-05
3.0874e-05
3.06933e-05
3.05025e-05
3.03008e-05
3.00876e-05
2.98619e-05
2.96232e-05
2.93704e-05
2.91029e-05
2.88197e-05
2.852e-05
2.8203e-05
2.78678e-05
2.75138e-05
2.714e-05
2.6746e-05
2.63309e-05
2.58944e-05
2.54361e-05
2.49556e-05
2.4453e-05
2.64849e-05
1.87416e-05
2.44517e-05
2.49525e-05
2.54308e-05
2.58867e-05
2.63204e-05
2.67324e-05
2.71231e-05
2.74931e-05
2.7843e-05
2.81736e-05
2.84856e-05
2.87798e-05
2.90572e-05
2.93184e-05
2.95643e-05
2.97958e-05
3.00137e-05
3.02188e-05
3.04119e-05
3.05937e-05
3.0765e-05
3.09265e-05
3.10789e-05
3.12227e-05
3.13587e-05
3.14873e-05
3.16093e-05
3.1725e-05
3.18542e-05
3.21757e-05
3.22114e-05
3.22299e-05
3.22484e-05
3.22669e-05
3.22854e-05
3.23038e-05
3.23222e-05
3.23404e-05
3.23584e-05
3.23763e-05
3.23939e-05
3.24111e-05
3.24279e-05
3.24443e-05
3.24601e-05
3.24753e-05
3.24897e-05
3.25032e-05
3.25158e-05
3.25273e-05
3.25376e-05
3.25466e-05
3.25541e-05
3.256e-05
3.25642e-05
3.25665e-05
3.25669e-05
3.25652e-05
3.25613e-05
3.25552e-05
3.25467e-05
3.25359e-05
3.25227e-05
3.25072e-05
3.24893e-05
3.24692e-05
3.24469e-05
3.24224e-05
3.23786e-05
3.20451e-05
3.1906e-05
3.17801e-05
3.16478e-05
3.15086e-05
3.13622e-05
3.12081e-05
3.10457e-05
3.08745e-05
3.06937e-05
3.05028e-05
3.03011e-05
3.00878e-05
2.98621e-05
2.96233e-05
2.93705e-05
2.91029e-05
2.88197e-05
2.85199e-05
2.82029e-05
2.78677e-05
2.75135e-05
2.71397e-05
2.67456e-05
2.63306e-05
2.5894e-05
2.54356e-05
2.49551e-05
2.44525e-05
2.64842e-05
1.8742e-05
2.44521e-05
2.49529e-05
2.54312e-05
2.58871e-05
2.63208e-05
2.67328e-05
2.71235e-05
2.74935e-05
2.78434e-05
2.81739e-05
2.84859e-05
2.87802e-05
2.90575e-05
2.93187e-05
2.95646e-05
2.97961e-05
3.0014e-05
3.02191e-05
3.04121e-05
3.05939e-05
3.07652e-05
3.09267e-05
3.1079e-05
3.12228e-05
3.13587e-05
3.14874e-05
3.16093e-05
3.1725e-05
3.18542e-05
3.21757e-05
3.22114e-05
3.22299e-05
3.22484e-05
3.22669e-05
3.22853e-05
3.23037e-05
3.2322e-05
3.23402e-05
3.23583e-05
3.23761e-05
3.23936e-05
3.24109e-05
3.24277e-05
3.2444e-05
3.24598e-05
3.2475e-05
3.24894e-05
3.25029e-05
3.25155e-05
3.2527e-05
3.25373e-05
3.25463e-05
3.25538e-05
3.25598e-05
3.2564e-05
3.25663e-05
3.25667e-05
3.25651e-05
3.25612e-05
3.25552e-05
3.25468e-05
3.2536e-05
3.25229e-05
3.25074e-05
3.24896e-05
3.24695e-05
3.24472e-05
3.24228e-05
3.2379e-05
3.20456e-05
3.19064e-05
3.17806e-05
3.16482e-05
3.15091e-05
3.13627e-05
3.12085e-05
3.10461e-05
3.08748e-05
3.0694e-05
3.0503e-05
3.03013e-05
3.00879e-05
2.98621e-05
2.96233e-05
2.93704e-05
2.91027e-05
2.88194e-05
2.85196e-05
2.82025e-05
2.78672e-05
2.7513e-05
2.71392e-05
2.6745e-05
2.63299e-05
2.58933e-05
2.54349e-05
2.49544e-05
2.44517e-05
2.64832e-05
1.87426e-05
2.44527e-05
2.49535e-05
2.54318e-05
2.58876e-05
2.63214e-05
2.67333e-05
2.7124e-05
2.7494e-05
2.78439e-05
2.81744e-05
2.84864e-05
2.87806e-05
2.90579e-05
2.93191e-05
2.9565e-05
2.97965e-05
3.00143e-05
3.02194e-05
3.04124e-05
3.05942e-05
3.07655e-05
3.09269e-05
3.10792e-05
3.1223e-05
3.13589e-05
3.14876e-05
3.16095e-05
3.17252e-05
3.18543e-05
3.21758e-05
3.22115e-05
3.22299e-05
3.22484e-05
3.22669e-05
3.22853e-05
3.23037e-05
3.2322e-05
3.23402e-05
3.23582e-05
3.2376e-05
3.23935e-05
3.24107e-05
3.24275e-05
3.24439e-05
3.24596e-05
3.24748e-05
3.24891e-05
3.25027e-05
3.25153e-05
3.25268e-05
3.25371e-05
3.25461e-05
3.25536e-05
3.25595e-05
3.25637e-05
3.25661e-05
3.25666e-05
3.25649e-05
3.25611e-05
3.25551e-05
3.25467e-05
3.2536e-05
3.2523e-05
3.25075e-05
3.24898e-05
3.24697e-05
3.24474e-05
3.24231e-05
3.23793e-05
3.20459e-05
3.19068e-05
3.17809e-05
3.16486e-05
3.15094e-05
3.13629e-05
3.12087e-05
3.10462e-05
3.08749e-05
3.0694e-05
3.0503e-05
3.03012e-05
3.00877e-05
2.98619e-05
2.9623e-05
2.937e-05
2.91023e-05
2.88189e-05
2.85191e-05
2.82019e-05
2.78665e-05
2.75123e-05
2.71384e-05
2.67442e-05
2.6329e-05
2.58924e-05
2.54339e-05
2.49534e-05
2.44507e-05
2.6482e-05
1.87433e-05
2.44535e-05
2.49543e-05
2.54325e-05
2.58884e-05
2.63221e-05
2.6734e-05
2.71247e-05
2.74947e-05
2.78445e-05
2.81751e-05
2.8487e-05
2.87812e-05
2.90585e-05
2.93196e-05
2.95655e-05
2.9797e-05
3.00148e-05
3.02199e-05
3.04129e-05
3.05947e-05
3.07659e-05
3.09273e-05
3.10796e-05
3.12234e-05
3.13593e-05
3.14879e-05
3.16097e-05
3.17254e-05
3.18546e-05
3.2176e-05
3.22116e-05
3.22301e-05
3.22486e-05
3.2267e-05
3.22854e-05
3.23038e-05
3.23221e-05
3.23402e-05
3.23582e-05
3.2376e-05
3.23935e-05
3.24107e-05
3.24275e-05
3.24438e-05
3.24595e-05
3.24746e-05
3.2489e-05
3.25025e-05
3.25151e-05
3.25266e-05
3.25369e-05
3.25458e-05
3.25533e-05
3.25593e-05
3.25635e-05
3.25659e-05
3.25664e-05
3.25647e-05
3.2561e-05
3.25549e-05
3.25466e-05
3.2536e-05
3.25229e-05
3.25075e-05
3.24898e-05
3.24698e-05
3.24476e-05
3.24232e-05
3.23795e-05
3.20461e-05
3.1907e-05
3.17811e-05
3.16487e-05
3.15095e-05
3.1363e-05
3.12088e-05
3.10462e-05
3.08748e-05
3.06939e-05
3.05028e-05
3.03009e-05
3.00874e-05
2.98615e-05
2.96225e-05
2.93694e-05
2.91016e-05
2.88182e-05
2.85182e-05
2.82009e-05
2.78656e-05
2.75112e-05
2.71373e-05
2.6743e-05
2.63278e-05
2.58911e-05
2.54326e-05
2.49521e-05
2.44494e-05
2.64803e-05
1.87443e-05
2.44544e-05
2.49552e-05
2.54334e-05
2.58893e-05
2.6323e-05
2.67349e-05
2.71255e-05
2.74955e-05
2.78453e-05
2.81759e-05
2.84878e-05
2.8782e-05
2.90592e-05
2.93204e-05
2.95662e-05
2.97976e-05
3.00155e-05
3.02205e-05
3.04135e-05
3.05952e-05
3.07664e-05
3.09278e-05
3.10801e-05
3.12238e-05
3.13597e-05
3.14883e-05
3.16101e-05
3.17258e-05
3.18549e-05
3.21763e-05
3.22119e-05
3.22304e-05
3.22488e-05
3.22672e-05
3.22856e-05
3.2304e-05
3.23222e-05
3.23404e-05
3.23583e-05
3.23761e-05
3.23936e-05
3.24107e-05
3.24275e-05
3.24438e-05
3.24595e-05
3.24746e-05
3.24889e-05
3.25024e-05
3.2515e-05
3.25264e-05
3.25367e-05
3.25456e-05
3.25531e-05
3.25591e-05
3.25633e-05
3.25657e-05
3.25661e-05
3.25645e-05
3.25608e-05
3.25548e-05
3.25465e-05
3.25358e-05
3.25228e-05
3.25075e-05
3.24898e-05
3.24698e-05
3.24476e-05
3.24233e-05
3.23796e-05
3.20462e-05
3.1907e-05
3.17811e-05
3.16487e-05
3.15095e-05
3.13629e-05
3.12086e-05
3.1046e-05
3.08745e-05
3.06935e-05
3.05024e-05
3.03004e-05
3.00868e-05
2.98608e-05
2.96217e-05
2.93686e-05
2.91007e-05
2.88171e-05
2.85171e-05
2.81997e-05
2.78643e-05
2.75099e-05
2.71358e-05
2.67415e-05
2.63262e-05
2.58895e-05
2.54309e-05
2.49503e-05
2.44476e-05
2.64781e-05
1.87453e-05
2.44555e-05
2.49563e-05
2.54345e-05
2.58903e-05
2.6324e-05
2.67359e-05
2.71265e-05
2.74965e-05
2.78463e-05
2.81768e-05
2.84887e-05
2.87829e-05
2.90601e-05
2.93212e-05
2.9567e-05
2.97984e-05
3.00162e-05
3.02212e-05
3.04142e-05
3.05959e-05
3.07671e-05
3.09285e-05
3.10807e-05
3.12244e-05
3.13602e-05
3.14888e-05
3.16106e-05
3.17263e-05
3.18554e-05
3.21767e-05
3.22123e-05
3.22307e-05
3.22491e-05
3.22675e-05
3.22859e-05
3.23043e-05
3.23225e-05
3.23406e-05
3.23586e-05
3.23763e-05
3.23938e-05
3.24109e-05
3.24276e-05
3.24439e-05
3.24596e-05
3.24746e-05
3.24889e-05
3.25024e-05
3.25149e-05
3.25264e-05
3.25366e-05
3.25455e-05
3.2553e-05
3.25589e-05
3.25631e-05
3.25655e-05
3.25659e-05
3.25643e-05
3.25605e-05
3.25545e-05
3.25463e-05
3.25356e-05
3.25227e-05
3.25073e-05
3.24897e-05
3.24697e-05
3.24475e-05
3.24232e-05
3.23795e-05
3.20461e-05
3.1907e-05
3.1781e-05
3.16486e-05
3.15093e-05
3.13627e-05
3.12083e-05
3.10456e-05
3.0874e-05
3.0693e-05
3.05017e-05
3.02996e-05
3.00859e-05
2.98599e-05
2.96206e-05
2.93674e-05
2.90994e-05
2.88158e-05
2.85156e-05
2.81982e-05
2.78626e-05
2.75082e-05
2.7134e-05
2.67396e-05
2.63242e-05
2.58874e-05
2.54288e-05
2.49482e-05
2.44455e-05
2.64755e-05
1.87466e-05
2.44567e-05
2.49575e-05
2.54357e-05
2.58915e-05
2.63252e-05
2.67371e-05
2.71277e-05
2.74976e-05
2.78474e-05
2.81779e-05
2.84898e-05
2.87839e-05
2.90611e-05
2.93222e-05
2.9568e-05
2.97994e-05
3.00171e-05
3.02221e-05
3.0415e-05
3.05967e-05
3.07679e-05
3.09292e-05
3.10814e-05
3.12251e-05
3.13609e-05
3.14894e-05
3.16112e-05
3.17268e-05
3.18559e-05
3.21772e-05
3.22127e-05
3.22312e-05
3.22496e-05
3.2268e-05
3.22863e-05
3.23047e-05
3.23229e-05
3.2341e-05
3.23589e-05
3.23766e-05
3.2394e-05
3.24111e-05
3.24278e-05
3.24441e-05
3.24597e-05
3.24748e-05
3.2489e-05
3.25025e-05
3.25149e-05
3.25263e-05
3.25365e-05
3.25454e-05
3.25529e-05
3.25587e-05
3.25629e-05
3.25653e-05
3.25657e-05
3.25641e-05
3.25603e-05
3.25543e-05
3.2546e-05
3.25354e-05
3.25224e-05
3.25071e-05
3.24895e-05
3.24695e-05
3.24474e-05
3.24231e-05
3.23794e-05
3.20459e-05
3.19068e-05
3.17808e-05
3.16483e-05
3.15089e-05
3.13623e-05
3.12078e-05
3.1045e-05
3.08734e-05
3.06922e-05
3.05009e-05
3.02987e-05
3.00848e-05
2.98587e-05
2.96193e-05
2.9366e-05
2.90979e-05
2.88141e-05
2.85139e-05
2.81963e-05
2.78607e-05
2.75061e-05
2.71319e-05
2.67374e-05
2.63219e-05
2.58851e-05
2.54264e-05
2.49457e-05
2.44429e-05
2.64723e-05
1.8748e-05
2.44581e-05
2.49589e-05
2.54371e-05
2.58929e-05
2.63266e-05
2.67385e-05
2.7129e-05
2.74989e-05
2.78487e-05
2.81792e-05
2.8491e-05
2.87851e-05
2.90623e-05
2.93233e-05
2.95691e-05
2.98004e-05
3.00182e-05
3.02231e-05
3.0416e-05
3.05977e-05
3.07688e-05
3.09301e-05
3.10822e-05
3.12259e-05
3.13617e-05
3.14902e-05
3.1612e-05
3.17275e-05
3.18566e-05
3.21777e-05
3.22133e-05
3.22317e-05
3.22501e-05
3.22685e-05
3.22868e-05
3.23051e-05
3.23233e-05
3.23414e-05
3.23593e-05
3.2377e-05
3.23944e-05
3.24115e-05
3.24282e-05
3.24444e-05
3.246e-05
3.2475e-05
3.24892e-05
3.25026e-05
3.2515e-05
3.25264e-05
3.25366e-05
3.25454e-05
3.25528e-05
3.25586e-05
3.25628e-05
3.25651e-05
3.25655e-05
3.25638e-05
3.25601e-05
3.2554e-05
3.25458e-05
3.25352e-05
3.25222e-05
3.25069e-05
3.24893e-05
3.24693e-05
3.24472e-05
3.24229e-05
3.23793e-05
3.20457e-05
3.19065e-05
3.17804e-05
3.16479e-05
3.15084e-05
3.13617e-05
3.12071e-05
3.10443e-05
3.08725e-05
3.06912e-05
3.04998e-05
3.02974e-05
3.00835e-05
2.98572e-05
2.96177e-05
2.93643e-05
2.9096e-05
2.88122e-05
2.85118e-05
2.81941e-05
2.78584e-05
2.75037e-05
2.71294e-05
2.67348e-05
2.63192e-05
2.58823e-05
2.54236e-05
2.49428e-05
2.444e-05
2.64686e-05
1.87497e-05
2.44597e-05
2.49605e-05
2.54387e-05
2.58945e-05
2.63281e-05
2.674e-05
2.71305e-05
2.75004e-05
2.78502e-05
2.81806e-05
2.84924e-05
2.87865e-05
2.90636e-05
2.93246e-05
2.95704e-05
2.98017e-05
3.00194e-05
3.02242e-05
3.04171e-05
3.05987e-05
3.07698e-05
3.09311e-05
3.10832e-05
3.12268e-05
3.13626e-05
3.14911e-05
3.16128e-05
3.17283e-05
3.18573e-05
3.21784e-05
3.2214e-05
3.22324e-05
3.22507e-05
3.22691e-05
3.22875e-05
3.23057e-05
3.23239e-05
3.2342e-05
3.23599e-05
3.23775e-05
3.23949e-05
3.2412e-05
3.24286e-05
3.24448e-05
3.24604e-05
3.24753e-05
3.24895e-05
3.25028e-05
3.25152e-05
3.25265e-05
3.25367e-05
3.25454e-05
3.25528e-05
3.25586e-05
3.25627e-05
3.2565e-05
3.25653e-05
3.25636e-05
3.25598e-05
3.25538e-05
3.25455e-05
3.25349e-05
3.25219e-05
3.25066e-05
3.2489e-05
3.24691e-05
3.2447e-05
3.24227e-05
3.2379e-05
3.20453e-05
3.1906e-05
3.17799e-05
3.16473e-05
3.15078e-05
3.13609e-05
3.12063e-05
3.10433e-05
3.08714e-05
3.069e-05
3.04984e-05
3.0296e-05
3.00819e-05
2.98554e-05
2.96158e-05
2.93623e-05
2.90939e-05
2.88099e-05
2.85094e-05
2.81916e-05
2.78557e-05
2.75009e-05
2.71265e-05
2.67318e-05
2.63162e-05
2.58791e-05
2.54203e-05
2.49395e-05
2.44366e-05
2.64644e-05
1.87515e-05
2.44615e-05
2.49623e-05
2.54405e-05
2.58963e-05
2.63299e-05
2.67417e-05
2.71322e-05
2.7502e-05
2.78518e-05
2.81822e-05
2.8494e-05
2.8788e-05
2.90651e-05
2.9326e-05
2.95718e-05
2.9803e-05
3.00207e-05
3.02255e-05
3.04184e-05
3.05999e-05
3.0771e-05
3.09322e-05
3.10843e-05
3.12279e-05
3.13636e-05
3.1492e-05
3.16137e-05
3.17292e-05
3.18582e-05
3.21792e-05
3.22147e-05
3.22331e-05
3.22515e-05
3.22698e-05
3.22882e-05
3.23064e-05
3.23246e-05
3.23426e-05
3.23605e-05
3.23781e-05
3.23955e-05
3.24125e-05
3.24291e-05
3.24453e-05
3.24608e-05
3.24757e-05
3.24899e-05
3.25032e-05
3.25155e-05
3.25268e-05
3.25368e-05
3.25456e-05
3.25529e-05
3.25586e-05
3.25626e-05
3.25649e-05
3.25652e-05
3.25635e-05
3.25596e-05
3.25536e-05
3.25453e-05
3.25346e-05
3.25217e-05
3.25063e-05
3.24887e-05
3.24688e-05
3.24467e-05
3.24224e-05
3.23788e-05
3.20448e-05
3.19055e-05
3.17793e-05
3.16466e-05
3.1507e-05
3.136e-05
3.12053e-05
3.10421e-05
3.08701e-05
3.06886e-05
3.04968e-05
3.02942e-05
3.008e-05
2.98534e-05
2.96137e-05
2.93599e-05
2.90914e-05
2.88073e-05
2.85066e-05
2.81887e-05
2.78527e-05
2.74977e-05
2.71232e-05
2.67284e-05
2.63126e-05
2.58755e-05
2.54166e-05
2.49357e-05
2.44328e-05
2.64597e-05
1.87535e-05
2.44635e-05
2.49643e-05
2.54425e-05
2.58982e-05
2.63318e-05
2.67436e-05
2.71341e-05
2.75039e-05
2.78536e-05
2.81839e-05
2.84957e-05
2.87897e-05
2.90667e-05
2.93276e-05
2.95733e-05
2.98045e-05
3.00221e-05
3.02269e-05
3.04197e-05
3.06013e-05
3.07723e-05
3.09335e-05
3.10855e-05
3.12291e-05
3.13647e-05
3.14931e-05
3.16148e-05
3.17303e-05
3.18592e-05
3.218e-05
3.22155e-05
3.22339e-05
3.22523e-05
3.22707e-05
3.2289e-05
3.23072e-05
3.23254e-05
3.23434e-05
3.23612e-05
3.23789e-05
3.23962e-05
3.24132e-05
3.24298e-05
3.24458e-05
3.24614e-05
3.24762e-05
3.24903e-05
3.25036e-05
3.25159e-05
3.25271e-05
3.25371e-05
3.25458e-05
3.2553e-05
3.25587e-05
3.25627e-05
3.25649e-05
3.25651e-05
3.25634e-05
3.25595e-05
3.25534e-05
3.2545e-05
3.25344e-05
3.25214e-05
3.25061e-05
3.24884e-05
3.24685e-05
3.24464e-05
3.24221e-05
3.23784e-05
3.20443e-05
3.19049e-05
3.17786e-05
3.16458e-05
3.15061e-05
3.1359e-05
3.12041e-05
3.10408e-05
3.08686e-05
3.06869e-05
3.0495e-05
3.02923e-05
3.00779e-05
2.98511e-05
2.96112e-05
2.93573e-05
2.90886e-05
2.88043e-05
2.85035e-05
2.81854e-05
2.78492e-05
2.74942e-05
2.71195e-05
2.67245e-05
2.63087e-05
2.58714e-05
2.54124e-05
2.49315e-05
2.44285e-05
2.64543e-05
1.87557e-05
2.44657e-05
2.49665e-05
2.54446e-05
2.59003e-05
2.63339e-05
2.67457e-05
2.71361e-05
2.75059e-05
2.78555e-05
2.81858e-05
2.84976e-05
2.87915e-05
2.90685e-05
2.93294e-05
2.9575e-05
2.98062e-05
3.00237e-05
3.02285e-05
3.04212e-05
3.06027e-05
3.07737e-05
3.09348e-05
3.10868e-05
3.12303e-05
3.1366e-05
3.14943e-05
3.16159e-05
3.17314e-05
3.18603e-05
3.21809e-05
3.22165e-05
3.22348e-05
3.22532e-05
3.22716e-05
3.22899e-05
3.23081e-05
3.23263e-05
3.23443e-05
3.23621e-05
3.23797e-05
3.2397e-05
3.2414e-05
3.24305e-05
3.24466e-05
3.2462e-05
3.24768e-05
3.24909e-05
3.25041e-05
3.25163e-05
3.25275e-05
3.25374e-05
3.25461e-05
3.25532e-05
3.25588e-05
3.25628e-05
3.25649e-05
3.25651e-05
3.25633e-05
3.25594e-05
3.25532e-05
3.25448e-05
3.25341e-05
3.25211e-05
3.25058e-05
3.24881e-05
3.24682e-05
3.2446e-05
3.24217e-05
3.23781e-05
3.20437e-05
3.19042e-05
3.17778e-05
3.16449e-05
3.1505e-05
3.13577e-05
3.12027e-05
3.10393e-05
3.08669e-05
3.0685e-05
3.0493e-05
3.029e-05
3.00755e-05
2.98485e-05
2.96084e-05
2.93543e-05
2.90854e-05
2.88009e-05
2.85e-05
2.81817e-05
2.78454e-05
2.74902e-05
2.71153e-05
2.67202e-05
2.63043e-05
2.58669e-05
2.54078e-05
2.49268e-05
2.44237e-05
2.64484e-05
1.87581e-05
2.4468e-05
2.49688e-05
2.5447e-05
2.59027e-05
2.63362e-05
2.67479e-05
2.71384e-05
2.75081e-05
2.78577e-05
2.81879e-05
2.84996e-05
2.87935e-05
2.90705e-05
2.93313e-05
2.95769e-05
2.9808e-05
3.00255e-05
3.02302e-05
3.04229e-05
3.06043e-05
3.07752e-05
3.09363e-05
3.10883e-05
3.12317e-05
3.13673e-05
3.14956e-05
3.16172e-05
3.17326e-05
3.18615e-05
3.2182e-05
3.22175e-05
3.22359e-05
3.22542e-05
3.22726e-05
3.22909e-05
3.23091e-05
3.23272e-05
3.23452e-05
3.2363e-05
3.23806e-05
3.23979e-05
3.24148e-05
3.24313e-05
3.24474e-05
3.24628e-05
3.24776e-05
3.24916e-05
3.25047e-05
3.25169e-05
3.2528e-05
3.25379e-05
3.25464e-05
3.25536e-05
3.25591e-05
3.2563e-05
3.2565e-05
3.25652e-05
3.25633e-05
3.25593e-05
3.25531e-05
3.25447e-05
3.2534e-05
3.25209e-05
3.25055e-05
3.24878e-05
3.24679e-05
3.24457e-05
3.24214e-05
3.23777e-05
3.2043e-05
3.19034e-05
3.17769e-05
3.16438e-05
3.15038e-05
3.13564e-05
3.12011e-05
3.10375e-05
3.0865e-05
3.06829e-05
3.04907e-05
3.02875e-05
3.00727e-05
2.98456e-05
2.96053e-05
2.9351e-05
2.90819e-05
2.87972e-05
2.84961e-05
2.81776e-05
2.78411e-05
2.74857e-05
2.71107e-05
2.67155e-05
2.62994e-05
2.58619e-05
2.54027e-05
2.49216e-05
2.44184e-05
2.64419e-05
1.87607e-05
2.44706e-05
2.49714e-05
2.54495e-05
2.59052e-05
2.63387e-05
2.67504e-05
2.71408e-05
2.75104e-05
2.786e-05
2.81902e-05
2.85018e-05
2.87957e-05
2.90726e-05
2.93334e-05
2.95789e-05
2.98099e-05
3.00274e-05
3.0232e-05
3.04247e-05
3.06061e-05
3.07769e-05
3.0938e-05
3.10899e-05
3.12333e-05
3.13688e-05
3.14971e-05
3.16186e-05
3.17339e-05
3.18628e-05
3.21831e-05
3.22186e-05
3.2237e-05
3.22553e-05
3.22737e-05
3.2292e-05
3.23102e-05
3.23283e-05
3.23463e-05
3.23641e-05
3.23816e-05
3.23989e-05
3.24158e-05
3.24323e-05
3.24483e-05
3.24637e-05
3.24784e-05
3.24924e-05
3.25055e-05
3.25176e-05
3.25286e-05
3.25384e-05
3.25469e-05
3.2554e-05
3.25595e-05
3.25633e-05
3.25653e-05
3.25653e-05
3.25634e-05
3.25593e-05
3.25531e-05
3.25446e-05
3.25339e-05
3.25208e-05
3.25053e-05
3.24876e-05
3.24676e-05
3.24454e-05
3.2421e-05
3.23773e-05
3.20423e-05
3.19026e-05
3.17759e-05
3.16427e-05
3.15024e-05
3.13549e-05
3.11994e-05
3.10356e-05
3.08629e-05
3.06806e-05
3.04881e-05
3.02848e-05
3.00698e-05
2.98424e-05
2.96018e-05
2.93473e-05
2.9078e-05
2.87931e-05
2.84918e-05
2.81731e-05
2.78364e-05
2.74808e-05
2.71057e-05
2.67103e-05
2.6294e-05
2.58564e-05
2.53971e-05
2.49159e-05
2.44126e-05
2.64347e-05
1.87636e-05
2.44734e-05
2.49741e-05
2.54522e-05
2.59079e-05
2.63413e-05
2.6753e-05
2.71434e-05
2.7513e-05
2.78625e-05
2.81927e-05
2.85042e-05
2.8798e-05
2.90749e-05
2.93356e-05
2.9581e-05
2.9812e-05
3.00294e-05
3.0234e-05
3.04266e-05
3.06079e-05
3.07787e-05
3.09397e-05
3.10916e-05
3.12349e-05
3.13704e-05
3.14986e-05
3.16201e-05
3.17354e-05
3.18641e-05
3.21843e-05
3.22198e-05
3.22382e-05
3.22565e-05
3.22749e-05
3.22932e-05
3.23114e-05
3.23295e-05
3.23475e-05
3.23652e-05
3.23828e-05
3.24e-05
3.24169e-05
3.24334e-05
3.24493e-05
3.24647e-05
3.24794e-05
3.24933e-05
3.25063e-05
3.25184e-05
3.25294e-05
3.25391e-05
3.25475e-05
3.25545e-05
3.25599e-05
3.25637e-05
3.25656e-05
3.25656e-05
3.25636e-05
3.25595e-05
3.25532e-05
3.25446e-05
3.25338e-05
3.25206e-05
3.25052e-05
3.24874e-05
3.24674e-05
3.24451e-05
3.24207e-05
3.23769e-05
3.20416e-05
3.19017e-05
3.17748e-05
3.16414e-05
3.1501e-05
3.13532e-05
3.11976e-05
3.10336e-05
3.08606e-05
3.06781e-05
3.04853e-05
3.02817e-05
3.00665e-05
2.98389e-05
2.95981e-05
2.93433e-05
2.90738e-05
2.87887e-05
2.84871e-05
2.81682e-05
2.78313e-05
2.74755e-05
2.71002e-05
2.67046e-05
2.62882e-05
2.58504e-05
2.5391e-05
2.49096e-05
2.44063e-05
2.64269e-05
1.87666e-05
2.44763e-05
2.49771e-05
2.54552e-05
2.59108e-05
2.63442e-05
2.67558e-05
2.71461e-05
2.75157e-05
2.78652e-05
2.81953e-05
2.85068e-05
2.88005e-05
2.90773e-05
2.9338e-05
2.95833e-05
2.98143e-05
3.00316e-05
3.02362e-05
3.04287e-05
3.06099e-05
3.07807e-05
3.09416e-05
3.10934e-05
3.12367e-05
3.13721e-05
3.15003e-05
3.16217e-05
3.17369e-05
3.18656e-05
3.21855e-05
3.22211e-05
3.22395e-05
3.22578e-05
3.22762e-05
3.22944e-05
3.23127e-05
3.23308e-05
3.23487e-05
3.23665e-05
3.2384e-05
3.24012e-05
3.24181e-05
3.24345e-05
3.24505e-05
3.24658e-05
3.24804e-05
3.24943e-05
3.25073e-05
3.25193e-05
3.25302e-05
3.25399e-05
3.25483e-05
3.25552e-05
3.25605e-05
3.25642e-05
3.2566e-05
3.2566e-05
3.25639e-05
3.25597e-05
3.25533e-05
3.25447e-05
3.25338e-05
3.25206e-05
3.25051e-05
3.24873e-05
3.24671e-05
3.24448e-05
3.24204e-05
3.23765e-05
3.20408e-05
3.19007e-05
3.17737e-05
3.164e-05
3.14994e-05
3.13514e-05
3.11955e-05
3.10313e-05
3.08581e-05
3.06753e-05
3.04823e-05
3.02784e-05
3.00629e-05
2.9835e-05
2.9594e-05
2.9339e-05
2.90692e-05
2.87838e-05
2.84819e-05
2.81628e-05
2.78257e-05
2.74697e-05
2.70942e-05
2.66984e-05
2.62818e-05
2.58439e-05
2.53844e-05
2.49029e-05
2.43994e-05
2.64184e-05
1.87698e-05
2.44795e-05
2.49802e-05
2.54583e-05
2.59139e-05
2.63473e-05
2.67589e-05
2.71491e-05
2.75186e-05
2.7868e-05
2.81981e-05
2.85095e-05
2.88032e-05
2.90799e-05
2.93405e-05
2.95858e-05
2.98167e-05
3.0034e-05
3.02384e-05
3.04309e-05
3.06121e-05
3.07827e-05
3.09436e-05
3.10953e-05
3.12386e-05
3.13739e-05
3.1502e-05
3.16234e-05
3.17386e-05
3.18672e-05
3.21869e-05
3.22225e-05
3.22408e-05
3.22592e-05
3.22775e-05
3.22958e-05
3.2314e-05
3.23321e-05
3.23501e-05
3.23679e-05
3.23854e-05
3.24026e-05
3.24194e-05
3.24358e-05
3.24517e-05
3.2467e-05
3.24816e-05
3.24954e-05
3.25084e-05
3.25204e-05
3.25312e-05
3.25408e-05
3.25491e-05
3.2556e-05
3.25612e-05
3.25648e-05
3.25666e-05
3.25665e-05
3.25643e-05
3.256e-05
3.25536e-05
3.25449e-05
3.2534e-05
3.25207e-05
3.25051e-05
3.24872e-05
3.2467e-05
3.24446e-05
3.24201e-05
3.23761e-05
3.204e-05
3.18997e-05
3.17725e-05
3.16386e-05
3.14977e-05
3.13495e-05
3.11934e-05
3.10288e-05
3.08553e-05
3.06723e-05
3.0479e-05
3.02748e-05
3.0059e-05
2.98309e-05
2.95895e-05
2.93342e-05
2.90642e-05
2.87785e-05
2.84764e-05
2.8157e-05
2.78196e-05
2.74634e-05
2.70877e-05
2.66917e-05
2.62749e-05
2.58369e-05
2.53771e-05
2.48956e-05
2.4392e-05
2.64092e-05
1.87733e-05
2.44829e-05
2.49836e-05
2.54617e-05
2.59172e-05
2.63506e-05
2.67621e-05
2.71523e-05
2.75217e-05
2.78711e-05
2.82011e-05
2.85124e-05
2.8806e-05
2.90827e-05
2.93432e-05
2.95884e-05
2.98192e-05
3.00364e-05
3.02408e-05
3.04332e-05
3.06143e-05
3.07849e-05
3.09457e-05
3.10974e-05
3.12406e-05
3.13759e-05
3.15039e-05
3.16252e-05
3.17403e-05
3.18689e-05
3.21884e-05
3.22239e-05
3.22423e-05
3.22607e-05
3.2279e-05
3.22973e-05
3.23155e-05
3.23336e-05
3.23516e-05
3.23693e-05
3.23868e-05
3.2404e-05
3.24209e-05
3.24372e-05
3.24531e-05
3.24684e-05
3.24829e-05
3.24967e-05
3.25096e-05
3.25215e-05
3.25323e-05
3.25419e-05
3.25501e-05
3.25569e-05
3.25621e-05
3.25656e-05
3.25673e-05
3.25671e-05
3.25648e-05
3.25605e-05
3.2554e-05
3.25452e-05
3.25342e-05
3.25208e-05
3.25051e-05
3.24872e-05
3.24669e-05
3.24444e-05
3.24198e-05
3.23758e-05
3.20391e-05
3.18986e-05
3.17712e-05
3.16371e-05
3.14959e-05
3.13474e-05
3.1191e-05
3.10262e-05
3.08524e-05
3.0669e-05
3.04754e-05
3.0271e-05
3.00549e-05
2.98264e-05
2.95847e-05
2.93291e-05
2.90587e-05
2.87728e-05
2.84704e-05
2.81507e-05
2.78131e-05
2.74566e-05
2.70806e-05
2.66845e-05
2.62675e-05
2.58292e-05
2.53694e-05
2.48876e-05
2.4384e-05
2.63992e-05
1.8777e-05
2.44865e-05
2.49872e-05
2.54652e-05
2.59207e-05
2.6354e-05
2.67655e-05
2.71557e-05
2.7525e-05
2.78743e-05
2.82042e-05
2.85155e-05
2.88091e-05
2.90856e-05
2.93461e-05
2.95912e-05
2.9822e-05
3.00391e-05
3.02434e-05
3.04357e-05
3.06167e-05
3.07873e-05
3.0948e-05
3.10996e-05
3.12427e-05
3.13779e-05
3.15059e-05
3.16271e-05
3.17422e-05
3.18707e-05
3.21899e-05
3.22255e-05
3.22439e-05
3.22623e-05
3.22806e-05
3.22989e-05
3.23171e-05
3.23352e-05
3.23532e-05
3.23709e-05
3.23884e-05
3.24056e-05
3.24224e-05
3.24388e-05
3.24546e-05
3.24699e-05
3.24844e-05
3.24982e-05
3.2511e-05
3.25229e-05
3.25336e-05
3.25431e-05
3.25513e-05
3.2558e-05
3.25631e-05
3.25665e-05
3.25682e-05
3.25679e-05
3.25655e-05
3.25611e-05
3.25545e-05
3.25457e-05
3.25345e-05
3.25211e-05
3.25053e-05
3.24873e-05
3.24669e-05
3.24443e-05
3.24196e-05
3.23754e-05
3.20383e-05
3.18975e-05
3.17698e-05
3.16354e-05
3.1494e-05
3.13452e-05
3.11885e-05
3.10233e-05
3.08492e-05
3.06655e-05
3.04716e-05
3.02668e-05
3.00504e-05
2.98215e-05
2.95796e-05
2.93236e-05
2.90529e-05
2.87666e-05
2.84639e-05
2.8144e-05
2.7806e-05
2.74493e-05
2.70731e-05
2.66766e-05
2.62595e-05
2.5821e-05
2.5361e-05
2.48791e-05
2.43753e-05
2.63885e-05
1.87809e-05
2.44903e-05
2.4991e-05
2.5469e-05
2.59245e-05
2.63577e-05
2.67692e-05
2.71592e-05
2.75285e-05
2.78778e-05
2.82076e-05
2.85188e-05
2.88123e-05
2.90887e-05
2.93491e-05
2.95942e-05
2.98248e-05
3.00419e-05
3.02461e-05
3.04383e-05
3.06193e-05
3.07897e-05
3.09504e-05
3.11019e-05
3.12449e-05
3.13801e-05
3.1508e-05
3.16292e-05
3.17442e-05
3.18727e-05
3.21916e-05
3.22271e-05
3.22455e-05
3.22639e-05
3.22823e-05
3.23006e-05
3.23188e-05
3.23369e-05
3.23549e-05
3.23726e-05
3.23901e-05
3.24073e-05
3.24241e-05
3.24405e-05
3.24563e-05
3.24715e-05
3.2486e-05
3.24997e-05
3.25125e-05
3.25244e-05
3.2535e-05
3.25445e-05
3.25526e-05
3.25592e-05
3.25643e-05
3.25676e-05
3.25692e-05
3.25688e-05
3.25664e-05
3.25619e-05
3.25552e-05
3.25463e-05
3.2535e-05
3.25215e-05
3.25056e-05
3.24874e-05
3.2467e-05
3.24443e-05
3.24195e-05
3.23752e-05
3.20374e-05
3.18964e-05
3.17684e-05
3.16337e-05
3.1492e-05
3.13429e-05
3.11858e-05
3.10203e-05
3.08458e-05
3.06618e-05
3.04675e-05
3.02623e-05
3.00455e-05
2.98163e-05
2.9574e-05
2.93177e-05
2.90467e-05
2.876e-05
2.8457e-05
2.81367e-05
2.77985e-05
2.74414e-05
2.70649e-05
2.66683e-05
2.62509e-05
2.58122e-05
2.5352e-05
2.48699e-05
2.43661e-05
2.6377e-05
1.8785e-05
2.44944e-05
2.4995e-05
2.5473e-05
2.59284e-05
2.63616e-05
2.6773e-05
2.7163e-05
2.75322e-05
2.78814e-05
2.82111e-05
2.85223e-05
2.88156e-05
2.9092e-05
2.93523e-05
2.95973e-05
2.98279e-05
3.00448e-05
3.0249e-05
3.04411e-05
3.0622e-05
3.07923e-05
3.09529e-05
3.11043e-05
3.12473e-05
3.13824e-05
3.15102e-05
3.16313e-05
3.17462e-05
3.18747e-05
3.21933e-05
3.22289e-05
3.22473e-05
3.22657e-05
3.22841e-05
3.23024e-05
3.23206e-05
3.23387e-05
3.23567e-05
3.23744e-05
3.23919e-05
3.24091e-05
3.24259e-05
3.24423e-05
3.24581e-05
3.24733e-05
3.24878e-05
3.25015e-05
3.25142e-05
3.2526e-05
3.25367e-05
3.25461e-05
3.25541e-05
3.25607e-05
3.25657e-05
3.25689e-05
3.25704e-05
3.25699e-05
3.25674e-05
3.25628e-05
3.2556e-05
3.2547e-05
3.25357e-05
3.2522e-05
3.25061e-05
3.24878e-05
3.24672e-05
3.24444e-05
3.24194e-05
3.2375e-05
3.20366e-05
3.18953e-05
3.1767e-05
3.1632e-05
3.14899e-05
3.13404e-05
3.1183e-05
3.10171e-05
3.08423e-05
3.06578e-05
3.04631e-05
3.02576e-05
3.00404e-05
2.98108e-05
2.95681e-05
2.93114e-05
2.904e-05
2.87529e-05
2.84495e-05
2.81289e-05
2.77904e-05
2.7433e-05
2.70562e-05
2.66593e-05
2.62416e-05
2.58027e-05
2.53423e-05
2.48601e-05
2.43561e-05
2.63647e-05
1.87894e-05
2.44986e-05
2.49992e-05
2.54771e-05
2.59325e-05
2.63657e-05
2.6777e-05
2.7167e-05
2.75361e-05
2.78852e-05
2.82149e-05
2.85259e-05
2.88192e-05
2.90955e-05
2.93557e-05
2.96006e-05
2.98311e-05
3.00479e-05
3.0252e-05
3.0444e-05
3.06248e-05
3.07951e-05
3.09556e-05
3.11069e-05
3.12498e-05
3.13848e-05
3.15125e-05
3.16336e-05
3.17484e-05
3.18768e-05
3.21951e-05
3.22307e-05
3.22491e-05
3.22675e-05
3.22859e-05
3.23043e-05
3.23225e-05
3.23406e-05
3.23586e-05
3.23764e-05
3.23939e-05
3.24111e-05
3.24279e-05
3.24442e-05
3.246e-05
3.24752e-05
3.24897e-05
3.25033e-05
3.25161e-05
3.25278e-05
3.25384e-05
3.25478e-05
3.25558e-05
3.25623e-05
3.25672e-05
3.25704e-05
3.25718e-05
3.25712e-05
3.25687e-05
3.2564e-05
3.25571e-05
3.25479e-05
3.25365e-05
3.25227e-05
3.25066e-05
3.24882e-05
3.24675e-05
3.24445e-05
3.24194e-05
3.23748e-05
3.20358e-05
3.18941e-05
3.17655e-05
3.16301e-05
3.14877e-05
3.13378e-05
3.118e-05
3.10137e-05
3.08384e-05
3.06536e-05
3.04585e-05
3.02525e-05
3.00349e-05
2.98049e-05
2.95617e-05
2.93046e-05
2.90328e-05
2.87454e-05
2.84416e-05
2.81206e-05
2.77817e-05
2.7424e-05
2.70469e-05
2.66497e-05
2.62317e-05
2.57926e-05
2.5332e-05
2.48496e-05
2.43454e-05
2.63515e-05
1.87939e-05
2.4503e-05
2.50037e-05
2.54815e-05
2.59369e-05
2.637e-05
2.67813e-05
2.71711e-05
2.75402e-05
2.78892e-05
2.82188e-05
2.85298e-05
2.88229e-05
2.90991e-05
2.93592e-05
2.9604e-05
2.98344e-05
3.00512e-05
3.02551e-05
3.04471e-05
3.06278e-05
3.07979e-05
3.09583e-05
3.11096e-05
3.12524e-05
3.13873e-05
3.1515e-05
3.16359e-05
3.17507e-05
3.1879e-05
3.2197e-05
3.22326e-05
3.22511e-05
3.22695e-05
3.22879e-05
3.23062e-05
3.23245e-05
3.23427e-05
3.23607e-05
3.23784e-05
3.2396e-05
3.24131e-05
3.243e-05
3.24463e-05
3.24621e-05
3.24773e-05
3.24917e-05
3.25054e-05
3.25181e-05
3.25298e-05
3.25404e-05
3.25497e-05
3.25576e-05
3.25641e-05
3.2569e-05
3.25721e-05
3.25734e-05
3.25728e-05
3.25701e-05
3.25653e-05
3.25583e-05
3.25491e-05
3.25375e-05
3.25236e-05
3.25074e-05
3.24888e-05
3.2468e-05
3.24448e-05