/*--------------------------------*- C++ -*----------------------------------*\
  =========                 |
  \\      /  F ield         | OpenFOAM: The Open Source CFD Toolbox
   \\    /   O peration     | Website:  https://openfoam.org
    \\  /    A nd           | Version:  9
     \\/     M anipulation  |
\*---------------------------------------------------------------------------*/
FoamFile
{
    format      ascii;
    class       volVectorField;
    location    "0.02";
    object      U;
}
// * * * * * * * * * * * * * * * * * * * * * * * * * * * * * * * * * * * * * //

dimensions      [0 1 -1 0 0 0 0];

internalField   nonuniform List<vector> 
20000
(
(-5.16505e-06 0 -0.000567077)
(-3.34352e-06 0 -0.00131223)
(-3.59227e-06 0 -0.00195838)
(-3.17228e-06 0 -0.00262169)
(-2.28486e-06 0 -0.00333304)
(-1.45202e-06 0 -0.00410111)
(-6.77055e-07 0 -0.0049248)
(9.5378e-08 0 -0.00580281)
(9.15192e-07 0 -0.00673568)
(1.80437e-06 0 -0.00772535)
(2.76894e-06 0 -0.00877432)
(3.80987e-06 0 -0.00988529)
(4.92798e-06 0 -0.0110609)
(6.1251e-06 0 -0.012304)
(7.40386e-06 0 -0.0136173)
(8.76744e-06 0 -0.0150037)
(1.02195e-05 0 -0.0164664)
(1.17644e-05 0 -0.0180086)
(1.34069e-05 0 -0.0196338)
(1.51524e-05 0 -0.0213459)
(1.70068e-05 0 -0.0231489)
(1.89766e-05 0 -0.0250474)
(2.10692e-05 0 -0.0270459)
(2.32921e-05 0 -0.0291495)
(2.56538e-05 0 -0.0313637)
(2.81635e-05 0 -0.0336942)
(3.08312e-05 0 -0.0361473)
(3.36658e-05 0 -0.0387297)
(3.66749e-05 0 -0.0414486)
(3.98781e-05 0 -0.0443106)
(4.33953e-05 0 -0.0475757)
(4.71659e-05 0 -0.0511657)
(5.09839e-05 0 -0.0547507)
(5.47961e-05 0 -0.0583309)
(5.85638e-05 0 -0.0619051)
(6.2246e-05 0 -0.0654701)
(6.57974e-05 0 -0.0690211)
(6.91693e-05 0 -0.072552)
(7.23082e-05 0 -0.0760555)
(7.51553e-05 0 -0.0795233)
(7.76455e-05 0 -0.0829461)
(7.97074e-05 0 -0.0863133)
(8.12637e-05 0 -0.089613)
(8.22321e-05 0 -0.0928322)
(8.25271e-05 0 -0.0959566)
(8.20617e-05 0 -0.0989705)
(8.07485e-05 0 -0.101857)
(7.84961e-05 0 -0.104599)
(7.52119e-05 0 -0.107175)
(7.08016e-05 0 -0.109565)
(6.52065e-05 0 -0.111743)
(5.84262e-05 0 -0.113688)
(5.04536e-05 0 -0.115377)
(4.12811e-05 0 -0.116787)
(3.09426e-05 0 -0.117893)
(1.95206e-05 0 -0.118671)
(7.15618e-06 0 -0.119096)
(-5.9826e-06 0 -0.119148)
(-1.96764e-05 0 -0.118805)
(-3.36587e-05 0 -0.118051)
(-4.7644e-05 0 -0.11687)
(-6.13151e-05 0 -0.11525)
(-7.4343e-05 0 -0.113185)
(-8.63979e-05 0 -0.110671)
(-9.71623e-05 0 -0.107709)
(-0.000106347 0 -0.104305)
(-0.000113715 0 -0.100468)
(-0.000119083 0 -0.0962127)
(-0.000122315 0 -0.0915541)
(-0.000123352 0 -0.086513)
(-0.000122229 0 -0.081623)
(-0.000119403 0 -0.0771121)
(-0.000115412 0 -0.0726489)
(-0.000110537 0 -0.0682629)
(-0.000105013 0 -0.0639746)
(-9.90277e-05 0 -0.0598002)
(-9.27337e-05 0 -0.0557525)
(-8.62619e-05 0 -0.0518415)
(-7.97235e-05 0 -0.048074)
(-7.32102e-05 0 -0.0444549)
(-6.67963e-05 0 -0.0409868)
(-6.05405e-05 0 -0.0376711)
(-5.44889e-05 0 -0.0345076)
(-4.8677e-05 0 -0.0314955)
(-4.31317e-05 0 -0.028633)
(-3.78732e-05 0 -0.0259177)
(-3.29159e-05 0 -0.023347)
(-2.82695e-05 0 -0.0209175)
(-2.39392e-05 0 -0.0186257)
(-1.99262e-05 0 -0.0164679)
(-1.6227e-05 0 -0.01444)
(-1.28367e-05 0 -0.0125378)
(-9.75821e-06 0 -0.0107567)
(-7.01961e-06 0 -0.00909068)
(-4.68043e-06 0 -0.00753146)
(-2.78193e-06 0 -0.00606808)
(-1.15201e-06 0 -0.00469071)
(4.16455e-07 0 -0.00339782)
(2.48378e-06 0 -0.00219836)
(7.5832e-06 0 -0.00106067)
(-2.93081e-05 0 -0.000569385)
(-2.52184e-05 0 -0.00131042)
(-2.50526e-05 0 -0.00195737)
(-2.36316e-05 0 -0.00262373)
(-2.1331e-05 0 -0.00333538)
(-1.91583e-05 0 -0.00410311)
(-1.71459e-05 0 -0.00492671)
(-1.51442e-05 0 -0.00580499)
(-1.30286e-05 0 -0.00673837)
(-1.07391e-05 0 -0.00772865)
(-8.25272e-06 0 -0.00877831)
(-5.56e-06 0 -0.00989)
(-2.65394e-06 0 -0.0110664)
(4.73545e-07 0 -0.0123104)
(3.83177e-06 0 -0.0136246)
(7.43107e-06 0 -0.015012)
(1.12829e-05 0 -0.0164757)
(1.53998e-05 0 -0.0180189)
(1.97952e-05 0 -0.0196454)
(2.44837e-05 0 -0.0213587)
(2.94813e-05 0 -0.0231632)
(3.48051e-05 0 -0.025063)
(4.04737e-05 0 -0.0270631)
(4.65067e-05 0 -0.0291684)
(5.29248e-05 0 -0.0313843)
(5.97496e-05 0 -0.0337166)
(6.70038e-05 0 -0.0361717)
(7.4705e-05 0 -0.0387562)
(8.2869e-05 0 -0.0414774)
(9.15464e-05 0 -0.0443417)
(0.00010116 0 -0.0476096)
(0.000111519 0 -0.0512026)
(0.000121953 0 -0.0547906)
(0.000132339 0 -0.0583737)
(0.000142581 0 -0.0619509)
(0.000152575 0 -0.0655189)
(0.000162206 0 -0.0690729)
(0.000171343 0 -0.0726067)
(0.000179848 0 -0.0761132)
(0.000187563 0 -0.0795839)
(0.000194317 0 -0.0830096)
(0.000199925 0 -0.0863796)
(0.000204183 0 -0.089682)
(0.000206879 0 -0.0929039)
(0.000207793 0 -0.0960308)
(0.0002067 0 -0.0990472)
(0.000203376 0 -0.101936)
(0.000197593 0 -0.10468)
(0.00018912 0 -0.107258)
(0.000177722 0 -0.109649)
(0.000163268 0 -0.11183)
(0.000145784 0 -0.113776)
(0.000125279 0 -0.115466)
(0.000101738 0 -0.116877)
(7.52715e-05 0 -0.117984)
(4.61187e-05 0 -0.118762)
(1.46443e-05 0 -0.119188)
(-1.86968e-05 0 -0.119239)
(-5.33297e-05 0 -0.118897)
(-8.85698e-05 0 -0.118142)
(-0.000123677 0 -0.11696)
(-0.000157836 0 -0.11534)
(-0.000190208 0 -0.113274)
(-0.000219952 0 -0.110759)
(-0.000246263 0 -0.107796)
(-0.000268405 0 -0.10439)
(-0.000285767 0 -0.100552)
(-0.000297876 0 -0.0962947)
(-0.000304381 0 -0.0916339)
(-0.000305173 0 -0.0865902)
(-0.000300525 0 -0.0816975)
(-0.00029182 0 -0.077184)
(-0.000280275 0 -0.0727183)
(-0.000266497 0 -0.0683295)
(-0.000251082 0 -0.0640385)
(-0.000234531 0 -0.0598615)
(-0.000217253 0 -0.0558112)
(-0.000199598 0 -0.0518975)
(-0.000181858 0 -0.0481275)
(-0.000164273 0 -0.0445058)
(-0.00014704 0 -0.0410354)
(-0.000130312 0 -0.0377172)
(-0.000114212 0 -0.0345515)
(-9.88318e-05 0 -0.0315372)
(-8.4241e-05 0 -0.0286725)
(-7.04903e-05 0 -0.0259551)
(-5.76138e-05 0 -0.0233823)
(-4.5632e-05 0 -0.0209509)
(-3.45527e-05 0 -0.0186572)
(-2.43713e-05 0 -0.0164975)
(-1.50707e-05 0 -0.0144678)
(-6.62742e-06 0 -0.0125638)
(9.67638e-07 0 -0.0107808)
(7.65775e-06 0 -0.00911269)
(1.33295e-05 0 -0.00755099)
(1.79572e-05 0 -0.0060852)
(2.19822e-05 0 -0.00470689)
(2.59272e-05 0 -0.0034157)
(3.10243e-05 0 -0.00222211)
(4.27747e-05 0 -0.00109946)
(-6.18416e-05 0 -0.000575649)
(-5.87808e-05 0 -0.00131596)
(-5.75834e-05 0 -0.0019643)
(-5.52788e-05 0 -0.00263186)
(-5.23811e-05 0 -0.0033434)
(-4.95814e-05 0 -0.0041104)
(-4.68738e-05 0 -0.00493344)
(-4.40809e-05 0 -0.00581152)
(-4.10655e-05 0 -0.0067449)
(-3.77549e-05 0 -0.00773524)
(-3.4117e-05 0 -0.00878496)
(-3.01368e-05 0 -0.00989669)
(-2.58029e-05 0 -0.0110732)
(-2.11026e-05 0 -0.0123171)
(-1.60211e-05 0 -0.0136312)
(-1.0542e-05 0 -0.0150186)
(-4.6477e-06 0 -0.0164822)
(1.68138e-06 0 -0.0180254)
(8.46603e-06 0 -0.0196517)
(1.57285e-05 0 -0.0213649)
(2.34934e-05 0 -0.0231692)
(3.17867e-05 0 -0.0250689)
(4.06361e-05 0 -0.0270688)
(5.00707e-05 0 -0.0291738)
(6.01206e-05 0 -0.0313895)
(7.08165e-05 0 -0.0337216)
(8.21891e-05 0 -0.0361764)
(9.4259e-05 0 -0.0387606)
(0.000107022 0 -0.0414814)
(0.000120505 0 -0.0443453)
(0.000135697 0 -0.0476126)
(0.000152246 0 -0.051205)
(0.000168749 0 -0.0547922)
(0.000185114 0 -0.0583746)
(0.000201233 0 -0.0619509)
(0.000216951 0 -0.0655179)
(0.000232093 0 -0.0690708)
(0.000246462 0 -0.0726034)
(0.000259841 0 -0.0761085)
(0.000271991 0 -0.0795777)
(0.000282649 0 -0.0830016)
(0.000291531 0 -0.0863697)
(0.000298331 0 -0.0896701)
(0.000302726 0 -0.0928897)
(0.000304384 0 -0.0960142)
(0.000302967 0 -0.099028)
(0.000298142 0 -0.101914)
(0.000289578 0 -0.104655)
(0.000276927 0 -0.10723)
(0.000259867 0 -0.109618)
(0.000238242 0 -0.111795)
(0.000212068 0 -0.113738)
(0.00018137 0 -0.115425)
(0.000146168 0 -0.116833)
(0.000106662 0 -0.117936)
(6.32365e-05 0 -0.118712)
(1.6447e-05 0 -0.119136)
(-3.29792e-05 0 -0.119186)
(-8.41665e-05 0 -0.118842)
(-0.000136091 0 -0.118087)
(-0.000187617 0 -0.116906)
(-0.00023752 0 -0.115287)
(-0.00028454 0 -0.113224)
(-0.000327419 0 -0.110712)
(-0.000364953 0 -0.107753)
(-0.00039605 0 -0.104351)
(-0.000419789 0 -0.100518)
(-0.000435461 0 -0.0962665)
(-0.00044249 0 -0.0916115)
(-0.0004405 0 -0.086574)
(-0.000430751 0 -0.0816867)
(-0.000415682 0 -0.077178)
(-0.000396336 0 -0.0727167)
(-0.000373647 0 -0.0683318)
(-0.000348577 0 -0.0640441)
(-0.000321901 0 -0.05987)
(-0.000294252 0 -0.0558224)
(-0.000266164 0 -0.0519109)
(-0.000238086 0 -0.0481427)
(-0.000210382 0 -0.0445226)
(-0.00018335 0 -0.0410533)
(-0.00015722 0 -0.0377362)
(-0.000132173 0 -0.0345711)
(-0.000108345 0 -0.0315572)
(-8.58361e-05 0 -0.0286928)
(-6.47147e-05 0 -0.0259754)
(-4.50243e-05 0 -0.0234024)
(-2.67857e-05 0 -0.0209706)
(-9.99933e-06 0 -0.0186764)
(5.3499e-06 0 -0.0165161)
(1.92964e-05 0 -0.0144856)
(3.18843e-05 0 -0.0125807)
(4.31328e-05 0 -0.0107965)
(5.29928e-05 0 -0.00912679)
(6.13541e-05 0 -0.007563)
(6.8243e-05 0 -0.00609535)
(7.42095e-05 0 -0.00471743)
(8.00171e-05 0 -0.00343082)
(8.67092e-05 0 -0.00224325)
(9.8115e-05 0 -0.00111997)
(-0.000107468 0 -0.000578498)
(-0.000104964 0 -0.00132099)
(-0.000102823 0 -0.00197078)
(-9.99182e-05 0 -0.00263915)
(-9.66541e-05 0 -0.00335045)
(-9.34823e-05 0 -0.00411682)
(-9.03205e-05 0 -0.00493942)
(-8.69721e-05 0 -0.0058174)
(-8.32843e-05 0 -0.00675089)
(-7.9171e-05 0 -0.0077414)
(-7.45929e-05 0 -0.00879126)
(-6.95314e-05 0 -0.00990308)
(-6.39726e-05 0 -0.0110796)
(-5.79005e-05 0 -0.0123235)
(-5.12962e-05 0 -0.0136376)
(-4.41386e-05 0 -0.0150248)
(-3.64044e-05 0 -0.0164882)
(-2.80679e-05 0 -0.0180312)
(-1.91019e-05 0 -0.0196572)
(-9.47671e-06 0 -0.0213701)
(8.39472e-07 0 -0.023174)
(1.18807e-05 0 -0.0250732)
(2.36826e-05 0 -0.0270726)
(3.62827e-05 0 -0.029177)
(4.97191e-05 0 -0.0313921)
(6.40299e-05 0 -0.0337235)
(7.92523e-05 0 -0.0361775)
(9.54116e-05 0 -0.0387609)
(0.000112492 0 -0.0414807)
(0.000130486 0 -0.0443434)
(0.000150906 0 -0.0476091)
(0.000173265 0 -0.0511999)
(0.000195477 0 -0.0547857)
(0.00021748 0 -0.0583666)
(0.00023914 0 -0.0619412)
(0.000260257 0 -0.0655064)
(0.000280602 0 -0.0690573)
(0.000299919 0 -0.0725877)
(0.000317923 0 -0.0760904)
(0.000334302 0 -0.0795571)
(0.000348712 0 -0.0829783)
(0.000360783 0 -0.0863433)
(0.000370118 0 -0.0896404)
(0.000376301 0 -0.0928565)
(0.000378904 0 -0.0959772)
(0.000377494 0 -0.098987)
(0.000371647 0 -0.101869)
(0.000360952 0 -0.104605)
(0.000344957 0 -0.107176)
(0.000323311 0 -0.109559)
(0.000295829 0 -0.111731)
(0.000262484 0 -0.113669)
(0.000223361 0 -0.115352)
(0.000178546 0 -0.116756)
(0.000128307 0 -0.117855)
(7.3166e-05 0 -0.118628)
(1.38757e-05 0 -0.119049)
(-4.8608e-05 0 -0.119097)
(-0.000113135 0 -0.118753)
(-0.000178379 0 -0.117998)
(-0.000242863 0 -0.116819)
(-0.000305008 0 -0.115203)
(-0.000363189 0 -0.113143)
(-0.000415792 0 -0.110637)
(-0.000461279 0 -0.107684)
(-0.000498251 0 -0.10429)
(-0.000525532 0 -0.100465)
(-0.000542213 0 -0.096222)
(-0.000547558 0 -0.0915765)
(-0.000540914 0 -0.0865489)
(-0.000524677 0 -0.0816712)
(-0.000502319 0 -0.0771706)
(-0.0004745 0 -0.0727165)
(-0.000442468 0 -0.068338)
(-0.000407502 0 -0.064056)
(-0.000370611 0 -0.0598869)
(-0.000332626 0 -0.0558436)
(-0.000294245 0 -0.0519358)
(-0.000256052 0 -0.0481708)
(-0.000218521 0 -0.0445532)
(-0.000182033 0 -0.041086)
(-0.000146885 0 -0.0377704)
(-0.000113307 0 -0.0346065)
(-8.14681e-05 0 -0.0315933)
(-5.14903e-05 0 -0.0287291)
(-2.34534e-05 0 -0.0260118)
(2.59489e-06 0 -0.0234384)
(2.66374e-05 0 -0.0210059)
(4.86839e-05 0 -0.0187108)
(6.87651e-05 0 -0.0165492)
(8.69322e-05 0 -0.0145174)
(0.000103244 0 -0.0126109)
(0.000117732 0 -0.0108247)
(0.000130361 0 -0.00915259)
(0.000141051 0 -0.00758593)
(0.000149894 0 -0.00611585)
(0.000157483 0 -0.00473784)
(0.000164492 0 -0.00345461)
(0.000171832 0 -0.00226998)
(0.000181203 0 -0.00114006)
(-0.000170869 0 -0.000582372)
(-0.000168079 0 -0.00132867)
(-0.000164922 0 -0.00198021)
(-0.000161288 0 -0.00264901)
(-0.000157493 0 -0.00335995)
(-0.000153829 0 -0.00412584)
(-0.000150155 0 -0.00494833)
(-0.00014624 0 -0.00582661)
(-0.000141905 0 -0.00676065)
(-0.000137041 0 -0.00775179)
(-0.000131596 0 -0.00880225)
(-0.000125545 0 -0.00991462)
(-0.000118866 0 -0.0110916)
(-0.000111539 0 -0.012336)
(-0.000103539 0 -0.0136505)
(-9.48408e-05 0 -0.015038)
(-8.54139e-05 0 -0.0165018)
(-7.5227e-05 0 -0.0180451)
(-6.42459e-05 0 -0.0196713)
(-5.24343e-05 0 -0.0213844)
(-3.97529e-05 0 -0.0231885)
(-2.61605e-05 0 -0.0250879)
(-1.16139e-05 0 -0.0270873)
(3.93185e-06 0 -0.0291919)
(2.05222e-05 0 -0.031407)
(3.82018e-05 0 -0.0337384)
(5.70138e-05 0 -0.0361923)
(7.69915e-05 0 -0.0387756)
(9.8128e-05 0 -0.0414951)
(0.000120399 0 -0.0443575)
(0.000145666 0 -0.0476226)
(0.000173343 0 -0.0512129)
(0.000200861 0 -0.0547982)
(0.000228135 0 -0.0583786)
(0.000254984 0 -0.0619525)
(0.000281167 0 -0.0655169)
(0.000306406 0 -0.0690668)
(0.000330394 0 -0.072596)
(0.000352788 0 -0.0760972)
(0.000373211 0 -0.0795622)
(0.000391252 0 -0.0829814)
(0.000406467 0 -0.0863442)
(0.000418385 0 -0.0896388)
(0.000426509 0 -0.092852)
(0.000430336 0 -0.0959695)
(0.000429353 0 -0.0989758)
(0.000423067 0 -0.101854)
(0.000411009 0 -0.104586)
(0.000392638 0 -0.107152)
(0.000367597 0 -0.109531)
(0.000335691 0 -0.111698)
(0.000296851 0 -0.113632)
(0.000251244 0 -0.115311)
(0.00019902 0 -0.11671)
(0.000140512 0 -0.117806)
(7.63883e-05 0 -0.118574)
(7.56621e-06 0 -0.118993)
(-6.4796e-05 0 -0.119039)
(-0.000139306 0 -0.118694)
(-0.000214373 0 -0.117939)
(-0.000288234 0 -0.116761)
(-0.000359007 0 -0.115148)
(-0.000424763 0 -0.113092)
(-0.000483593 0 -0.11059)
(-0.000533678 0 -0.107644)
(-0.000573375 0 -0.104257)
(-0.000601294 0 -0.10044)
(-0.000616375 0 -0.0962057)
(-0.00061782 0 -0.0915693)
(-0.000604855 0 -0.0865512)
(-0.000580792 0 -0.0816826)
(-0.000550019 0 -0.0771895)
(-0.000512944 0 -0.0727421)
(-0.00047107 0 -0.0683693)
(-0.000425904 0 -0.0640922)
(-0.000378654 0 -0.0599272)
(-0.000330318 0 -0.0558873)
(-0.000281737 0 -0.0519824)
(-0.000233609 0 -0.0482195)
(-0.0001865 0 -0.0446035)
(-0.000140862 0 -0.0411373)
(-9.7048e-05 0 -0.0378222)
(-5.53249e-05 0 -0.0346584)
(-1.5889e-05 0 -0.0316448)
(2.11227e-05 0 -0.0287799)
(5.56239e-05 0 -0.0260614)
(8.75688e-05 0 -0.0234867)
(0.000116947 0 -0.0210525)
(0.000143781 0 -0.0187554)
(0.000168117 0 -0.0165917)
(0.000190024 0 -0.0145574)
(0.000209578 0 -0.0126483)
(0.000226825 0 -0.0108592)
(0.000241746 0 -0.00918354)
(0.000254291 0 -0.00761299)
(0.000264565 0 -0.0061394)
(0.000273077 0 -0.0047596)
(0.000280185 0 -0.00347664)
(0.000286514 0 -0.00229124)
(0.000293258 0 -0.00115414)
(-0.000250565 0 -0.000587326)
(-0.000247651 0 -0.00133837)
(-0.000243843 0 -0.00199167)
(-0.000239688 0 -0.00266051)
(-0.000235456 0 -0.00337072)
(-0.000231363 0 -0.00413601)
(-0.000227239 0 -0.00495842)
(-0.000222827 0 -0.00583712)
(-0.000217923 0 -0.00677189)
(-0.000212402 0 -0.00776386)
(-0.0002062 0 -0.00881516)
(-0.000199279 0 -0.00992834)
(-0.000191614 0 -0.0111061)
(-0.000183177 0 -0.0123511)
(-0.000173939 0 -0.0136663)
(-0.000163867 0 -0.0150546)
(-0.000152926 0 -0.016519)
(-0.000141077 0 -0.0180628)
(-0.00012828 0 -0.0196897)
(-0.000114493 0 -0.0214033)
(-9.96698e-05 0 -0.0232079)
(-8.37629e-05 0 -0.0251078)
(-6.67221e-05 0 -0.0271077)
(-4.84962e-05 0 -0.0292128)
(-2.90329e-05 0 -0.0314283)
(-8.28147e-06 0 -0.0337602)
(1.38067e-05 0 -0.0362146)
(3.72712e-05 0 -0.0387982)
(6.21158e-05 0 -0.0415181)
(8.83145e-05 0 -0.0443808)
(0.000118021 0 -0.0476459)
(0.00015055 0 -0.0512365)
(0.000182936 0 -0.054822)
(0.000215057 0 -0.0584023)
(0.000246687 0 -0.0619762)
(0.00027755 0 -0.0655403)
(0.00030733 0 -0.0690897)
(0.000335675 0 -0.0726182)
(0.000362195 0 -0.0761184)
(0.00038646 0 -0.0795822)
(0.000408006 0 -0.0829998)
(0.000426328 0 -0.0863607)
(0.000440896 0 -0.089653)
(0.000451154 0 -0.0928637)
(0.000456536 0 -0.0959783)
(0.000456476 0 -0.0989812)
(0.000450419 0 -0.101856)
(0.000437865 0 -0.104584)
(0.000418213 0 -0.107146)
(0.000391114 0 -0.10952)
(0.000356383 0 -0.111683)
(0.000313906 0 -0.113612)
(0.000263943 0 -0.115286)
(0.000206718 0 -0.11668)
(0.000142626 0 -0.117772)
(7.24716e-05 0 -0.118538)
(-2.68898e-06 0 -0.118953)
(-8.15147e-05 0 -0.118998)
(-0.00016241 0 -0.118652)
(-0.000243568 0 -0.117897)
(-0.000322985 0 -0.116721)
(-0.000398536 0 -0.11511)
(-0.000468048 0 -0.113058)
(-0.000529375 0 -0.110562)
(-0.000580482 0 -0.107622)
(-0.000619535 0 -0.104243)
(-0.000644988 0 -0.100434)
(-0.000655665 0 -0.0962091)
(-0.00065075 0 -0.0915823)
(-0.000629452 0 -0.0865737)
(-0.000596014 0 -0.0817138)
(-0.000555691 0 -0.0772282)
(-0.000508554 0 -0.0727872)
(-0.00045628 0 -0.0684199)
(-0.000400562 0 -0.0641474)
(-0.000342771 0 -0.0599862)
(-0.000284047 0 -0.0559492)
(-0.000225347 0 -0.0520465)
(-0.000167463 0 -0.0482852)
(-0.000111035 0 -0.0446701)
(-5.65699e-05 0 -0.0412043)
(-4.46101e-06 0 -0.037889)
(4.49968e-05 0 -0.0347245)
(9.15921e-05 0 -0.0317098)
(0.000135182 0 -0.0288434)
(0.000175681 0 -0.026123)
(0.000213053 0 -0.023546)
(0.000247303 0 -0.0211093)
(0.00027847 0 -0.0188094)
(0.000306624 0 -0.0166427)
(0.000331859 0 -0.0146052)
(0.000354271 0 -0.0126926)
(0.000373931 0 -0.0108996)
(0.000390852 0 -0.00921962)
(0.000405021 0 -0.00764425)
(0.000416546 0 -0.00616592)
(0.000425813 0 -0.00478231)
(0.00043289 0 -0.00349645)
(0.00043819 0 -0.00230735)
(0.000443343 0 -0.00116364)
(-0.000345956 0 -0.00059257)
(-0.000343251 0 -0.0013487)
(-0.000339231 0 -0.00200394)
(-0.00033489 0 -0.00267282)
(-0.000330437 0 -0.00338228)
(-0.000326064 0 -0.00414694)
(-0.000321613 0 -0.00496928)
(-0.000316822 0 -0.00584845)
(-0.000311475 0 -0.00678401)
(-0.00030543 0 -0.0077769)
(-0.00029861 0 -0.00882914)
(-0.000290971 0 -0.00994321)
(-0.000282479 0 -0.0111218)
(-0.000273101 0 -0.0123677)
(-0.000262803 0 -0.0136836)
(-0.000251545 0 -0.0150726)
(-0.000239287 0 -0.0165377)
(-0.000225985 0 -0.0180822)
(-0.000211593 0 -0.0197097)
(-0.000196062 0 -0.0214239)
(-0.00017934 0 -0.0232291)
(-0.000161374 0 -0.0251295)
(-0.000142109 0 -0.02713)
(-0.000121487 0 -0.0292356)
(-9.94512e-05 0 -0.0314516)
(-7.59448e-05 0 -0.0337839)
(-5.09156e-05 0 -0.0362388)
(-2.43218e-05 0 -0.0388228)
(3.84529e-06 0 -0.0415431)
(3.35632e-05 0 -0.0444059)
(6.72995e-05 0 -0.0476713)
(0.000104266 0 -0.0512619)
(0.000141092 0 -0.0548475)
(0.00017763 0 -0.0584278)
(0.000213629 0 -0.0620014)
(0.000248786 0 -0.065565)
(0.000282756 0 -0.0691137)
(0.000315153 0 -0.0726413)
(0.000345547 0 -0.0761404)
(0.000373472 0 -0.0796025)
(0.000398419 0 -0.0830183)
(0.00041984 0 -0.0863769)
(0.000437161 0 -0.0896667)
(0.000449783 0 -0.0928743)
(0.000457096 0 -0.0959855)
(0.000458495 0 -0.0989846)
(0.000453395 0 -0.101855)
(0.000441265 0 -0.104578)
(0.000421475 0 -0.107135)
(0.000393709 0 -0.109504)
(0.000357791 0 -0.111662)
(0.000313573 0 -0.113586)
(0.000261408 0 -0.115255)
(0.000201604 0 -0.116645)
(0.000134621 0 -0.117733)
(6.13767e-05 0 -0.118494)
(-1.69474e-05 0 -0.118907)
(-9.88522e-05 0 -0.11895)
(-0.000182579 0 -0.118603)
(-0.000266142 0 -0.117849)
(-0.000347346 0 -0.116674)
(-0.000423874 0 -0.115067)
(-0.000493366 0 -0.113021)
(-0.000553497 0 -0.110531)
(-0.000602071 0 -0.107598)
(-0.000637116 0 -0.104228)
(-0.000656979 0 -0.10043)
(-0.0006604 0 -0.0962149)
(-0.000646555 0 -0.0915989)
(-0.000614657 0 -0.0866013)
(-0.000570144 0 -0.0817511)
(-0.000519124 0 -0.0772737)
(-0.000461049 0 -0.07284)
(-0.00039772 0 -0.0684789)
(-0.000330991 0 -0.0642115)
(-0.000262372 0 -0.0600545)
(-0.000193119 0 -0.0560208)
(-0.000124279 0 -0.0521205)
(-5.67163e-05 0 -0.0483609)
(8.87445e-06 0 -0.0447468)
(7.19466e-05 0 -0.0412812)
(0.00013208 0 -0.0379656)
(0.000188967 0 -0.0348001)
(0.000242391 0 -0.0317841)
(0.000292213 0 -0.0289158)
(0.00033836 0 -0.0261931)
(0.000380813 0 -0.0236135)
(0.000419597 0 -0.0211737)
(0.00045478 0 -0.0188706)
(0.00048646 0 -0.0167003)
(0.000514759 0 -0.014659)
(0.000539805 0 -0.0127423)
(0.000561698 0 -0.0109448)
(0.000580493 0 -0.00925986)
(0.000596222 0 -0.00767906)
(0.000609005 0 -0.00619518)
(0.000619147 0 -0.00480631)
(0.000626542 0 -0.00351551)
(0.00063149 0 -0.00232115)
(0.000636177 0 -0.0011711)
(-0.00045842 0 -0.0005976)
(-0.00045602 0 -0.00135875)
(-0.000452007 0 -0.00201614)
(-0.000447652 0 -0.00268536)
(-0.000443078 0 -0.00339431)
(-0.000438482 0 -0.00415851)
(-0.000433744 0 -0.00498087)
(-0.000428622 0 -0.00586058)
(-0.000422894 0 -0.00679703)
(-0.000416408 0 -0.00779095)
(-0.000409071 0 -0.00884422)
(-0.000400828 0 -0.0099593)
(-0.000391638 0 -0.0111388)
(-0.000381461 0 -0.0123856)
(-0.000370256 0 -0.0137024)
(-0.000357978 0 -0.0150921)
(-0.000344581 0 -0.0165579)
(-0.000330015 0 -0.0181031)
(-0.00031423 0 -0.0197312)
(-0.000297169 0 -0.0214461)
(-0.000278779 0 -0.0232518)
(-0.000258998 0 -0.0251528)
(-0.000237768 0 -0.0271538)
(-0.000215026 0 -0.0292598)
(-0.000190711 0 -0.0314763)
(-0.000164759 0 -0.033809)
(-0.000137115 0 -0.0362642)
(-0.000107736 0 -0.0388485)
(-7.66101e-05 0 -0.0415689)
(-4.37606e-05 0 -0.0444319)
(-6.39794e-06 0 -0.0476972)
(3.45892e-05 0 -0.0512877)
(7.54383e-05 0 -0.0548731)
(0.000115985 0 -0.0584531)
(0.000155965 0 -0.0620262)
(0.000195058 0 -0.0655891)
(0.000232897 0 -0.0691369)
(0.000269071 0 -0.0726632)
(0.000303125 0 -0.0761607)
(0.000334564 0 -0.0796209)
(0.000362848 0 -0.0830344)
(0.000387402 0 -0.0863904)
(0.000407622 0 -0.0896771)
(0.00042288 0 -0.0928812)
(0.000432543 0 -0.0959885)
(0.000435984 0 -0.0989834)
(0.000432596 0 -0.101849)
(0.000421843 0 -0.104567)
(0.00040308 0 -0.107119)
(0.000376042 0 -0.109482)
(0.000340568 0 -0.111635)
(0.000296485 0 -0.113553)
(0.000244242 0 -0.115217)
(0.000184229 0 -0.116602)
(0.00011697 0 -0.117685)
(4.34772e-05 0 -0.118442)
(-3.49474e-05 0 -0.118852)
(-0.000116681 0 -0.118893)
(-0.000199834 0 -0.118546)
(-0.000282274 0 -0.117793)
(-0.000361661 0 -0.116621)
(-0.000435534 0 -0.115018)
(-0.000501392 0 -0.112978)
(-0.000556785 0 -0.110495)
(-0.000599402 0 -0.107571)
(-0.000627182 0 -0.104211)
(-0.000638407 0 -0.100424)
(-0.000631774 0 -0.0962209)
(-0.00060646 0 -0.0916172)
(-0.000561711 0 -0.086632)
(-0.000504399 0 -0.0817928)
(-0.000441451 0 -0.0773247)
(-0.000371449 0 -0.0728991)
(-0.000296295 0 -0.0685449)
(-0.00021798 0 -0.0642833)
(-0.000138124 0 -0.060131)
(-5.80694e-05 0 -0.056101)
(2.10642e-05 0 -0.0522035)
(9.83629e-05 0 -0.0484457)
(0.000173094 0 -0.0448326)
(0.000244688 0 -0.0413672)
(0.000312714 0 -0.0380512)
(0.000376861 0 -0.0348847)
(0.000436919 0 -0.0318669)
(0.000492764 0 -0.0289965)
(0.000544342 0 -0.0262712)
(0.000591659 0 -0.0236885)
(0.00063477 0 -0.0212453)
(0.00067377 0 -0.0189383)
(0.000708791 0 -0.0167639)
(0.000739988 0 -0.0147183)
(0.000767517 0 -0.0127969)
(0.000791511 0 -0.0109945)
(0.000812064 0 -0.00930406)
(0.000829253 0 -0.00771734)
(0.000843221 0 -0.00622729)
(0.000854239 0 -0.00483225)
(0.000862145 0 -0.00353535)
(0.000867149 0 -0.0023348)
(0.00087196 0 -0.0011782)
(-0.00058956 0 -0.000602378)
(-0.000587418 0 -0.00136841)
(-0.000583428 0 -0.00202813)
(-0.000579062 0 -0.00269805)
(-0.00057435 0 -0.00340681)
(-0.000569499 0 -0.00417076)
(-0.00056444 0 -0.00499325)
(-0.000558961 0 -0.00587357)
(-0.000552848 0 -0.00681096)
(-0.000545939 0 -0.007806)
(-0.000538125 0 -0.00886041)
(-0.00052934 0 -0.00997659)
(-0.000519531 0 -0.0111572)
(-0.000508651 0 -0.0124049)
(-0.000496653 0 -0.0137226)
(-0.000483485 0 -0.0151133)
(-0.000469094 0 -0.0165799)
(-0.000453425 0 -0.0181259)
(-0.000436421 0 -0.0197547)
(-0.000418024 0 -0.0214702)
(-0.000398171 0 -0.0232766)
(-0.000376799 0 -0.0251781)
(-0.000353844 0 -0.0271797)
(-0.000329239 0 -0.0292862)
(-0.000302916 0 -0.0315031)
(-0.000274811 0 -0.0338362)
(-0.000244863 0 -0.0362918)
(-0.000213023 0 -0.0388764)
(-0.000179277 0 -0.041597)
(-0.000143649 0 -0.0444599)
(-0.000103059 0 -0.0477251)
(-5.84801e-05 0 -0.0513155)
(-1.40209e-05 0 -0.0549007)
(3.0142e-05 0 -0.0584803)
(7.3735e-05 0 -0.0620529)
(0.000116428 0 -0.0656151)
(0.000157841 0 -0.0691617)
(0.000197547 0 -0.0726867)
(0.000235077 0 -0.0761825)
(0.000269917 0 -0.0796407)
(0.000301513 0 -0.0830518)
(0.000329272 0 -0.086405)
(0.000352575 0 -0.0896884)
(0.000370783 0 -0.0928889)
(0.00038325 0 -0.0959921)
(0.000389348 0 -0.0989825)
(0.000388467 0 -0.101843)
(0.000380074 0 -0.104556)
(0.000363521 0 -0.107102)
(0.000338618 0 -0.10946)
(0.00030523 0 -0.111607)
(0.000263147 0 -0.11352)
(0.000212922 0 -0.115177)
(0.000155037 0 -0.116557)
(9.00598e-05 0 -0.117636)
(1.90991e-05 0 -0.11839)
(-5.64456e-05 0 -0.118797)
(-0.000134856 0 -0.118837)
(-0.000214134 0 -0.118489)
(-0.00029204 0 -0.117738)
(-0.000366126 0 -0.116569)
(-0.000433829 0 -0.114971)
(-0.000492555 0 -0.112937)
(-0.00053977 0 -0.110463)
(-0.000573098 0 -0.107549)
(-0.000590428 0 -0.1042)
(-0.00059002 0 -0.100424)
(-0.000570562 0 -0.0962339)
(-0.000531271 0 -0.0916433)
(-0.000471459 0 -0.0866714)
(-0.000399603 0 -0.081844)
(-0.000323386 0 -0.0773858)
(-0.000240357 0 -0.0729689)
(-0.000152505 0 -0.068622)
(-6.19183e-05 0 -0.0643664)
(2.96998e-05 0 -0.0602189)
(0.000120942 0 -0.0561927)
(0.000210642 0 -0.0522978)
(0.000297851 0 -0.0485417)
(0.000381818 0 -0.0449294)
(0.000461964 0 -0.041464)
(0.00053786 0 -0.0381472)
(0.000609205 0 -0.0349792)
(0.000675806 0 -0.0319594)
(0.000737561 0 -0.0290863)
(0.000794445 0 -0.0263578)
(0.000846492 0 -0.0237715)
(0.000893791 0 -0.0213243)
(0.000936471 0 -0.0190129)
(0.000974696 0 -0.0168339)
(0.00100865 0 -0.0147833)
(0.00103853 0 -0.0128567)
(0.00106449 0 -0.0110486)
(0.00108667 0 -0.00935207)
(0.00110518 0 -0.00775885)
(0.00112019 0 -0.00626202)
(0.00113198 0 -0.00486011)
(0.0011404 0 -0.00355634)
(0.00114553 0 -0.002349)
(0.00115072 0 -0.00118549)
(-0.000740096 0 -0.000606987)
(-0.00073818 0 -0.00137784)
(-0.000734201 0 -0.00204006)
(-0.000729812 0 -0.002711)
(-0.00072495 0 -0.00341992)
(-0.000719829 0 -0.00418383)
(-0.000714423 0 -0.00500654)
(-0.000708558 0 -0.00588749)
(-0.000702039 0 -0.00682584)
(-0.0006947 0 -0.00782202)
(-0.000686423 0 -0.00887764)
(-0.000677128 0 -0.00999501)
(-0.000666752 0 -0.0111767)
(-0.00065524 0 -0.0124256)
(-0.000642535 0 -0.0137443)
(-0.00062858 0 -0.0151359)
(-0.000613316 0 -0.0166035)
(-0.000596682 0 -0.0181503)
(-0.000578615 0 -0.01978)
(-0.000559052 0 -0.0214963)
(-0.000537926 0 -0.0233033)
(-0.00051517 0 -0.0252056)
(-0.000490714 0 -0.0272077)
(-0.000464488 0 -0.0293148)
(-0.00043642 0 -0.0315322)
(-0.00040644 0 -0.0338658)
(-0.000374483 0 -0.0363218)
(-0.000340496 0 -0.0389068)
(-0.000304457 0 -0.0416276)
(-0.000266387 0 -0.0444907)
(-0.000222955 0 -0.0477558)
(-0.000175207 0 -0.0513462)
(-0.000127539 0 -0.0549312)
(-8.01402e-05 0 -0.0585105)
(-3.32855e-05 0 -0.0620826)
(1.26905e-05 0 -0.065644)
(5.74021e-05 0 -0.0691897)
(0.000100418 0 -0.0727133)
(0.000141263 0 -0.0762075)
(0.000179421 0 -0.0796637)
(0.00021433 0 -0.0830724)
(0.000245397 0 -0.0864228)
(0.000272002 0 -0.089703)
(0.000293507 0 -0.0928999)
(0.000309273 0 -0.095999)
(0.00031868 0 -0.0989849)
(0.00032113 0 -0.101841)
(0.00031611 0 -0.104549)
(0.000302976 0 -0.107089)
(0.000281633 0 -0.109441)
(0.000251982 0 -0.111582)
(0.000213762 0 -0.113489)
(0.000167645 0 -0.115142)
(0.000114204 0 -0.116517)
(5.40405e-05 0 -0.117591)
(-1.1645e-05 0 -0.118342)
(-8.13801e-05 0 -0.118747)
(-0.000153371 0 -0.118786)
(-0.000225539 0 -0.118439)
(-0.000295564 0 -0.117689)
(-0.00036093 0 -0.116524)
(-0.000419013 0 -0.114932)
(-0.000467165 0 -0.112905)
(-0.000502811 0 -0.110439)
(-0.00052355 0 -0.107535)
(-0.000527265 0 -0.104198)
(-0.000512227 0 -0.100435)
(-0.000477155 0 -0.0962581)
(-0.000421338 0 -0.0916813)
(-0.000344191 0 -0.0867231)
(-0.000255962 0 -0.0819078)
(-0.000165041 0 -0.0774597)
(-6.77848e-05 0 -0.0730516)
(3.37478e-05 0 -0.068712)
(0.000137399 0 -0.0644625)
(0.000241412 0 -0.0603197)
(0.000344338 0 -0.056297)
(0.000444982 0 -0.0524045)
(0.00054238 0 -0.0486497)
(0.000635778 0 -0.0450379)
(0.000724603 0 -0.0415721)
(0.000808439 0 -0.038254)
(0.000887006 0 -0.035084)
(0.000960138 0 -0.0320615)
(0.00102776 0 -0.0291852)
(0.00108989 0 -0.026453)
(0.00114659 0 -0.0238624)
(0.00119799 0 -0.0214105)
(0.00124425 0 -0.0190942)
(0.00128558 0 -0.0169098)
(0.00132219 0 -0.0148536)
(0.00135431 0 -0.0129211)
(0.00138213 0 -0.0111068)
(0.00140585 0 -0.00940354)
(0.00142561 0 -0.00780324)
(0.00144163 0 -0.00629905)
(0.00145419 0 -0.00488967)
(0.00146317 0 -0.00357851)
(0.00146847 0 -0.00236393)
(0.00147425 0 -0.00119314)
(-0.000910141 0 -0.000611421)
(-0.000908473 0 -0.00138701)
(-0.000904542 0 -0.00205188)
(-0.000900188 0 -0.00272415)
(-0.00089524 0 -0.00343356)
(-0.000889903 0 -0.00419768)
(-0.000884183 0 -0.00502074)
(-0.000877946 0 -0.00590235)
(-0.000871024 0 -0.00684167)
(-0.000863261 0 -0.007839)
(-0.000854536 0 -0.00889584)
(-0.00084476 0 -0.0100144)
(-0.000833861 0 -0.0111973)
(-0.000821777 0 -0.0124473)
(-0.000808443 0 -0.0137672)
(-0.000793795 0 -0.0151598)
(-0.000777767 0 -0.0166284)
(-0.000760294 0 -0.0181761)
(-0.000741308 0 -0.0198067)
(-0.00072074 0 -0.0215238)
(-0.000698519 0 -0.0233317)
(-0.000674574 0 -0.0252346)
(-0.00064883 0 -0.0272375)
(-0.000621213 0 -0.0293452)
(-0.000591648 0 -0.0315632)
(-0.00056006 0 -0.0338974)
(-0.000526378 0 -0.0363538)
(-0.000490544 0 -0.0389392)
(-0.000452528 0 -0.0416603)
(-0.000412347 0 -0.0445236)
(-0.000366442 0 -0.0477888)
(-0.000315922 0 -0.0513791)
(-0.000265429 0 -0.054964)
(-0.000215155 0 -0.0585431)
(-0.000165373 0 -0.0621148)
(-0.000116413 0 -0.0656755)
(-6.86558e-05 0 -0.0692202)
(-2.25293e-05 0 -0.0727426)
(2.14987e-05 0 -0.0762351)
(6.29167e-05 0 -0.0796894)
(0.000101172 0 -0.0830958)
(0.000135682 0 -0.0864435)
(0.000165839 0 -0.0897205)
(0.000191021 0 -0.0929138)
(0.000210608 0 -0.096009)
(0.000224002 0 -0.0989905)
(0.000230634 0 -0.101842)
(0.000230022 0 -0.104544)
(0.000221536 0 -0.10708)
(0.00020518 0 -0.109426)
(0.000180909 0 -0.111561)
(0.000148416 0 -0.113463)
(0.000108481 0 -0.115111)
(6.17705e-05 0 -0.116481)
(8.92068e-06 0 -0.117552)
(-4.87935e-05 0 -0.1183)
(-0.000109845 0 -0.118703)
(-0.000172379 0 -0.118741)
(-0.000234261 0 -0.118395)
(-0.000293125 0 -0.117648)
(-0.000346418 0 -0.116487)
(-0.000391486 0 -0.114901)
(-0.000425668 0 -0.112881)
(-0.000446387 0 -0.110425)
(-0.000451256 0 -0.107533)
(-0.000438187 0 -0.104207)
(-0.0004055 0 -0.100458)
(-0.000351978 0 -0.0962946)
(-0.000277009 0 -0.091732)
(-0.000180141 0 -0.0867879)
(-7.3594e-05 0 -0.081985)
(3.3565e-05 0 -0.0775471)
(0.000146355 0 -0.0731477)
(0.000262666 0 -0.0688154)
(0.000380297 0 -0.0645717)
(0.000497459 0 -0.0604335)
(0.000612683 0 -0.056414)