/*--------------------------------*- C++ -*----------------------------------*\
  =========                 |
  \\      /  F ield         | OpenFOAM: The Open Source CFD Toolbox
   \\    /   O peration     | Website:  https://openfoam.org
    \\  /    A nd           | Version:  9
     \\/     M anipulation  |
\*---------------------------------------------------------------------------*/
FoamFile
{
    format      ascii;
    class       surfaceVectorField;
    location    "0.02";
    object      Uf;
}
// * * * * * * * * * * * * * * * * * * * * * * * * * * * * * * * * * * * * * //

dimensions      [0 1 -1 0 0 0 0];

internalField   nonuniform List<vector> 
39700
(
(-3.86967e-06 0 -0.000930748)
(-1.72366e-05 0 -0.000568109)
(-3.79043e-06 0 -0.00162758)
(-1.4281e-05 0 -0.001311)
(-3.52565e-06 0 -0.00228211)
(-1.43224e-05 0 -0.00195737)
(-2.72881e-06 0 -0.00296886)
(-1.34019e-05 0 -0.00262203)
(-1.86898e-06 0 -0.0037079)
(-1.18079e-05 0 -0.00333338)
(-1.0708e-06 0 -0.00450311)
(-1.03051e-05 0 -0.00410116)
(-3.03844e-07 0 -0.00535331)
(-8.91149e-06 0 -0.00492469)
(4.89161e-07 0 -0.0062581)
(-7.52442e-06 0 -0.00580272)
(1.34261e-06 0 -0.00721869)
(-6.05672e-06 0 -0.00673573)
(2.26918e-06 0 -0.0082373)
(-4.46738e-06 0 -0.00772557)
(3.27164e-06 0 -0.00931653)
(-2.74189e-06 0 -0.00877475)
(4.35066e-06 0 -0.0104591)
(-8.75065e-07 0 -0.00988594)
(5.50756e-06 0 -0.0116676)
(1.13702e-06 0 -0.0110618)
(6.74469e-06 0 -0.012945)
(3.29932e-06 0 -0.0123052)
(8.06499e-06 0 -0.014294)
(5.61781e-06 0 -0.0136188)
(9.47186e-06 0 -0.0157176)
(8.09925e-06 0 -0.0150055)
(1.09693e-05 0 -0.0172191)
(1.07512e-05 0 -0.0164685)
(1.25617e-05 0 -0.0188018)
(1.35821e-05 0 -0.018011)
(1.42544e-05 0 -0.0204694)
(1.6601e-05 0 -0.0196366)
(1.6053e-05 0 -0.0222259)
(1.9818e-05 0 -0.0213491)
(1.79636e-05 0 -0.0240755)
(2.3244e-05 0 -0.0231526)
(1.99931e-05 0 -0.0260227)
(2.68909e-05 0 -0.0250515)
(2.21491e-05 0 -0.0280725)
(3.07714e-05 0 -0.0270505)
(2.44396e-05 0 -0.0302301)
(3.48994e-05 0 -0.0291547)
(2.68733e-05 0 -0.0325011)
(3.92893e-05 0 -0.0313695)
(2.94598e-05 0 -0.0348914)
(4.39566e-05 0 -0.0337006)
(3.22093e-05 0 -0.0374076)
(4.89175e-05 0 -0.0361543)
(3.51301e-05 0 -0.0400567)
(5.41854e-05 0 -0.0387374)
(3.82271e-05 0 -0.0428454)
(5.9772e-05 0 -0.041457)
(4.15072e-05 0 -0.0457788)
(6.57123e-05 0 -0.0443198)
(4.5267e-05 0 -0.0493707)
(7.22775e-05 0 -0.0475857)
(4.90775e-05 0 -0.0529582)
(7.93422e-05 0 -0.0511767)
(5.28978e-05 0 -0.0565408)
(8.64686e-05 0 -0.0547626)
(5.66941e-05 0 -0.060118)
(9.35676e-05 0 -0.0583438)
(6.04262e-05 0 -0.0636876)
(0.000100572 0 -0.061919)
(6.40506e-05 0 -0.0672456)
(0.000107411 0 -0.0654849)
(6.75205e-05 0 -0.0707865)
(0.000114002 0 -0.0690369)
(7.0785e-05 0 -0.0743037)
(0.000120256 0 -0.0725687)
(7.3788e-05 0 -0.0777894)
(0.000126078 0 -0.0760731)
(7.64676e-05 0 -0.0812347)
(0.000131359 0 -0.0795419)
(7.87556e-05 0 -0.0846297)
(0.000135981 0 -0.0829655)
(8.05775e-05 0 -0.0879631)
(0.000139816 0 -0.0863335)
(8.18533e-05 0 -0.0912226)
(0.000142723 0 -0.089634)
(8.24987e-05 0 -0.0943944)
(0.000144556 0 -0.092854)
(8.24271e-05 0 -0.0974635)
(0.00014516 0 -0.0959791)
(8.15517e-05 0 -0.100414)
(0.000144381 0 -0.0989937)
(7.97839e-05 0 -0.103228)
(0.000142062 0 -0.101881)
(7.703e-05 0 -0.105887)
(0.000138045 0 -0.104623)
(7.31955e-05 0 -0.10837)
(0.000132166 0 -0.1072)
(6.81954e-05 0 -0.110654)
(0.000124262 0 -0.10959)
(6.20096e-05 0 -0.112716)
(0.000114237 0 -0.111769)
(5.46352e-05 0 -0.114533)
(0.000102105 0 -0.113714)
(4.60613e-05 0 -0.116082)
(8.78664e-05 0 -0.115404)
(3.62948e-05 0 -0.11734)
(7.15097e-05 0 -0.116814)
(2.53976e-05 0 -0.118282)
(5.31071e-05 0 -0.11792)
(1.34763e-05 0 -0.118883)
(3.28196e-05 0 -0.118698)
(6.77735e-07 0 -0.119122)
(1.09002e-05 0 -0.119123)
(-1.27602e-05 0 -0.118977)
(-1.23397e-05 0 -0.119175)
(-2.66391e-05 0 -0.118428)
(-3.65031e-05 0 -0.118832)
(-4.06725e-05 0 -0.11746)
(-6.11142e-05 0 -0.118078)
(-5.45528e-05 0 -0.11606)
(-8.56603e-05 0 -0.116897)
(-6.79556e-05 0 -0.114218)
(-0.000109576 0 -0.115278)
(-8.05499e-05 0 -0.111928)
(-0.000132275 0 -0.113213)
(-9.20097e-05 0 -0.10919)
(-0.000153175 0 -0.110699)
(-0.000102029 0 -0.106007)
(-0.000171712 0 -0.107737)
(-0.00011034 0 -0.102387)
(-0.000187376 0 -0.104333)
(-0.000116735 0 -0.0983405)
(-0.000199741 0 -0.100496)
(-0.000121058 0 -0.0938834)
(-0.00020848 0 -0.0962409)
(-0.000123192 0 -0.0890335)
(-0.000213348 0 -0.0915822)
(-0.000123124 0 -0.0838219)
(-0.000214263 0 -0.086541)
(-0.000121011 0 -0.0793136)
(-0.000211377 0 -0.0816508)
(-0.000117558 0 -0.0748272)
(-0.000205611 0 -0.0771396)
(-0.000113077 0 -0.0704035)
(-0.000197844 0 -0.0726761)
(-0.000107841 0 -0.0660675)
(-0.000188517 0 -0.0682895)
(-0.000102057 0 -0.0618375)
(-0.000178048 0 -0.0640006)
(-9.58919e-05 0 -0.057728)
(-0.000166779 0 -0.0598256)
(-8.94879e-05 0 -0.0537503)
(-0.000154994 0 -0.0557774)
(-8.29656e-05 0 -0.0499127)
(-0.00014293 0 -0.0518656)
(-7.64261e-05 0 -0.0462212)
(-0.000130791 0 -0.0480975)
(-6.99519e-05 0 -0.0426794)
(-0.000118742 0 -0.0444776)
(-6.36091e-05 0 -0.0392893)
(-0.000106918 0 -0.0410088)
(-5.74496e-05 0 -0.0360515)
(-9.54265e-05 0 -0.0376924)
(-5.1514e-05 0 -0.0329656)
(-8.43505e-05 0 -0.0345282)
(-4.58329e-05 0 -0.03003)
(-7.37544e-05 0 -0.0315153)
(-4.04299e-05 0 -0.0272429)
(-6.36864e-05 0 -0.0286521)
(-3.53218e-05 0 -0.0246016)
(-5.41818e-05 0 -0.0259361)
(-3.05206e-05 0 -0.0221032)
(-4.52649e-05 0 -0.0233645)
(-2.60338e-05 0 -0.0197442)
(-3.69507e-05 0 -0.0209343)
(-2.18645e-05 0 -0.017521)
(-2.92459e-05 0 -0.0186417)
(-1.80116e-05 0 -0.0154297)
(-2.21487e-05 0 -0.0164831)
(-1.44704e-05 0 -0.0134662)
(-1.56489e-05 0 -0.0144545)
(-1.12385e-05 0 -0.011626)
(-9.73207e-06 0 -0.0125515)
(-8.3297e-06 0 -0.00990378)
(-4.39528e-06 0 -0.0107695)
(-5.7904e-06 0 -0.00829244)
(3.19071e-07 0 -0.00910249)
(-3.68023e-06 0 -0.00678229)
(4.32453e-06 0 -0.00754202)
(-1.97265e-06 0 -0.00536294)
(7.58761e-06 0 -0.00607737)
(-3.89964e-07 0 -0.00402881)
(1.04151e-05 0 -0.00469936)
(1.52652e-06 0 -0.00278376)
(1.31718e-05 0 -0.00340705)
(4.47717e-06 0 -0.00161592)
(1.6754e-05 0 -0.00221023)
(2.5179e-05 0 -0.00107991)
(-2.66875e-05 0 -0.00093105)
(-4.55749e-05 0 -0.000572625)
(-2.58457e-05 0 -0.00162617)
(-4.19996e-05 0 -0.00131361)
(-2.45604e-05 0 -0.00228259)
(-4.1318e-05 0 -0.00196118)
(-2.24675e-05 0 -0.00297105)
(-3.94552e-05 0 -0.00262794)
(-2.02584e-05 0 -0.00371007)
(-3.6856e-05 0 -0.00333932)
(-1.81801e-05 0 -0.00450507)
(-3.43698e-05 0 -0.00410648)
(-1.6178e-05 0 -0.00535535)
(-3.20099e-05 0 -0.00492957)
(-1.4122e-05 0 -0.00626053)
(-2.96126e-05 0 -0.0058075)
(-1.19219e-05 0 -0.00722168)
(-2.70471e-05 0 -0.0067406)
(-9.53604e-06 0 -0.00824094)
(-2.4247e-05 0 -0.00773061)
(-6.94869e-06 0 -0.00932087)
(-2.11849e-05 0 -0.00877997)
(-4.15176e-06 0 -0.0104642)
(-1.78484e-05 0 -0.00989132)
(-1.13766e-06 0 -0.0116735)
(-1.42284e-05 0 -0.0110674)
(2.10229e-06 0 -0.0129518)
(-1.03145e-05 0 -0.0123109)
(5.57801e-06 0 -0.0143017)
(-6.09466e-06 0 -0.0136246)
(9.30042e-06 0 -0.0157263)
(-1.55549e-06 0 -0.0150114)
(1.32814e-05 0 -0.0172289)
(3.3176e-06 0 -0.0164745)
(1.7534e-05 0 -0.0188127)
(8.54059e-06 0 -0.0180172)
(2.20722e-05 0 -0.0204816)
(1.41306e-05 0 -0.0196429)
(2.69112e-05 0 -0.0222394)
(2.01061e-05 0 -0.0213555)
(3.20678e-05 0 -0.0240904)
(2.64873e-05 0 -0.0231591)
(3.75597e-05 0 -0.0260392)
(3.32959e-05 0 -0.0250581)
(4.3406e-05 0 -0.0280906)
(4.05549e-05 0 -0.0270572)
(4.96269e-05 0 -0.0302498)
(4.82887e-05 0 -0.0291615)
(5.62438e-05 0 -0.0325226)
(5.65227e-05 0 -0.0313763)
(6.32786e-05 0 -0.0349148)
(6.5283e-05 0 -0.0337075)
(7.07534e-05 0 -0.0374331)
(7.45965e-05 0 -0.0361613)
(7.86856e-05 0 -0.0400843)
(8.4482e-05 0 -0.0387445)
(8.70786e-05 0 -0.0428753)
(9.49454e-05 0 -0.0414642)
(9.59258e-05 0 -0.0458112)
(0.000106026 0 -0.044327)
(0.000106322 0 -0.0494061)
(0.000118428 0 -0.0475926)
(0.000116753 0 -0.0529966)
(0.000131882 0 -0.0511836)
(0.000127168 0 -0.0565822)
(0.000145351 0 -0.0547696)
(0.000137492 0 -0.0601623)
(0.000158727 0 -0.0583507)
(0.000147623 0 -0.0637349)
(0.000171907 0 -0.0619257)
(0.000157449 0 -0.0672959)
(0.000184763 0 -0.0654915)
(0.000166848 0 -0.0708398)
(0.000197149 0 -0.0690431)
(0.000175687 0 -0.07436)
(0.000208903 0 -0.0725746)
(0.000183815 0 -0.0778486)
(0.000219844 0 -0.0760785)
(0.00019107 0 -0.0812968)
(0.000229777 0 -0.0795467)
(0.000197273 0 -0.0846946)
(0.000238483 0 -0.0829697)
(0.000202229 0 -0.0880308)
(0.000245728 0 -0.0863368)
(0.000205731 0 -0.091293)
(0.000251257 0 -0.0896364)
(0.000207561 0 -0.0944674)
(0.000254803 0 -0.0928552)
(0.000207496 0 -0.097539)
(0.000256089 0 -0.0959791)
(0.000205311 0 -0.100492)
(0.000254834 0 -0.0989923)
(0.000200782 0 -0.103308)
(0.000250759 0 -0.101878)
(0.000193675 0 -0.105969)
(0.000243585 0 -0.104618)
(0.000183758 0 -0.108454)
(0.000233024 0 -0.107193)
(0.000170834 0 -0.11074)
(0.000218795 0 -0.109581)
(0.000154872 0 -0.112803)
(0.000200755 0 -0.111758)
(0.000135876 0 -0.114621)
(0.000178926 0 -0.113702)
(0.000113841 0 -0.116172)
(0.000153325 0 -0.115389)
(8.88153e-05 0 -0.11743)
(0.000123953 0 -0.116797)
(6.09684e-05 0 -0.118373)
(9.09667e-05 0 -0.117901)
(3.06028e-05 0 -0.118975)
(5.46776e-05 0 -0.118677)
(-1.88194e-06 0 -0.119214)
(1.55456e-05 0 -0.119102)
(-3.59188e-05 0 -0.119068)
(-2.5838e-05 0 -0.119152)
(-7.09309e-05 0 -0.118519)
(-6.87481e-05 0 -0.118809)
(-0.000106194 0 -0.117551)
(-0.00011233 0 -0.118055)
(-0.00014092 0 -0.11615)
(-0.000155647 0 -0.116874)
(-0.000174281 0 -0.114307)
(-0.000197678 0 -0.115255)
(-0.000205432 0 -0.112017)
(-0.000237374 0 -0.113192)
(-0.000233548 0 -0.109278)
(-0.000273685 0 -0.11068)
(-0.000257853 0 -0.106093)
(-0.000305608 0 -0.107721)
(-0.00027767 0 -0.102471)
(-0.000332227 0 -0.10432)
(-0.000292454 0 -0.0984234)
(-0.000352778 0 -0.100487)
(-0.000301805 0 -0.0939643)
(-0.000366668 0 -0.0962346)
(-0.000305438 0 -0.089112)
(-0.000373436 0 -0.0915797)
(-0.000303303 0 -0.0838977)
(-0.000372837 0 -0.0865424)
(-0.000296422 0 -0.0793868)
(-0.000365638 0 -0.0816564)
(-0.000286265 0 -0.0748978)
(-0.000353751 0 -0.0771483)
(-0.000273511 0 -0.0704715)
(-0.000338305 0 -0.0726875)
(-0.000258836 0 -0.0661328)
(-0.000320072 0 -0.0683033)
(-0.000242792 0 -0.0619001)
(-0.00029983 0 -0.0640165)
(-0.000225828 0 -0.0577879)
(-0.000278216 0 -0.0598432)
(-0.000208321 0 -0.0538076)
(-0.000255753 0 -0.0557964)
(-0.000190591 0 -0.0499675)
(-0.000232881 0 -0.0518859)
(-0.000172904 0 -0.0462734)
(-0.000209972 0 -0.0481187)
(-0.000155477 0 -0.0427291)
(-0.000187328 0 -0.0444995)
(-0.000138485 0 -0.0393367)
(-0.000165195 0 -0.0410313)
(-0.000122064 0 -0.0360966)
(-0.000143766 0 -0.0377151)
(-0.00010632 0 -0.0330083)
(-0.000123193 0 -0.034551)
(-9.13346e-05 0 -0.0300706)
(-0.000103588 0 -0.0315381)
(-7.71667e-05 0 -0.0272813)
(-8.50386e-05 0 -0.0286747)
(-6.38584e-05 0 -0.024638)
(-6.76025e-05 0 -0.0259583)
(-5.14364e-05 0 -0.0221375)
(-5.13191e-05 0 -0.0233863)
(-3.99148e-05 0 -0.0197766)
(-3.62089e-05 0 -0.0209554)
(-2.92948e-05 0 -0.0175515)
(-2.2276e-05 0 -0.0186622)
(-1.9566e-05 0 -0.0154584)
(-9.51068e-06 0 -0.0165028)
(-1.07078e-05 0 -0.013493)
(2.11285e-06 0 -0.0144732)
(-2.70452e-06 0 -0.011651)
(1.26284e-05 0 -0.0125693)
(4.42367e-06 0 -0.00992681)
(2.20502e-05 0 -0.0107861)
(1.05953e-05 0 -0.00831318)
(3.03253e-05 0 -0.00911756)
(1.57178e-05 0 -0.00680058)
(3.73418e-05 0 -0.00755514)
(1.99437e-05 0 -0.00537958)
(4.31001e-05 0 -0.00608872)
(2.40388e-05 0 -0.00404587)
(4.80958e-05 0 -0.00471091)
(2.9204e-05 0 -0.00280464)
(5.29721e-05 0 -0.00342235)
(3.62582e-05 0 -0.00164737)
(5.88667e-05 0 -0.00223216)
(7.04449e-05 0 -0.00110935)
(-6.01679e-05 0 -0.000936957)
(-8.46548e-05 0 -0.000577057)
(-5.86244e-05 0 -0.00163238)
(-8.18726e-05 0 -0.00131841)
(-5.64968e-05 0 -0.00229011)
(-8.02033e-05 0 -0.00196747)
(-5.38336e-05 0 -0.00297913)
(-7.75985e-05 0 -0.00263545)
(-5.10279e-05 0 -0.00371774)
(-7.45176e-05 0 -0.00334686)
(-4.82792e-05 0 -0.00451209)
(-7.15318e-05 0 -0.00411351)
(-4.55253e-05 0 -0.00536199)
(-6.85972e-05 0 -0.00493628)
(-4.26223e-05 0 -0.00626705)
(-6.55265e-05 0 -0.00581424)
(-3.94625e-05 0 -0.00722824)
(-6.21749e-05 0 -0.0067476)
(-3.59916e-05 0 -0.00824756)
(-5.8463e-05 0 -0.00773794)
(-3.21862e-05 0 -0.00932754)
(-5.43549e-05 0 -0.00878763)
(-2.80332e-05 0 -0.0104709)
(-4.98341e-05 0 -0.0098993)
(-2.35204e-05 0 -0.0116802)
(-4.48878e-05 0 -0.0110757)
(-1.8634e-05 0 -0.0129584)
(-3.95015e-05 0 -0.0123194)
(-1.33585e-05 0 -0.0143083)
(-3.36587e-05 0 -0.0136334)
(-7.67679e-06 0 -0.0157329)
(-2.73403e-05 0 -0.0150205)
(-1.57041e-06 0 -0.0172354)
(-2.0526e-05 0 -0.0164838)
(4.98054e-06 0 -0.0188191)
(-1.31933e-05 0 -0.0180267)
(1.19979e-05 0 -0.0204879)
(-5.31791e-06 0 -0.0196526)
(1.95053e-05 0 -0.0222455)
(3.12591e-06 0 -0.0213654)
(2.75277e-05 0 -0.0240964)
(1.21664e-05 0 -0.0231692)
(3.60921e-05 0 -0.0260449)
(2.18337e-05 0 -0.0250684)
(4.52271e-05 0 -0.0280961)
(3.21594e-05 0 -0.0270677)
(5.49622e-05 0 -0.0302552)
(4.31767e-05 0 -0.0291721)
(6.53281e-05 0 -0.0325277)
(5.49198e-05 0 -0.0313871)
(7.63551e-05 0 -0.0349197)
(6.74232e-05 0 -0.0337184)
(8.8071e-05 0 -0.0374376)
(8.07207e-05 0 -0.0361724)
(0.000100493 0 -0.0400885)
(9.48353e-05 0 -0.0387557)
(0.0001136 0 -0.0428791)
(0.000109757 0 -0.0414754)
(0.000127288 0 -0.0458146)
(0.000125496 0 -0.0443381)
(0.000144005 0 -0.0494088)
(0.000143302 0 -0.0476037)
(0.000160526 0 -0.0529986)
(0.000162756 0 -0.0511946)
(0.000176953 0 -0.0565834)
(0.000182113 0 -0.0547805)
(0.000193204 0 -0.0601627)
(0.000201297 0 -0.0583615)
(0.000209133 0 -0.0637344)
(0.000220186 0 -0.0619363)
(0.000224576 0 -0.0672943)
(0.000238604 0 -0.0655018)
(0.000239345 0 -0.0708371)
(0.000256348 0 -0.069053)
(0.000253235 0 -0.0743559)
(0.000273191 0 -0.0725838)
(0.000266016 0 -0.0778431)
(0.000288882 0 -0.0760871)
(0.000277438 0 -0.0812897)
(0.000303146 0 -0.0795543)
(0.000287228 0 -0.0846857)
(0.00031568 0 -0.0829762)
(0.000295089 0 -0.0880199)
(0.000326157 0 -0.086342)
(0.000300708 0 -0.0912799)
(0.000334224 0 -0.0896401)
(0.000303756 0 -0.094452)
(0.000339513 0 -0.0928573)
(0.000303898 0 -0.0975211)
(0.000341644 0 -0.0959792)
(0.000300798 0 -0.100471)
(0.000340231 0 -0.0989902)
(0.00029412 0 -0.103284)
(0.000334895 0 -0.101874)
(0.000283531 0 -0.105942)
(0.000325265 0 -0.104611)
(0.000268692 0 -0.108424)
(0.000310942 0 -0.107183)
(0.000249344 0 -0.110706)
(0.000291589 0 -0.109568)
(0.000225451 0 -0.112766)
(0.000267035 0 -0.111742)
(0.000197016 0 -0.114581)
(0.000237276 0 -0.113683)
(0.000164051 0 -0.116129)
(0.000202366 0 -0.115367)
(0.000126674 0 -0.117384)
(0.000162357 0 -0.116772)
(8.51709e-05 0 -0.118324)
(0.000117484 0 -0.117874)
(4.0021e-05 0 -0.118924)
(6.82012e-05 0 -0.118647)
(-8.14482e-06 0 -0.119161)
(1.51614e-05 0 -0.11907)
(-5.85106e-05 0 -0.119014)
(-4.07936e-05 0 -0.119119)
(-0.000110137 0 -0.118465)
(-9.86509e-05 0 -0.118775)
(-0.000161941 0 -0.117497)
(-0.000157235 0 -0.11802)
(-0.000212738 0 -0.116097)
(-0.00021524 0 -0.11684)
(-0.000261283 0 -0.114256)
(-0.000271264 0 -0.115223)
(-0.000306313 0 -0.111968)
(-0.000323864 0 -0.113162)
(-0.000346596 0 -0.109232)
(-0.000371605 0 -0.110653)
(-0.00038098 0 -0.106052)
(-0.000413116 0 -0.107698)
(-0.000408454 0 -0.102435)
(-0.000447151 0 -0.104301)
(-0.000428201 0 -0.0983924)
(-0.00047266 0 -0.100473)
(-0.000439604 0 -0.093939)
(-0.000488837 0 -0.096227)
(-0.000442202 0 -0.0890928)
(-0.000495024 0 -0.091578)
(-0.000435531 0 -0.0838844)
(-0.000490707 0 -0.0865468)
(-0.000423379 0 -0.0793785)
(-0.000477714 0 -0.0816663)
(-0.000406117 0 -0.0748941)
(-0.000459001 0 -0.077163)
(-0.000384975 0 -0.0704718)
(-0.000435418 0 -0.0727064)
(-0.000361014 0 -0.0661367)
(-0.000408058 0 -0.0683258)
(-0.000335079 0 -0.0619072)
(-0.000378039 0 -0.064042)
(-0.000307866 0 -0.0577978)
(-0.000346256 0 -0.0598714)
(-0.000279959 0 -0.0538199)
(-0.000313439 0 -0.0558268)
(-0.000251847 0 -0.0499818)
(-0.000280205 0 -0.051918)
(-0.000223936 0 -0.0462894)
(-0.000247069 0 -0.0481521)
(-0.000196556 0 -0.0427465)
(-0.000214452 0 -0.044534)
(-0.000169969 0 -0.0393551)
(-0.000182691 0 -0.0410663)
(-0.00014438 0 -0.0361158)
(-0.000152052 0 -0.0377505)
(-0.000119947 0 -0.0330282)
(-0.00012274 0 -0.0345865)
(-9.67857e-05 0 -0.0300908)
(-9.49066e-05 0 -0.0315734)
(-7.49811e-05 0 -0.0273016)
(-6.86632e-05 0 -0.0287094)
(-5.4588e-05 0 -0.0246582)
(-4.40841e-05 0 -0.0259924)
(-3.56387e-05 0 -0.0221575)
(-2.12147e-05 0 -0.0234195)
(-1.81436e-05 0 -0.0197961)
(-7.41956e-08 0 -0.0209876)
(-2.09429e-06 0 -0.0175704)
(1.93423e-05 0 -0.0186931)
(1.25364e-05 0 -0.0154765)
(3.70575e-05 0 -0.0165323)
(2.57855e-05 0 -0.0135103)
(5.31143e-05 0 -0.0145013)
(3.76841e-05 0 -0.0116673)
(6.75641e-05 0 -0.0125957)
(4.82196e-05 0 -0.00994169)
(8.04322e-05 0 -0.0108106)
(5.73131e-05 0 -0.00832621)
(9.16767e-05 0 -0.00913977)
(6.49079e-05 0 -0.00681164)
(0.000101202 0 -0.0075746)
(7.12558e-05 0 -0.00538992)
(0.000109068 0 -0.00610579)
(7.72654e-05 0 -0.00405875)
(0.000115846 0 -0.00472787)
(8.42311e-05 0 -0.00282284)
(0.000122254 0 -0.00344299)
(9.2186e-05 0 -0.00166819)
(0.00012927 0 -0.0022569)
(0.000139659 0 -0.0011302)
(-0.00010623 0 -0.000940871)
(-0.000139168 0 -0.000580453)
(-0.000104154 0 -0.00163812)
(-0.000136522 0 -0.00132486)
(-0.000101415 0 -0.00229698)
(-0.000133873 0 -0.00197558)
(-9.8302e-05 0 -0.0029863)
(-0.000130603 0 -0.00264422)
(-9.51177e-05 0 -0.00372448)
(-0.000127074 0 -0.0033554)
(-9.19537e-05 0 -0.00451829)
(-0.000123656 0 -0.00412159)
(-8.86985e-05 0 -0.00536792)
(-0.000120238 0 -0.0049442)
(-8.51848e-05 0 -0.00627299)
(-0.000116606 0 -0.00582239)
(-8.12896e-05 0 -0.00723431)
(-0.000112594 0 -0.00675622)
(-7.69491e-05 0 -0.00825379)
(-0.000108106 0 -0.00774711)
(-7.21346e-05 0 -0.00933389)
(-0.000103095 0 -0.00879733)
(-6.68302e-05 0 -0.0104773)
(-9.7538e-05 0 -0.0099095)
(-6.10207e-05 0 -0.0116867)
(-9.14192e-05 0 -0.0110863)
(-5.46888e-05 0 -0.0129648)
(-8.47196e-05 0 -0.0123305)
(-4.78145e-05 0 -0.0143146)
(-7.74178e-05 0 -0.0136449)
(-4.03756e-05 0 -0.015739)
(-6.94897e-05 0 -0.0150324)
(-3.23478e-05 0 -0.0172413)
(-6.09091e-05 0 -0.016496)
(-2.37046e-05 0 -0.0188248)
(-5.16475e-05 0 -0.0180392)
(-1.44173e-05 0 -0.0204932)
(-4.16739e-05 0 -0.0196655)
(-4.45538e-06 0 -0.0222505)
(-3.09555e-05 0 -0.0213786)
(6.2142e-06 0 -0.0241009)
(-1.94567e-05 0 -0.0231826)
(1.76263e-05 0 -0.026049)
(-7.13993e-06 0 -0.0250821)
(2.98176e-05 0 -0.0280997)
(6.03439e-06 0 -0.0270816)
(4.28261e-05 0 -0.0302581)
(2.01073e-05 0 -0.0291862)
(5.66902e-05 0 -0.03253)
(3.51206e-05 0 -0.0314014)
(7.1447e-05 0 -0.0349212)
(5.11158e-05 0 -0.033733)
(8.71274e-05 0 -0.0374383)
(6.81331e-05 0 -0.0361871)
(0.000103745 0 -0.0400883)
(8.62015e-05 0 -0.0387706)
(0.000121276 0 -0.0428778)
(0.00010531 0 -0.0414904)
(0.000139637 0 -0.0458119)
(0.000125443 0 -0.0443531)
(0.000162113 0 -0.0494045)
(0.000148286 0 -0.0476187)
(0.000184388 0 -0.0529928)
(0.000173304 0 -0.0512095)
(0.000206498 0 -0.0565762)
(0.000198169 0 -0.0547953)
(0.000228338 0 -0.0601539)
(0.000222808 0 -0.0583761)
(0.000249736 0 -0.0637238)
(0.000247062 0 -0.0619506)
(0.000270478 0 -0.0672818)
(0.000270712 0 -0.0655156)
(0.000290322 0 -0.0708225)
(0.000293504 0 -0.0690662)
(0.000308996 0 -0.0743391)
(0.000315157 0 -0.0725963)
(0.000326202 0 -0.0778238)
(0.000335356 0 -0.0760985)
(0.000341612 0 -0.0812677)
(0.000353756 0 -0.0795646)
(0.00035487 0 -0.0846608)
(0.000369982 0 -0.082985)
(0.000365591 0 -0.0879919)
(0.000383625 0 -0.0863492)
(0.000373368 0 -0.0912485)
(0.000394251 0 -0.0896453)
(0.00037778 0 -0.0944169)
(0.000401405 0 -0.0928602)
(0.000378395 0 -0.0974821)
(0.00040462 0 -0.0959796)
(0.000374786 0 -0.100428)
(0.000403424 0 -0.0989878)
(0.000366524 0 -0.103237)
(0.000397357 0 -0.101868)
(0.000353196 0 -0.10589)
(0.000385981 0 -0.104602)
(0.000334398 0 -0.108367)
(0.000368797 0 -0.107171)
(0.00030981 0 -0.110645)
(0.000345454 0 -0.109552)
(0.0002794 0 -0.1127)
(0.00031576 0 -0.111722)
(0.000243174 0 -0.114511)
(0.000279668 0 -0.113658)
(0.000201196 0 -0.116054)
(0.000237303 0 -0.115339)
(0.000153636 0 -0.117306)
(0.000188783 0 -0.11674)
(0.000100914 0 -0.118242)
(0.000134409 0 -0.117838)
(4.36598e-05 0 -0.118838)
(7.47772e-05 0 -0.118609)
(-1.72805e-05 0 -0.119073)
(1.07209e-05 0 -0.119029)
(-8.08395e-05 0 -0.118925)
(-5.6702e-05 0 -0.119076)
(-0.000145789 0 -0.118376)
(-0.00012622 0 -0.118731)
(-0.000210723 0 -0.117409)
(-0.000196376 0 -0.117977)
(-0.00027411 0 -0.116011)
(-0.000265548 0 -0.116798)
(-0.000334346 0 -0.114173)
(-0.000332007 0 -0.115183)
(-0.000389809 0 -0.11189)
(-0.000393976 0 -0.113125)
(-0.00043892 0 -0.10916)
(-0.000449692 0 -0.110621)
(-0.000480208 0 -0.105987)
(-0.000497478 0 -0.10767)
(-0.000512384 0 -0.102377)
(-0.000535813 0 -0.10428)
(-0.000534396 0 -0.0983435)
(-0.000563413 0 -0.100459)
(-0.000545428 0 -0.0938993)
(-0.000579294 0 -0.0962196)
(-0.000544879 0 -0.0890627)
(-0.000582689 0 -0.0915783)
(-0.000532336 0 -0.0838646)
(-0.000572885 0 -0.0865551)
(-0.000513539 0 -0.0793672)
(-0.000552734 0 -0.0816816)
(-0.00048837 0 -0.0748904)
(-0.000526169 0 -0.0771845)
(-0.00045832 0 -0.070475)
(-0.000493722 0 -0.0727333)
(-0.000424743 0 -0.0661459)
(-0.000456769 0 -0.0683574)
(-0.000388753 0 -0.0619217)
(-0.000416703 0 -0.0640776)
(-0.000351266 0 -0.0578169)
(-0.000374633 0 -0.0599102)
(-0.000313048 0 -0.053843)
(-0.000331472 0 -0.0558683)
(-0.000274737 0 -0.0500083)
(-0.000287991 0 -0.0519617)
(-0.00023686 0 -0.0463188)
(-0.00024483 0 -0.0481975)
(-0.000199844 0 -0.0427782)
(-0.000202511 0 -0.0445805)
(-0.000164027 0 -0.0393886)
(-0.000161447 0 -0.0411136)
(-0.00012967 0 -0.0361506)
(-0.000121966 0 -0.037798)
(-9.69727e-05 0 -0.0330639)
(-8.43158e-05 0 -0.0346339)
(-6.60793e-05 0 -0.030127)
(-4.86786e-05 0 -0.0316204)
(-3.70902e-05 0 -0.027338)
(-1.51838e-05 0 -0.0287557)
(-1.00685e-05 0 -0.0246943)
(1.60852e-05 0 -0.0260376)
(1.49555e-05 0 -0.0221931)
(4.50818e-05 0 -0.0234634)
(3.7977e-05 0 -0.0198309)
(7.17923e-05 0 -0.0210299)
(5.90168e-05 0 -0.0176042)
(9.62324e-05 0 -0.0187336)
(7.81165e-05 0 -0.015509)
(0.000118441 0 -0.0165709)
(9.53313e-05 0 -0.0135413)
(0.000138478 0 -0.0145378)
(0.000110706 0 -0.0116965)
(0.000156411 0 -0.0126298)
(0.000124241 0 -0.00996869)
(0.000172278 0 -0.0108422)
(0.000135878 0 -0.00835054)
(0.000186054 0 -0.00916822)
(0.000145611 0 -0.00683332)
(0.000197671 0 -0.00759957)
(0.000153748 0 -0.00541038)
(0.000207229 0 -0.00612769)
(0.000161141 0 -0.00408089)
(0.00021528 0 -0.00474875)
(0.000168779 0 -0.00284814)
(0.000222338 0 -0.00346562)
(0.000176396 0 -0.00169152)
(0.000229173 0 -0.00228059)
(0.000237231 0 -0.00114708)
(-0.000169457 0 -0.000946603)
(-0.000210717 0 -0.000584851)
(-0.000166669 0 -0.00164666)
(-0.000207865 0 -0.00133352)
(-0.000163164 0 -0.00230662)
(-0.000204383 0 -0.00198595)
(-0.000159421 0 -0.00299598)
(-0.000200488 0 -0.00265477)
(-0.000155712 0 -0.00373374)
(-0.000196475 0 -0.00336535)
(-0.000152046 0 -0.00452726)
(-0.000192596 0 -0.00413096)
(-0.000148254 0 -0.00537698)
(-0.000188697 0 -0.00495344)
(-0.000144134 0 -0.00628247)
(-0.000184534 0 -0.00583196)
(-0.000139541 0 -0.00724438)
(-0.000179914 0 -0.00676639)
(-0.000134394 0 -0.00826446)
(-0.000174722 0 -0.00775798)
(-0.000128654 0 -0.00934514)
(-0.000168898 0 -0.0088089)
(-0.000122296 0 -0.0104891)
(-0.000162412 0 -0.00992172)
(-0.000115301 0 -0.0116989)
(-0.00015524 0 -0.0110991)
(-0.000107646 0 -0.0129775)
(-0.000147358 0 -0.0123439)
(-9.93054e-05 0 -0.0143277)
(-0.000138739 0 -0.0136588)
(-9.02516e-05 0 -0.0157524)
(-0.000129354 0 -0.0150468)
(-8.04542e-05 0 -0.017255)
(-0.00011917 0 -0.016511)
(-6.98803e-05 0 -0.0188388)
(-0.000108152 0 -0.0180546)
(-5.84945e-05 0 -0.0205074)
(-9.62629e-05 0 -0.0196812)
(-4.6259e-05 0 -0.0222649)
(-8.34636e-05 0 -0.0213947)
(-3.31336e-05 0 -0.0241155)
(-6.97114e-05 0 -0.0231992)
(-1.90759e-05 0 -0.0260637)
(-5.49617e-05 0 -0.0250989)
(-4.04168e-06 0 -0.0281144)
(-3.9168e-05 0 -0.0270987)
(1.20141e-05 0 -0.0302729)
(-2.22822e-05 0 -0.0292037)
(2.91369e-05 0 -0.0325448)
(-4.25535e-06 0 -0.0314192)
(4.73703e-05 0 -0.034936)
(1.49602e-05 0 -0.033751)
(6.67508e-05 0 -0.0374531)
(3.54103e-05 0 -0.0362053)
(8.72959e-05 0 -0.0401029)
(5.71313e-05 0 -0.038789)
(0.000108992 0 -0.0428921)
(8.01219e-05 0 -0.0415089)
(0.000131778 0 -0.0458257)
(0.000104357 0 -0.0443717)
(0.000159507 0 -0.0494177)
(0.000131843 0 -0.0476371)
(0.000187106 0 -0.0530056)
(0.000161947 0 -0.0512279)
(0.000214514 0 -0.0565884)
(0.000191898 0 -0.0548135)
(0.000241584 0 -0.0601655)
(0.000221596 0 -0.0583941)
(0.000268108 0 -0.0637347)
(0.000250836 0 -0.0619683)
(0.000293829 0 -0.0672918)
(0.000279358 0 -0.0655328)
(0.000318454 0 -0.0708314)
(0.000306868 0 -0.0690827)
(0.000341656 0 -0.0743466)
(0.000333035 0 -0.0726118)
(0.000363077 0 -0.0778297)
(0.000357491 0 -0.0761128)
(0.000382323 0 -0.0812718)
(0.000379836 0 -0.0795774)
(0.000398966 0 -0.0846628)
(0.000399629 0 -0.0829961)
(0.000412548 0 -0.0879915)
(0.000416398 0 -0.0863582)
(0.000422584 0 -0.0912454)
(0.00042964 0 -0.089652)
(0.000428575 0 -0.0944108)
(0.000438832 0 -0.0928642)
(0.000430013 0 -0.0974727)
(0.000443436 0 -0.0959805)
(0.000426396 0 -0.100415)
(0.000442915 0 -0.0989853)
(0.000417226 0 -0.10322)
(0.000436743 0 -0.101862)
(0.000402026 0 -0.105869)
(0.000424437 0 -0.104592)
(0.00038035 0 -0.108342)
(0.000405426 0 -0.107156)
(0.000351835 0 -0.110615)
(0.000379356 0 -0.109533)
(0.000316461 0 -0.112665)
(0.000346037 0 -0.111699)
(0.000274257 0 -0.114471)
(0.000305379 0 -0.11363)
(0.00022533 0 -0.11601)
(0.000257593 0 -0.115306)
(0.000169927 0 -0.117258)
(0.000202869 0 -0.116703)
(0.000108585 0 -0.11819)
(0.000141569 0 -0.117798)
(4.20736e-05 0 -0.118784)
(7.443e-05 0 -0.118565)
(-2.85652e-05 0 -0.119016)
(2.43862e-06 0 -0.118982)
(-0.000102049 0 -0.118867)
(-7.31554e-05 0 -0.119027)
(-0.000176895 0 -0.118317)
(-0.000150858 0 -0.118681)
(-0.000251421 0 -0.11735)
(-0.000228971 0 -0.117927)
(-0.0003238 0 -0.115955)
(-0.000305609 0 -0.116749)
(-0.000392128 0 -0.11412)
(-0.000378771 0 -0.115137)
(-0.000454482 0 -0.111841)
(-0.000446405 0 -0.113083)
(-0.000508995 0 -0.109117)
(-0.000506484 0 -0.110584)
(-0.000553935 0 -0.10595)
(-0.00055708 0 -0.10764)
(-0.000587784 0 -0.102348)
(-0.000596455 0 -0.104257)
(-0.000609309 0 -0.0983229)
(-0.000623141 0 -0.100444)
(-0.000617556 0 -0.0938875)
(-0.00063602 0 -0.0962141)
(-0.000611872 0 -0.0890602)
(-0.000634285 0 -0.0915821)
(-0.000592015 0 -0.0838719)
(-0.000617154 0 -0.0865683)
(-0.000565285 0 -0.0793824)
(-0.000588403 0 -0.0817033)
(-0.000531281 0 -0.0749127)
(-0.000552855 0 -0.0772135)
(-0.000491691 0 -0.0705034)
(-0.000510749 0 -0.0727688)
(-0.000448096 0 -0.0661796)
(-0.000463675 0 -0.0683984)
(-0.000401829 0 -0.06196)
(-0.000413233 0 -0.0641233)
(-0.000353991 0 -0.057859)
(-0.000360712 0 -0.0599598)
(-0.000305502 0 -0.0538882)
(-0.000307182 0 -0.0559211)
(-0.000257129 0 -0.050056)
(-0.000253542 0 -0.0520169)
(-0.000209502 0 -0.0463683)
(-0.000200536 0 -0.0482545)
(-0.000163129 0 -0.042829)
(-0.000148768 0 -0.0446388)
(-0.000118411 0 -0.0394402)
(-9.8716e-05 0 -0.0411725)
(-7.56559e-05 0 -0.0362025)
(-5.07545e-05 0 -0.0378571)
(-3.50949e-05 0 -0.0331156)
(-5.16403e-06 0 -0.0346927)
(3.10668e-06 0 -0.0301781)
(3.78515e-05 0 -0.0316784)
(3.8838e-05 0 -0.0273882)
(7.81523e-05 0 -0.0288126)
(7.20336e-05 0 -0.0247433)
(0.000115652 0 -0.026093)
(0.000102666 0 -0.0222405)
(0.000150311 0 -0.023517)
(0.000130741 0 -0.0198765)
(0.000182125 0 -0.0210815)
(0.000156295 0 -0.0176477)
(0.000211125 0 -0.0187829)
(0.000179386 0 -0.0155502)
(0.00023737 0 -0.0166176)
(0.000200086 0 -0.01358)
(0.000260941 0 -0.0145816)
(0.000218455 0 -0.0117323)
(0.000281925 0 -0.0126707)
(0.000234508 0 -0.0100013)
(0.000300378 0 -0.0108796)
(0.000248213 0 -0.0083795)
(0.000316299 0 -0.00920176)
(0.000259585 0 -0.00685859)
(0.000329656 0 -0.00762876)
(0.000268896 0 -0.00543301)
(0.000340555 0 -0.00615277)
(0.000276782 0 -0.00410279)
(0.000349445 0 -0.00477103)
(0.000283852 0 -0.00286978)
(0.000356537 0 -0.00348659)
(0.000289868 0 -0.0017091)
(0.000362352 0 -0.00229931)
(0.000368301 0 -0.00115889)
(-0.000249058 0 -0.000953872)
(-0.00029826 0 -0.000589948)
(-0.000245836 0 -0.00165721)
(-0.000295451 0 -0.00134353)
(-0.00024183 0 -0.0023181)
(-0.000291537 0 -0.0019978)
(-0.000237612 0 -0.00300713)
(-0.000287289 0 -0.00266665)
(-0.000233465 0 -0.00374422)
(-0.000282946 0 -0.00337648)
(-0.000229359 0 -0.00453739)
(-0.000278714 0 -0.00414145)
(-0.000225094 0 -0.00538727)
(-0.000274426 0 -0.00496382)
(-0.000220442 0 -0.00629334)
(-0.000269825 0 -0.00584275)
(-0.000215238 0 -0.00725602)
(-0.000264699 0 -0.00677791)
(-0.000209385 0 -0.00827694)
(-0.000258916 0 -0.00777034)
(-0.000202832 0 -0.00935844)
(-0.000252405 0 -0.0088221)
(-0.000195548 0 -0.0105031)
(-0.000245125 0 -0.00993573)
(-0.000187507 0 -0.0117137)
(-0.000237046 0 -0.0111139)
(-0.000178679 0 -0.012993)
(-0.000228139 0 -0.0123594)
(-0.000169035 0 -0.0143439)
(-0.000218371 0 -0.0136749)
(-0.000158539 0 -0.0157693)
(-0.000207706 0 -0.0150635)
(-0.000147155 0 -0.0172724)
(-0.000196107 0 -0.0165283)
(-0.000134844 0 -0.0188568)
(-0.000183531 0 -0.0180724)
(-0.000121565 0 -0.020526)
(-0.000169936 0 -0.0196996)
(-0.000107273 0 -0.022284)
(-0.000155277 0 -0.0214136)
(-9.19213e-05 0 -0.0241351)
(-0.000139505 0 -0.0232185)
(-7.54614e-05 0 -0.0260839)
(-0.000122568 0 -0.0251186)
(-5.78424e-05 0 -0.0281351)
(-0.000104415 0 -0.0271189)
(-3.90123e-05 0 -0.0302941)
(-8.49916e-05 0 -0.0292242)
(-1.89195e-05 0 -0.0325664)
(-6.4242e-05 0 -0.03144)
(2.4862e-06 0 -0.0349581)
(-4.21132e-05 0 -0.0337721)
(2.52464e-05 0 -0.0374756)
(-1.85545e-05 0 -0.0362268)
(4.93854e-05 0 -0.0401257)
(6.47471e-06 0 -0.0388106)
(7.48904e-05 0 -0.0429152)
(3.29805e-05 0 -0.0415307)
(0.000101693 0 -0.0458491)
(6.09388e-05 0 -0.0443935)
(0.000134281 0 -0.0494412)
(9.26601e-05 0 -0.0476588)
(0.000166747 0 -0.0530292)
(0.000127408 0 -0.0512495)
(0.00019901 0 -0.0566121)
(0.000162014 0 -0.054835)
(0.000230892 0 -0.0601893)
(0.000196343 0 -0.0584154)
(0.000262146 0 -0.0637582)
(0.000230158 0 -0.0619891)
(0.000292476 0 -0.067315)
(0.000263168 0 -0.065553)
(0.000321547 0 -0.0708539)
(0.000295043 0 -0.0691021)
(0.00034899 0 -0.0743683)
(0.000325414 0 -0.0726301)
(0.000374393 0 -0.0778503)
(0.000353871 0 -0.0761298)
(0.00039731 0 -0.081291)