/*--------------------------------*- C++ -*----------------------------------*\
  =========                 |
  \\      /  F ield         | OpenFOAM: The Open Source CFD Toolbox
   \\    /   O peration     | Website:  https://openfoam.org
    \\  /    A nd           | Version:  9
     \\/     M anipulation  |
\*---------------------------------------------------------------------------*/
FoamFile
{
    format      ascii;
    class       volScalarField;
    location    "0.18";
    object      alpha.water;
}
// * * * * * * * * * * * * * * * * * * * * * * * * * * * * * * * * * * * * * //

dimensions      [0 0 0 0 0 0 0];

internalField   nonuniform List<scalar> 
20000
(
2.10176e-319
2.02172e-319
1.94395e-319
1.86856e-319
1.79563e-319
1.72508e-319
1.6569e-319
1.59099e-319
1.52726e-319
1.46589e-319
1.4066e-319
1.34939e-319
1.29435e-319
1.24129e-319
1.1902e-319
1.14109e-319
1.09376e-319
1.04821e-319
1.00453e-319
9.62539e-320
9.22124e-320
8.83389e-320
8.46038e-320
8.09872e-320
7.74695e-320
7.40901e-320
7.12245e-320
6.96731e-320
6.9268e-320
6.55625e-320
5.08295e-320
4.85765e-320
4.72327e-320
4.77465e-320
5.86159e-320
5.81318e-320
4.76872e-320
4.71635e-320
4.78848e-320
4.82702e-320
4.83987e-320
4.83493e-320
4.79837e-320
4.71635e-320
4.76378e-320
5.92978e-320
5.83788e-320
4.75884e-320
4.67979e-320
4.72524e-320
4.73117e-320
4.72524e-320
4.93078e-320
5.62247e-320
5.19757e-320
4.80429e-320
4.75291e-320
4.77169e-320
4.78552e-320
4.79046e-320
4.78848e-320
4.7786e-320
4.75686e-320
4.74303e-320
4.95251e-320
5.61851e-320
5.14224e-320
4.80232e-320
4.76872e-320
4.79244e-320
5.8359e-320
6.12641e-320
6.42681e-320
6.74202e-320
7.08293e-320
7.46632e-320
7.87936e-320
8.26868e-320
8.60465e-320
8.93666e-320
9.3082e-320
9.72124e-320
1.01639e-319
1.06313e-319
1.11204e-319
1.16323e-319
1.21659e-319
1.27212e-319
1.33002e-319
1.3901e-319
1.45216e-319
1.51619e-319
1.5822e-319
1.64998e-319
1.71974e-319
1.79168e-319
1.86559e-319
1.94178e-319
2.02033e-319
2.10116e-319
2.10176e-319
2.02162e-319
1.94385e-319
1.86856e-319
1.79563e-319
1.72508e-319
1.6569e-319
1.59089e-319
1.52726e-319
1.46579e-319
1.40651e-319
1.34939e-319
1.29425e-319
1.24129e-319
1.19011e-319
1.1409e-319
1.09366e-319
1.04821e-319
1.00444e-319
9.6244e-320
9.22025e-320
8.83192e-320
8.4584e-320
8.09675e-320
7.743e-320
7.40703e-320
7.12047e-320
6.95941e-320
6.89123e-320
6.54341e-320
5.09678e-320
4.86161e-320
4.72129e-320
4.79145e-320
5.78057e-320
5.76871e-320
4.81615e-320
4.73315e-320
4.79738e-320
4.83196e-320
4.84184e-320
4.83591e-320
4.79738e-320
4.71536e-320
4.78256e-320
5.81812e-320
5.80033e-320
4.80726e-320
4.69461e-320
4.73117e-320
4.73414e-320
4.72821e-320
4.93967e-320
5.58294e-320
5.21931e-320
4.81615e-320
4.75291e-320
4.77267e-320
4.78651e-320
4.79145e-320
4.78848e-320
4.7786e-320
4.75489e-320
4.74303e-320
4.95943e-320
5.57701e-320
5.16397e-320
4.81319e-320
4.76872e-320
4.79441e-320
5.83788e-320
6.12839e-320
6.42878e-320
6.74498e-320
7.08688e-320
7.47027e-320
7.88331e-320
8.27066e-320
8.60662e-320
8.93666e-320
9.30622e-320
9.71926e-320
1.01639e-319
1.06323e-319
1.11224e-319
1.16343e-319
1.21698e-319
1.27261e-319
1.33052e-319
1.3905e-319
1.45255e-319
1.51658e-319
1.58249e-319
1.65038e-319
1.72014e-319
1.79188e-319
1.86589e-319
1.94207e-319
2.02063e-319
2.10156e-319
2.10176e-319
2.02162e-319
1.94385e-319
1.86856e-319
1.79563e-319
1.72508e-319
1.6569e-319
1.59089e-319
1.52726e-319
1.46579e-319
1.40651e-319
1.34939e-319
1.29425e-319
1.24119e-319
1.19011e-319
1.1409e-319
1.09356e-319
1.04801e-319
1.00434e-319
9.62242e-320
9.21926e-320
8.83093e-320
8.45643e-320
8.09477e-320
7.74398e-320
7.41e-320
7.12739e-320
6.95644e-320
6.85368e-320
6.52364e-320
5.11259e-320
4.87149e-320
4.72722e-320
4.81615e-320
5.69262e-320
5.69954e-320
4.85568e-320
4.74896e-320
4.80627e-320
4.83888e-320
4.84678e-320
4.83987e-320
4.80034e-320
4.72327e-320
4.8122e-320
5.70942e-320
5.72919e-320
4.84876e-320
4.70845e-320
4.73809e-320
4.7371e-320
4.73315e-320
4.95054e-320
5.53354e-320
5.23512e-320
4.83196e-320
4.75489e-320
4.77267e-320
4.7875e-320
4.79244e-320
4.79046e-320
4.7786e-320
4.75291e-320
4.74698e-320
4.96832e-320
5.52563e-320
5.18176e-320
4.82603e-320
4.7707e-320
4.79441e-320
5.84084e-320
6.13037e-320
6.43076e-320
6.74696e-320
7.08984e-320
7.47521e-320
7.88924e-320
8.2756e-320
8.60959e-320
8.93864e-320
9.30622e-320
9.71926e-320
1.01639e-319
1.06333e-319
1.11244e-319
1.16372e-319
1.21718e-319
1.27291e-319
1.33091e-319
1.39089e-319
1.45305e-319
1.51698e-319
1.58299e-319
1.65077e-319
1.72053e-319
1.79237e-319
1.86638e-319
1.94257e-319
2.02112e-319
2.10205e-319
2.10176e-319
2.02162e-319
1.94385e-319
1.86856e-319
1.79563e-319
1.72508e-319
1.6569e-319
1.59089e-319
1.52726e-319
1.46579e-319
1.40651e-319
1.34939e-319
1.29425e-319
1.24109e-319
1.19011e-319
1.1409e-319
1.09347e-319
1.04801e-319
1.00434e-319
9.62242e-320
9.21926e-320
8.82994e-320
8.45643e-320
8.09675e-320
7.74695e-320
7.41691e-320
7.13826e-320
6.95546e-320
6.82008e-320
6.50092e-320
5.12643e-320
4.88532e-320
4.73908e-320
4.83987e-320
5.60666e-320
5.62444e-320
4.88631e-320
4.76279e-320
4.81418e-320
4.8458e-320
4.85172e-320
4.8458e-320
4.80825e-320
4.73908e-320
4.84283e-320
5.61555e-320
5.65013e-320
4.87939e-320
4.7203e-320
4.74303e-320
4.74007e-320
4.74105e-320
4.96042e-320
5.48413e-320
5.24698e-320
4.84777e-320
4.75686e-320
4.77267e-320
4.78848e-320
4.79441e-320
4.79046e-320
4.7786e-320
4.75291e-320
4.75094e-320
4.97623e-320
5.47326e-320
5.19559e-320
4.84086e-320
4.77169e-320
4.79441e-320
5.84183e-320
6.13234e-320
6.43273e-320
6.74894e-320
7.09281e-320
7.48015e-320
7.89418e-320
8.28054e-320
8.61453e-320
8.94061e-320
9.30622e-320
9.71728e-320
1.01639e-319
1.06333e-319
1.11254e-319
1.16392e-319
1.21748e-319
1.27331e-319
1.33131e-319
1.39139e-319
1.45354e-319
1.51747e-319
1.58338e-319
1.65117e-319
1.72093e-319
1.79287e-319
1.86678e-319
1.94306e-319
2.02152e-319
2.10255e-319
2.10176e-319
2.02172e-319
1.94395e-319
1.86866e-319
1.79573e-319
1.72518e-319
1.6569e-319
1.59099e-319
1.52726e-319
1.46579e-319
1.40651e-319
1.34939e-319
1.29425e-319
1.24119e-319
1.19011e-319
1.1409e-319
1.09356e-319
1.04801e-319
1.00434e-319
9.62242e-320
9.21926e-320
8.83192e-320
8.4584e-320
8.09872e-320
7.75189e-320
7.42679e-320
7.14913e-320
6.95447e-320
6.79241e-320
6.48115e-320
5.14026e-320
4.90113e-320
4.75489e-320
4.85963e-320
5.53156e-320
5.55527e-320
4.90706e-320
4.77366e-320
4.82109e-320
4.85172e-320
4.85864e-320
4.85172e-320
4.81813e-320
4.75588e-320
4.86951e-320
5.53946e-320
5.57899e-320
4.90311e-320
4.73018e-320
4.74599e-320
4.74105e-320
4.74797e-320
4.96635e-320
5.43769e-320
5.25291e-320
4.86161e-320
4.75785e-320
4.77267e-320
4.79046e-320
4.7954e-320
4.79244e-320
4.7786e-320
4.75291e-320
4.75686e-320
4.98117e-320
5.42484e-320
5.20251e-320
4.8537e-320
4.77267e-320
4.79441e-320
5.84381e-320
6.13432e-320
6.43372e-320
6.74894e-320
7.09478e-320
7.48411e-320
7.90011e-320
8.28647e-320
8.61848e-320
8.94259e-320
9.30622e-320
9.71629e-320
1.01619e-319
1.06333e-319
1.11264e-319
1.16402e-319
1.21777e-319
1.2736e-319
1.33161e-319
1.39178e-319
1.45394e-319
1.51797e-319
1.58378e-319
1.65166e-319
1.72142e-319
1.79326e-319
1.86717e-319
1.94346e-319
2.02201e-319
2.10294e-319
2.10195e-319
2.02191e-319
1.94415e-319
1.86875e-319
1.79583e-319
1.72528e-319
1.6571e-319
1.59109e-319
1.52745e-319
1.46599e-319
1.4067e-319
1.34949e-319
1.29445e-319
1.24129e-319
1.19011e-319
1.1409e-319
1.09366e-319
1.04821e-319
1.00434e-319
9.6244e-320
9.22025e-320
8.83291e-320
8.46038e-320
8.10268e-320
7.75782e-320
7.43569e-320
7.16e-320
6.95348e-320
6.77068e-320
6.46435e-320
5.15014e-320
4.91892e-320
4.77169e-320
4.87643e-320
5.46733e-320
5.49401e-320
4.92287e-320
4.78256e-320
4.82603e-320
4.85765e-320
4.86457e-320
4.85963e-320
4.82702e-320
4.77267e-320
4.89125e-320
5.47622e-320
5.51871e-320
4.91991e-320
4.73809e-320
4.74698e-320
4.74303e-320
4.7539e-320
4.96832e-320
5.39717e-320
5.25291e-320
4.87544e-320
4.75884e-320
4.77169e-320
4.79046e-320
4.79639e-320
4.79342e-320
4.77959e-320
4.75291e-320
4.76279e-320
4.98315e-320
5.38433e-320
5.20548e-320
4.86655e-320
4.77465e-320
4.79441e-320
5.84381e-320
6.13531e-320
6.43471e-320
6.75091e-320
7.09775e-320
7.49004e-320
7.90604e-320
8.2924e-320
8.62342e-320
8.94456e-320
9.30622e-320
9.71531e-320
1.0161e-319
1.06333e-319
1.11264e-319
1.16422e-319
1.21797e-319
1.2739e-319
1.332e-319
1.39218e-319
1.45433e-319
1.51836e-319
1.58427e-319
1.65206e-319
1.72182e-319
1.79366e-319
1.86757e-319
1.94385e-319
2.02251e-319
2.10344e-319
2.10235e-319
2.02211e-319
1.94444e-319
1.86915e-319
1.79613e-319
1.72547e-319
1.65729e-319
1.59129e-319
1.52765e-319
1.46619e-319
1.4069e-319
1.34959e-319
1.29455e-319
1.24149e-319
1.1903e-319
1.14109e-319
1.09386e-319
1.04831e-319
1.00453e-319
9.62638e-320
9.22322e-320
8.83587e-320
8.46433e-320
8.10663e-320
7.76474e-320
7.44458e-320
7.16889e-320
6.95249e-320
6.75289e-320
6.45052e-320
5.16002e-320
4.93473e-320
4.78947e-320
4.89125e-320
5.41298e-320
5.44362e-320
4.93572e-320
4.79046e-320
4.82999e-320
4.86161e-320
4.86951e-320
4.86655e-320
4.8369e-320
4.79046e-320
4.90904e-320
5.42286e-320
5.46832e-320
4.93473e-320
4.74501e-320
4.74698e-320
4.74303e-320
4.75884e-320
4.96931e-320
5.36259e-320
5.25093e-320
4.8873e-320
4.76082e-320
4.7707e-320
4.79145e-320
4.79837e-320
4.79441e-320
4.78058e-320
4.75291e-320
4.76773e-320
4.98413e-320
5.34974e-320
5.20548e-320
4.87742e-320
4.77465e-320
4.79244e-320
5.84381e-320
6.1363e-320
6.43471e-320
6.75091e-320
7.09972e-320
7.49399e-320
7.91296e-320
8.29833e-320
8.62836e-320
8.94753e-320
9.30622e-320
9.71333e-320
1.016e-319
1.06323e-319
1.11273e-319
1.16441e-319
1.21817e-319
1.2742e-319
1.3324e-319
1.39247e-319
1.45473e-319
1.51876e-319
1.58467e-319
1.65245e-319
1.72221e-319
1.79405e-319
1.86796e-319
1.94425e-319
2.0229e-319
2.10383e-319
2.10274e-319
2.02251e-319
1.94484e-319
1.86945e-319
1.79642e-319
1.72587e-319
1.65759e-319
1.59168e-319
1.52785e-319
1.46639e-319
1.4071e-319
1.34989e-319
1.29475e-319
1.24169e-319
1.1905e-319
1.14129e-319
1.09406e-319
1.04851e-319
1.00473e-319
9.62835e-320
9.22519e-320
8.83785e-320
8.4673e-320
8.11157e-320
7.77066e-320
7.45446e-320
7.1768e-320
6.95052e-320
6.73906e-320
6.43866e-320
5.16793e-320
4.95153e-320
4.80726e-320
4.90508e-320
5.36753e-320
5.40014e-320
4.94659e-320
4.79837e-320
4.83196e-320
4.86556e-320
4.87445e-320
4.87346e-320
4.84678e-320
4.80627e-320
4.92287e-320
5.37741e-320
5.42484e-320
4.94659e-320
4.75094e-320
4.74599e-320
4.74303e-320
4.7618e-320
4.96832e-320
5.33196e-320
5.24599e-320
4.89718e-320
4.76279e-320
4.76971e-320
4.79244e-320
4.80034e-320
4.79639e-320
4.78058e-320
4.7539e-320
4.77267e-320
4.98413e-320
5.3201e-320
5.2035e-320
4.88532e-320
4.77663e-320
4.79145e-320
5.84381e-320
6.1363e-320
6.4357e-320
6.7519e-320
7.1017e-320
7.49794e-320
7.91888e-320
8.30426e-320
8.6333e-320
8.95049e-320
9.30622e-320
9.71333e-320
1.0159e-319
1.06323e-319
1.11283e-319
1.16451e-319
1.21837e-319
1.27449e-319
1.33259e-319
1.39287e-319
1.45512e-319
1.51915e-319
1.58496e-319
1.65275e-319
1.72251e-319
1.79445e-319
1.86836e-319
1.94464e-319
2.0232e-319
2.10413e-319
2.10334e-319
2.0231e-319
1.94524e-319
1.86994e-319
1.79682e-319
1.72627e-319
1.65789e-319
1.59198e-319
1.52824e-319
1.46678e-319
1.4074e-319
1.35018e-319
1.29504e-319
1.24188e-319
1.1908e-319
1.14159e-319
1.09426e-319
1.0488e-319
1.00513e-319
9.63033e-320
9.22816e-320
8.8418e-320
8.47224e-320
8.11651e-320
7.77758e-320
7.46237e-320
7.18371e-320
6.95052e-320
6.7272e-320
6.42878e-320
5.17484e-320
4.96635e-320
4.82406e-320
4.91694e-320
5.32899e-320
5.36259e-320
4.95548e-320
4.80429e-320
4.83394e-320
4.86753e-320
4.8784e-320
4.8784e-320
4.85568e-320
4.82208e-320
4.9367e-320
5.33789e-320
5.38729e-320
4.95844e-320
4.75588e-320
4.74402e-320
4.74105e-320
4.76477e-320
4.96635e-320
5.30627e-320
5.23907e-320
4.90607e-320
4.76477e-320
4.76872e-320
4.79244e-320
4.80133e-320
4.79837e-320
4.78157e-320
4.75489e-320
4.77663e-320
4.98216e-320
5.29638e-320
5.19955e-320
4.89323e-320
4.77663e-320
4.79046e-320
5.84381e-320
6.1363e-320
6.4357e-320
6.7519e-320
7.10368e-320
7.50387e-320
7.92481e-320
8.31018e-320
8.63824e-320
8.95247e-320
9.30622e-320
9.71135e-320
1.0158e-319
1.06323e-319
1.11283e-319
1.16461e-319
1.21856e-319
1.27469e-319
1.33299e-319
1.39327e-319
1.45542e-319
1.51945e-319
1.58536e-319
1.65314e-319
1.72291e-319
1.79474e-319
1.86875e-319
1.94494e-319
2.0235e-319
2.10452e-319
2.10393e-319
2.02369e-319
1.94583e-319
1.87033e-319
1.79741e-319
1.72666e-319
1.65838e-319
1.59237e-319
1.52864e-319
1.46708e-319
1.40769e-319
1.35048e-319
1.29534e-319
1.24228e-319
1.19109e-319
1.14188e-319
1.09455e-319
1.049e-319
1.00532e-319
9.63428e-320
9.23112e-320
8.84575e-320
8.47619e-320
8.12145e-320
7.7845e-320
7.46928e-320
7.18964e-320
6.94854e-320
6.71732e-320
6.42088e-320
5.17978e-320
4.98018e-320
4.84184e-320
4.9288e-320
5.29638e-320
5.32998e-320
4.96338e-320
4.81022e-320
4.83394e-320
4.86753e-320
4.88137e-320
4.88334e-320
4.86457e-320
4.83789e-320
4.94955e-320
5.30528e-320
5.35567e-320
4.96832e-320
4.76082e-320
4.74007e-320
4.73809e-320
4.76477e-320
4.96437e-320
5.28453e-320
5.23216e-320
4.91299e-320
4.76675e-320
4.76872e-320
4.79244e-320
4.80232e-320
4.79935e-320
4.78256e-320
4.75489e-320
4.78058e-320
4.98216e-320
5.27662e-320
5.19559e-320
4.90014e-320
4.77761e-320
4.78848e-320
5.84381e-320
6.1363e-320
6.4357e-320
6.75289e-320
7.10565e-320
7.50782e-320
7.93074e-320
8.31611e-320
8.6422e-320
8.95445e-320
9.30622e-320
9.70938e-320
1.0156e-319
1.06323e-319
1.11293e-319
1.16481e-319
1.21876e-319
1.27499e-319
1.33329e-319
1.39356e-319
1.45572e-319
1.51975e-319
1.58575e-319
1.65354e-319
1.7232e-319
1.79504e-319
1.86895e-319
1.94524e-319
2.02379e-319
2.10472e-319
2.10462e-319
2.02429e-319
1.94642e-319
1.87093e-319
1.7979e-319
1.72725e-319
1.65887e-319
1.59287e-319
1.52903e-319
1.46757e-319
1.40809e-319
1.35087e-319
1.29564e-319
1.24258e-319
1.19149e-319
1.14218e-319
1.09485e-319
1.0494e-319
1.00572e-319
9.63724e-320
9.23508e-320
8.8497e-320
8.48014e-320
8.12639e-320
7.79043e-320
7.4762e-320
7.19458e-320
6.94854e-320
6.70941e-320
6.41297e-320
5.18275e-320
4.99204e-320
4.85765e-320
4.94066e-320
5.26872e-320
5.30132e-320
4.9703e-320
4.81516e-320
4.83196e-320
4.86753e-320
4.88334e-320
4.8873e-320
4.87248e-320
4.85469e-320
4.9624e-320
5.27662e-320
5.32603e-320
4.97623e-320
4.76477e-320
4.73513e-320
4.73513e-320
4.76477e-320
4.96042e-320
5.26476e-320
5.22326e-320
4.91892e-320
4.76872e-320
4.76773e-320
4.79342e-320
4.80429e-320
4.80034e-320
4.78256e-320
4.75489e-320
4.78256e-320
4.98216e-320
5.25883e-320
5.18967e-320
4.90508e-320
4.7786e-320
4.7875e-320
5.84282e-320
6.1363e-320
6.4357e-320
6.75289e-320
7.10763e-320
7.51276e-320
7.93667e-320
8.32204e-320
8.64714e-320
8.95642e-320
9.30523e-320
9.70839e-320
1.0155e-319
1.06313e-319
1.11303e-319
1.16501e-319
1.21906e-319
1.27528e-319
1.33358e-319
1.39386e-319
1.45611e-319
1.52014e-319
1.58605e-319
1.65374e-319
1.7235e-319
1.79534e-319
1.86925e-319
1.94543e-319
2.02409e-319
2.10511e-319
2.10541e-319
2.02508e-319
1.94721e-319
1.87162e-319
1.7985e-319
1.72785e-319
1.65947e-319
1.59326e-319
1.52953e-319
1.46797e-319
1.40848e-319
1.35127e-319
1.29603e-319
1.24297e-319
1.19179e-319
1.14258e-319
1.09524e-319
1.04979e-319
1.00602e-319
9.6412e-320
9.23903e-320
8.85366e-320
8.4841e-320
8.13034e-320
7.79537e-320
7.48213e-320
7.19952e-320
6.94656e-320
6.70151e-320
6.40704e-320
5.18472e-320
5.00192e-320
4.87346e-320
4.95251e-320
5.24599e-320
5.27761e-320
4.97821e-320
4.8201e-320
4.82999e-320
4.86556e-320
4.88334e-320
4.88927e-320
4.87939e-320
4.8705e-320
4.97623e-320
5.25389e-320
5.30132e-320
4.98413e-320
4.76773e-320
4.7292e-320
4.7292e-320
4.76477e-320
4.95745e-320
5.24599e-320
5.21536e-320
4.92386e-320
4.7707e-320
4.76675e-320
4.79441e-320
4.80528e-320
4.80232e-320
4.78256e-320
4.75489e-320
4.78453e-320
4.98117e-320
5.24401e-320
5.18374e-320
4.91002e-320
4.78058e-320
4.78651e-320
5.84183e-320
6.1363e-320
6.43471e-320
6.75289e-320
7.1096e-320
7.5177e-320
7.94359e-320
8.32797e-320
8.65208e-320
8.95939e-320
9.30523e-320
9.7074e-320
1.0154e-319
1.06303e-319
1.11303e-319
1.16511e-319
1.21935e-319
1.27558e-319
1.33398e-319
1.39425e-319
1.45651e-319
1.52054e-319
1.58635e-319
1.65413e-319
1.7238e-319
1.79563e-319
1.86954e-319
1.94573e-319
2.02429e-319
2.10531e-319
2.1063e-319
2.02587e-319
1.9479e-319
1.87231e-319
1.79919e-319
1.72844e-319
1.66006e-319
1.59386e-319
1.53002e-319
1.46846e-319
1.40908e-319
1.35176e-319
1.29653e-319
1.24337e-319
1.19218e-319
1.14287e-319
1.09564e-319
1.05009e-319
1.00641e-319
9.64416e-320
9.24298e-320
8.85761e-320
8.48805e-320
8.13528e-320
7.80031e-320
7.48806e-320
7.20249e-320
6.94656e-320
6.69558e-320
6.40111e-320
5.18571e-320
5.0118e-320
4.88927e-320
4.96437e-320
5.22721e-320
5.25686e-320
4.98413e-320
4.82406e-320
4.82801e-320
4.86358e-320
4.88334e-320
4.89125e-320
4.88631e-320
4.88631e-320
4.99006e-320
5.23413e-320
5.27959e-320
4.99204e-320
4.77169e-320
4.72327e-320
4.72327e-320
4.76279e-320
4.95251e-320
5.22919e-320
5.20548e-320
4.9288e-320
4.77267e-320
4.76675e-320
4.79441e-320
4.80627e-320
4.80232e-320
4.78256e-320
4.75489e-320
4.78651e-320
4.98018e-320
5.23018e-320
5.17781e-320
4.91497e-320
4.78058e-320
4.78552e-320
5.84183e-320
6.1363e-320
6.43471e-320
6.7519e-320
7.11059e-320
7.52166e-320
7.9505e-320
8.3339e-320
8.65603e-320
8.96136e-320
9.30424e-320
9.70543e-320
1.01521e-319
1.06303e-319
1.11303e-319
1.1652e-319
1.21955e-319
1.27588e-319
1.33427e-319
1.39465e-319
1.4568e-319
1.52083e-319
1.58674e-319
1.65443e-319
1.72409e-319
1.79583e-319
1.86974e-319
1.94593e-319
2.02448e-319
2.10551e-319
2.10729e-319
2.02685e-319
1.94879e-319
1.8731e-319
1.79998e-319
1.72913e-319
1.66065e-319
1.59445e-319
1.53062e-319
1.46896e-319
1.40947e-319
1.35216e-319
1.29702e-319
1.24386e-319
1.19258e-319
1.14327e-319
1.09604e-319
1.05048e-319
1.00671e-319
9.64811e-320
9.24693e-320
8.86156e-320
8.492e-320
8.14023e-320
7.80525e-320
7.49201e-320
7.20545e-320
6.94656e-320
6.69064e-320
6.39519e-320
5.18571e-320
5.01971e-320
4.90508e-320
4.97623e-320
5.2114e-320
5.24006e-320
4.99105e-320
4.82801e-320
4.82406e-320
4.86161e-320
4.88236e-320
4.89224e-320
4.89323e-320
4.90212e-320
5.0039e-320
5.21832e-320
5.25883e-320
4.99797e-320
4.77564e-320
4.71734e-320
4.71734e-320
4.75983e-320
4.94856e-320
5.21239e-320
5.19658e-320
4.93275e-320
4.77465e-320
4.76675e-320
4.79441e-320
4.80825e-320
4.80429e-320
4.78256e-320
4.75489e-320
4.78848e-320
4.97821e-320
5.21733e-320
5.17188e-320
4.91892e-320
4.78256e-320
4.78453e-320
5.84183e-320
6.1363e-320
6.43471e-320
6.7519e-320
7.11257e-320
7.52561e-320
7.95643e-320
8.33983e-320
8.65998e-320
8.96433e-320
9.30424e-320
9.70345e-320
1.01501e-319
1.06303e-319
1.11323e-319
1.1654e-319
1.21975e-319
1.27617e-319
1.33457e-319
1.39494e-319
1.4571e-319
1.52113e-319
1.58694e-319
1.65472e-319
1.72429e-319
1.79603e-319
1.86994e-319
1.94612e-319
2.02468e-319
2.10561e-319
2.10838e-319
2.02784e-319
1.94968e-319
1.87399e-319
1.80077e-319
1.72982e-319
1.66135e-319
1.59514e-319
1.53121e-319
1.46955e-319
1.41006e-319
1.35275e-319
1.29742e-319
1.24425e-319
1.19307e-319
1.14376e-319
1.09643e-319
1.05088e-319
1.0071e-319
9.65207e-320
9.2499e-320
8.86453e-320
8.49595e-320
8.14418e-320
7.81019e-320
7.49596e-320
7.20941e-320
6.94459e-320
6.6857e-320
6.38926e-320
5.18571e-320
5.02761e-320
4.92089e-320
4.98809e-320
5.19955e-320
5.22524e-320
4.99698e-320
4.83394e-320
4.82208e-320
4.85765e-320
4.88038e-320
4.89323e-320
4.89915e-320
4.91892e-320
5.01971e-320
5.20646e-320
5.24006e-320
5.00192e-320
4.77959e-320
4.71141e-320
4.70943e-320
4.75686e-320
4.94263e-320
5.19757e-320
5.18769e-320
4.93572e-320
4.77761e-320
4.76576e-320
4.7954e-320
4.81022e-320
4.80627e-320
4.78256e-320
4.7539e-320
4.78848e-320
4.97623e-320
5.20548e-320
5.16595e-320
4.92188e-320
4.78453e-320
4.78354e-320
5.84084e-320
6.1363e-320
6.43372e-320
6.75091e-320
7.11455e-320
7.52956e-320
7.96137e-320
8.34576e-320
8.66492e-320
8.9663e-320
9.30424e-320
9.70246e-320
1.01501e-319
1.06293e-319
1.11323e-319
1.1656e-319
1.21995e-319
1.27647e-319
1.33497e-319
1.39524e-319
1.45749e-319
1.52152e-319
1.58724e-319
1.65492e-319
1.72449e-319
1.79623e-319
1.87014e-319
1.94622e-319
2.02468e-319
2.10571e-319
2.10946e-319
2.02893e-319
1.95077e-319
1.87488e-319
1.80156e-319
1.73061e-319
1.66204e-319
1.59583e-319
1.5319e-319
1.47014e-319
1.41066e-319
1.35325e-319
1.29801e-319
1.24465e-319
1.19346e-319
1.14416e-319
1.09683e-319
1.05127e-319
1.0075e-319
9.65602e-320
9.25385e-320
8.86848e-320
8.49991e-320
8.14813e-320
7.81414e-320
7.49992e-320
7.21138e-320
6.94459e-320
6.68174e-320
6.38333e-320
5.18374e-320
5.03552e-320
4.93572e-320
4.99994e-320
5.18967e-320
5.2114e-320
5.00192e-320
4.83789e-320
4.8201e-320
4.8537e-320
4.87742e-320
4.89323e-320
4.90706e-320
4.9367e-320
5.03552e-320
5.19856e-320
5.22227e-320
5.0039e-320
4.78256e-320
4.70746e-320
4.7035e-320
4.75291e-320
4.93769e-320
5.18176e-320
5.17781e-320
4.93868e-320
4.78058e-320
4.76675e-320
4.79639e-320
4.8122e-320
4.80726e-320
4.78256e-320
4.75291e-320
4.78947e-320
4.97326e-320
5.19362e-320
5.15903e-320
4.92485e-320
4.78651e-320
4.78256e-320
5.83986e-320
6.1363e-320
6.43273e-320
6.75091e-320
7.11455e-320
7.53351e-320
7.96631e-320
8.34971e-320
8.66789e-320
8.96828e-320
9.30424e-320
9.70147e-320
1.01481e-319
1.06283e-319
1.11333e-319
1.1658e-319
1.22024e-319
1.27676e-319
1.33526e-319
1.39564e-319
1.45779e-319
1.52172e-319
1.58753e-319
1.65512e-319
1.72468e-319
1.79642e-319
1.87014e-319
1.94632e-319
2.02478e-319
2.10571e-319
2.11065e-319
2.03002e-319
1.95176e-319
1.87587e-319
1.80255e-319
1.7315e-319
1.66283e-319
1.59662e-319
1.53259e-319
1.47073e-319
1.41125e-319
1.35374e-319
1.2984e-319
1.24524e-319
1.19386e-319
1.14465e-319
1.09722e-319
1.05167e-319
1.00789e-319
9.65997e-320
9.25681e-320
8.87144e-320
8.50386e-320
8.1511e-320
7.81711e-320
7.50387e-320
7.21336e-320
6.94261e-320
6.6768e-320
6.3774e-320
5.18374e-320
5.04342e-320
4.95153e-320
5.01279e-320
5.18176e-320
5.19955e-320
5.00587e-320
4.84382e-320
4.81813e-320
4.84975e-320
4.87445e-320
4.89323e-320
4.91398e-320
4.95449e-320
5.05528e-320
5.19461e-320
5.20646e-320
5.0039e-320
4.78651e-320
4.7035e-320
4.69758e-320
4.74896e-320
4.93078e-320
5.16595e-320
5.16694e-320
4.94066e-320
4.78354e-320
4.76675e-320
4.79639e-320
4.81418e-320
4.80825e-320
4.78256e-320
4.75291e-320
4.78947e-320
4.96931e-320
5.17978e-320
5.15113e-320
4.92682e-320
4.78848e-320
4.78256e-320
5.83986e-320
6.13531e-320
6.43175e-320
6.74894e-320
7.11553e-320
7.53648e-320
7.97027e-320
8.35366e-320
8.67184e-320
8.97026e-320
9.30523e-320
9.70048e-320
1.01481e-319
1.06283e-319
1.11343e-319
1.16599e-319
1.22054e-319
1.27706e-319
1.33556e-319
1.39593e-319
1.45809e-319
1.52202e-319
1.58773e-319
1.65532e-319
1.72488e-319
1.79642e-319
1.87033e-319
1.94642e-319
2.02478e-319
2.10571e-319
2.11203e-319
2.0312e-319
1.95284e-319
1.87686e-319
1.80344e-319
1.73239e-319
1.66362e-319
1.59731e-319
1.53318e-319
1.47143e-319
1.41184e-319
1.35433e-319
1.299e-319
1.24564e-319
1.19445e-319
1.14505e-319
1.09762e-319
1.05206e-319
1.00829e-319
9.66294e-320
9.26077e-320
8.8754e-320
8.50583e-320
8.15406e-320
7.82007e-320
7.50585e-320
7.21435e-320
6.94261e-320
6.67285e-320
6.37147e-320
5.18176e-320
5.05133e-320
4.96734e-320
5.02564e-320
5.17583e-320
5.18769e-320
5.00686e-320
4.84777e-320
4.81615e-320
4.84481e-320
4.8705e-320
4.89224e-320
4.92287e-320
4.97425e-320
5.07504e-320
5.19559e-320
5.19362e-320
5.00192e-320
4.78947e-320
4.69955e-320
4.69165e-320
4.74501e-320
4.92485e-320
5.15113e-320
5.15607e-320
4.94263e-320
4.78651e-320
4.76773e-320
4.79837e-320
4.81615e-320
4.81022e-320
4.78354e-320
4.75291e-320
4.78947e-320
4.96437e-320
5.16793e-320
5.14224e-320
4.9288e-320
4.79046e-320
4.78256e-320
5.83788e-320
6.13432e-320
6.43076e-320
6.74795e-320
7.11553e-320
7.53944e-320
7.97422e-320
8.35761e-320
8.6748e-320
8.97223e-320
9.30622e-320
9.6995e-320
1.01461e-319
1.06283e-319
1.11353e-319
1.16619e-319
1.22074e-319
1.27736e-319
1.33595e-319
1.39623e-319
1.45828e-319
1.52222e-319
1.58793e-319
1.65552e-319
1.72488e-319
1.79652e-319
1.87033e-319
1.94632e-319
2.02468e-319
2.10551e-319
2.11332e-319
2.03239e-319
1.95393e-319
1.87804e-319
1.80443e-319
1.73328e-319
1.66451e-319
1.5981e-319
1.53398e-319
1.47212e-319
1.41243e-319
1.35493e-319
1.29959e-319
1.24623e-319
1.19485e-319
1.14544e-319
1.09801e-319
1.05246e-319
1.00868e-319
9.66689e-320
9.26472e-320
8.87836e-320
8.50979e-320
8.15801e-320
7.82402e-320
7.50881e-320
7.21533e-320
6.94063e-320
6.66791e-320
6.36653e-320
5.17978e-320
5.05923e-320
4.98413e-320
5.03947e-320
5.17188e-320
5.17682e-320
5.00785e-320
4.85172e-320
4.81418e-320
4.83987e-320
4.86556e-320
4.89125e-320
4.93078e-320
4.99599e-320
5.09777e-320
5.19955e-320
5.18374e-320
4.99797e-320
4.79145e-320
4.69758e-320
4.68769e-320
4.74303e-320
4.91892e-320
5.13631e-320
5.14421e-320
4.94362e-320
4.79046e-320
4.76872e-320
4.79935e-320
4.81813e-320
4.81319e-320
4.78453e-320
4.75291e-320
4.78848e-320
4.95943e-320
5.15409e-320
5.13334e-320
4.93078e-320
4.79244e-320
4.78256e-320
5.83788e-320
6.13432e-320
6.42878e-320
6.74696e-320
7.11553e-320
7.53944e-320
7.9762e-320
8.35959e-320
8.67678e-320
8.97421e-320
9.30622e-320
9.6995e-320
1.01461e-319
1.06293e-319
1.11362e-319
1.16639e-319
1.22103e-319
1.27765e-319
1.33615e-319
1.39643e-319
1.45858e-319
1.52241e-319
1.58812e-319
1.65552e-319
1.72498e-319
1.79652e-319
1.87024e-319
1.94622e-319
2.02458e-319
2.10531e-319
2.1146e-319
2.03377e-319
1.95512e-319
1.87903e-319
1.80541e-319
1.73417e-319
1.6654e-319
1.5989e-319
1.53477e-319
1.47281e-319
1.41303e-319
1.35552e-319
1.30008e-319
1.24673e-319
1.19534e-319
1.14594e-319
1.09841e-319
1.05285e-319
1.00908e-319
9.66985e-320
9.2667e-320
8.88132e-320
8.51275e-320
8.15999e-320
7.826e-320
7.51079e-320
7.21731e-320
6.93965e-320
6.66396e-320
6.36159e-320
5.17978e-320
5.06714e-320
5.00192e-320
5.05429e-320
5.1699e-320
5.16793e-320
5.00587e-320
4.8537e-320
4.81319e-320
4.83394e-320
4.85963e-320
4.88927e-320
4.93868e-320
5.01575e-320
5.12148e-320
5.20943e-320
5.17682e-320
4.995e-320
4.79441e-320
4.69758e-320
4.68473e-320
4.74105e-320
4.91299e-320
5.12148e-320
5.13235e-320
4.94362e-320
4.79342e-320
4.7707e-320
4.80034e-320
4.8201e-320
4.81516e-320
4.78651e-320
4.75489e-320
4.78947e-320
4.9535e-320
5.14026e-320
5.12445e-320
4.93078e-320
4.79441e-320
4.78256e-320
5.83689e-320
6.13333e-320
6.42681e-320
6.74498e-320
7.11455e-320
7.53944e-320
7.9762e-320
8.36058e-320
8.67777e-320
8.97421e-320
9.30721e-320
9.6995e-320
1.01461e-319
1.06303e-319
1.11382e-319
1.16659e-319
1.22133e-319
1.27785e-319
1.33635e-319
1.39672e-319
1.45878e-319
1.52251e-319
1.58812e-319
1.65552e-319
1.72498e-319
1.79642e-319
1.87014e-319
1.94603e-319
2.02429e-319
2.10511e-319
2.11598e-319
2.03496e-319
1.9563e-319
1.88022e-319
1.8065e-319
1.73516e-319
1.66619e-319
1.59969e-319
1.53546e-319
1.4735e-319
1.41372e-319
1.35611e-319
1.30058e-319
1.24722e-319
1.19584e-319
1.14643e-319
1.0988e-319
1.05315e-319
1.00938e-319
9.67381e-320
9.27065e-320
8.88429e-320
8.51572e-320
8.16295e-320
7.82798e-320
7.51276e-320
7.21731e-320
6.93866e-320
6.66e-320
6.35566e-320
5.17781e-320
5.07702e-320
5.01971e-320
5.07109e-320
5.17089e-320
5.16002e-320
5.00587e-320
4.85667e-320
4.8122e-320
4.829e-320
4.8537e-320
4.88631e-320
4.94461e-320
5.03552e-320
5.14421e-320
5.21931e-320
5.17386e-320
4.99204e-320
4.79639e-320
4.69758e-320
4.68374e-320
4.73908e-320
4.90805e-320
5.10864e-320
5.1205e-320
4.94263e-320
4.79639e-320
4.77267e-320
4.80232e-320
4.82307e-320
4.81813e-320
4.78848e-320
4.75588e-320
4.79046e-320
4.94856e-320
5.12643e-320
5.11358e-320
4.93078e-320
4.79738e-320
4.78256e-320
5.8359e-320
6.13234e-320
6.42582e-320
6.74301e-320
7.11257e-320
7.53944e-320
7.9762e-320
8.36058e-320
8.67876e-320
8.97618e-320
9.3082e-320
9.6995e-320
1.01461e-319
1.06303e-319
1.11382e-319
1.16669e-319
1.22153e-319
1.27815e-319
1.33665e-319
1.39692e-319
1.45888e-319
1.52271e-319
1.58812e-319
1.65552e-319
1.72488e-319
1.79623e-319
1.86994e-319
1.94583e-319
2.02399e-319
2.10472e-319
2.11747e-319
2.03634e-319
1.95759e-319
1.8813e-319
1.80749e-319
1.73615e-319
1.66718e-319
1.60058e-319
1.53615e-319
1.47419e-319
1.41441e-319
1.3567e-319
1.30117e-319
1.24771e-319
1.19623e-319
1.14683e-319
1.0992e-319
1.05355e-319
1.00967e-319
9.67578e-320
9.27262e-320
8.88725e-320
8.51769e-320
8.16592e-320
7.82995e-320
7.51375e-320
7.21731e-320
6.93668e-320
6.65605e-320
6.35171e-320
5.17781e-320
5.08492e-320
5.03749e-320
5.0869e-320
5.17386e-320
5.15409e-320
5.0039e-320
4.85963e-320
4.81022e-320
4.82406e-320
4.8458e-320
4.88236e-320
4.95054e-320
5.0533e-320
5.16793e-320
5.23314e-320
5.17386e-320
4.99006e-320
4.79837e-320
4.69955e-320
4.68374e-320
4.73908e-320
4.90311e-320
5.0948e-320
5.10864e-320
4.94066e-320
4.80034e-320
4.77465e-320
4.80429e-320
4.82505e-320
4.8201e-320
4.79046e-320
4.75785e-320
4.79046e-320
4.94263e-320
5.11457e-320
5.1037e-320
4.92979e-320
4.79935e-320
4.78256e-320
5.8359e-320
6.13135e-320
6.42483e-320
6.74103e-320
7.11059e-320
7.53747e-320
7.97323e-320
8.3586e-320
8.67777e-320
8.97618e-320
9.3082e-320
9.6995e-320
1.01461e-319
1.06303e-319
1.11392e-319
1.16679e-319
1.22163e-319
1.27825e-319
1.33674e-319
1.39702e-319
1.45907e-319
1.52271e-319
1.58812e-319
1.65552e-319
1.72468e-319
1.79603e-319
1.86954e-319
1.94543e-319
2.0235e-319
2.10413e-319
2.11895e-319
2.03772e-319
1.95887e-319
1.88239e-319
1.80848e-319
1.73713e-319
1.66797e-319
1.60137e-319
1.53694e-319
1.47488e-319
1.415e-319
1.3573e-319
1.30176e-319
1.24821e-319
1.19673e-319
1.14722e-319
1.09959e-319
1.05394e-319
1.01007e-319
9.67973e-320
9.27658e-320
8.88923e-320
8.51967e-320
8.16789e-320
7.83193e-320
7.51573e-320
7.2183e-320
6.93471e-320
6.6521e-320
6.34578e-320
5.17583e-320
5.0948e-320
5.05528e-320
5.10469e-320
5.17781e-320
5.15014e-320
5.0039e-320
4.86259e-320
4.81022e-320
4.81813e-320
4.83987e-320
4.87742e-320
4.95449e-320
5.06911e-320
5.18769e-320
5.24698e-320
5.17583e-320
4.99006e-320
4.80133e-320
4.70153e-320
4.68473e-320
4.74105e-320
4.90113e-320
5.08394e-320
5.09777e-320
4.93868e-320
4.80232e-320
4.77663e-320
4.80627e-320
4.82801e-320
4.82208e-320
4.79244e-320
4.76082e-320
4.79145e-320
4.93769e-320
5.10073e-320
5.09382e-320
4.9288e-320
4.80232e-320
4.78354e-320
5.83492e-320
6.13037e-320
6.42285e-320
6.73906e-320