/*--------------------------------*- C++ -*----------------------------------*\
  =========                 |
  \\      /  F ield         | OpenFOAM: The Open Source CFD Toolbox
   \\    /   O peration     | Website:  https://openfoam.org
    \\  /    A nd           | Version:  9
     \\/     M anipulation  |
\*---------------------------------------------------------------------------*/
FoamFile
{
    format      ascii;
    class       volScalarField;
    location    "0.18";
    object      p;
}
// * * * * * * * * * * * * * * * * * * * * * * * * * * * * * * * * * * * * * //

dimensions      [1 -1 -2 0 0 0 0];

internalField   nonuniform List<scalar> 
20000
(
3.68017
3.67946
3.67897
3.67856
3.67817
3.67777
3.67735
3.67689
3.67636
3.67576
3.67506
3.67425
3.67328
3.67213
3.67077
3.66915
3.6672
3.66488
3.66208
3.6587
3.6546
3.6496
3.64335
3.63487
3.62078
3.59007
3.5172
3.35778
3.04962
3.16269
3.56553
3.47128
3.12034
2.66707
1.445
1.4784
2.88182
3.04626
3.27313
3.4015
3.44545
3.43272
3.33534
3.04242
2.57232
1.09
1.40719
2.76139
2.918
3.09539
3.16871
3.11388
3.38305
2.497
3.45368
3.41351
3.29846
3.31745
3.34567
3.35946
3.35656
3.33529
3.29166
3.17889
3.41712
2.50966
3.51861
3.41376
3.34049
3.37769
3.42121
3.4558
3.48593
3.51468
3.54621
3.58154
3.61295
3.63443
3.64431
3.63859
3.62689
3.61974
3.61888
3.62208
3.62733
3.63342
3.63969
3.64572
3.65128
3.65623
3.66054
3.66424
3.6674
3.67009
3.67237
3.67431
3.67597
3.67743
3.67875
3.68
3.67796
3.67689
3.67611
3.67543
3.67478
3.67416
3.67355
3.67292
3.67226
3.67154
3.67074
3.66984
3.6688
3.66758
3.66613
3.66439
3.66229
3.65971
3.65653
3.65254
3.64744
3.64069
3.63129
3.61707
3.59323
3.55002
3.47826
3.39444
3.28912
3.34916
3.55453
3.46769
3.16913
2.82138
2.20607
2.22834
3.06443
3.15766
3.29659
3.40204
3.4397
3.42422
3.33553
3.07431
2.75224
1.98544
2.19805
3.00315
3.06024
3.15911
3.23134
3.13527
3.34494
2.832
3.47674
3.43654
3.37242
3.37094
3.37985
3.38639
3.3836
3.36899
3.34866
3.1874
3.3789
2.8462
3.52859
3.44169
3.40651
3.42492
3.45046
3.47664
3.50169
3.52444
3.54504
3.5651
3.58671
3.61042
3.63068
3.63751
3.63406
3.62911
3.62659
3.62655
3.62819
3.63081
3.63401
3.63755
3.64132
3.64523
3.64923
3.65321
3.65708
3.66076
3.66417
3.66729
3.67014
3.67276
3.6752
3.67753
3.67628
3.67559
3.67504
3.67449
3.67394
3.6734
3.67285
3.67228
3.67167
3.67101
3.67028
3.66945
3.66848
3.66734
3.66597
3.66431
3.66228
3.65975
3.65657
3.65251
3.6472
3.64011
3.63031
3.61634
3.59589
3.56515
3.52303
3.48097
3.41777
3.43127
3.5574
3.49739
3.30102
3.24766
2.84201
2.80313
3.34931
3.33011
3.395
3.45516
3.47389
3.45885
3.39735
3.22966
3.22541
2.72742
2.80902
3.35735
3.25329
3.27828
3.31809
3.22577
3.45591
3.10271
3.49093
3.43663
3.41655
3.4153
3.4137
3.41442
3.40938
3.39391
3.38702
3.26115
3.47712
3.11342
3.52904
3.443
3.44795
3.46385
3.4796
3.49953
3.51951
3.53835
3.55684
3.57579
3.59359
3.60904
3.62145
3.62722
3.62826
3.62837
3.62905
3.63051
3.63265
3.63531
3.63833
3.64158
3.64494
3.64834
3.6517
3.65498
3.65812
3.6611
3.66391
3.66655
3.66903
3.67136
3.67358
3.6757
3.67445
3.67401
3.67366
3.6733
3.67293
3.67254
3.67214
3.67172
3.67126
3.67075
3.67017
3.6695
3.66871
3.66775
3.66659
3.66515
3.66337
3.66113
3.6583
3.65467
3.64997
3.64381
3.63567
3.62485
3.61056
3.59121
3.56635
3.54162
3.50572
3.50285
3.58414
3.55856
3.44444
3.51256
3.29272
3.25535
3.59512
3.48775
3.50188
3.52626
3.53028
3.52076
3.49333
3.40079
3.51657
3.2456
3.27665
3.63075
3.43009
3.4063
3.41754
3.33485
3.51776
3.30161
3.5312
3.47622
3.46183
3.45477
3.44727
3.44451
3.43839
3.42308
3.42969
3.34255
3.52924
3.30923
3.55465
3.4765
3.48693
3.49559
3.5054
3.5208
3.53655
3.55228
3.56863
3.58548
3.60007
3.6109
3.61886
3.62336
3.62584
3.62806
3.63036
3.63283
3.63553
3.63842
3.64144
3.64451
3.64756
3.65054
3.65342
3.65617
3.6588
3.66129
3.66366
3.6659
3.66803
3.67005
3.672
3.67386
3.67257
3.67232
3.67217
3.67201
3.67183
3.67164
3.67143
3.67121
3.67095
3.67065
3.67029
3.66985
3.66931
3.66863
3.66777
3.66669
3.66531
3.66356
3.66132
3.65845
3.65476
3.65003
3.64396
3.63621
3.62654
3.61438
3.59999
3.58729
3.57145
3.56536
3.61299
3.61298
3.55641
3.6637
3.58251
3.55647
3.74541
3.60734
3.59464
3.59707
3.59266
3.58804
3.58358
3.53656
3.67133
3.55708
3.58978
3.78483
3.56881
3.51958
3.50869
3.43491
3.5546
3.43478
3.56842
3.52665
3.50811
3.4936
3.482
3.47641
3.47012
3.45656
3.47183
3.41459
3.55487
3.43613
3.57662
3.51825
3.52412
3.52509
3.53066
3.54199
3.55413
3.56701
3.58045
3.59362
3.60442
3.61227
3.61848
3.62312
3.62672
3.62991
3.63278
3.6355
3.63823
3.64099
3.64375
3.64647
3.64912
3.65169
3.65415
3.65652
3.65878
3.66093
3.66299
3.66496
3.66683
3.66862
3.67034
3.67199
3.67068
3.6706
3.67065
3.6707
3.67073
3.67076
3.67078
3.67078
3.67076
3.67072
3.67063
3.67048
3.67025
3.66992
3.66945
3.66881
3.66795
3.66681
3.66531
3.66335
3.66083
3.65761
3.65355
3.64854
3.64265
3.63596
3.62911
3.62434
3.61891
3.61367
3.64224
3.65839
3.6434
3.76985
3.76239
3.74011
3.83831
3.69939
3.67171
3.66138
3.65284
3.65181
3.66052
3.64465
3.77428
3.74157
3.77952
3.88337
3.67923
3.61401
3.58602
3.51682
3.58526
3.52179
3.60217
3.57342
3.549
3.52987
3.51605
3.50821
3.5021
3.49065
3.50865
3.47236
3.57244
3.51327
3.59517
3.55519
3.55461
3.55111
3.55403
3.56184
3.57077
3.58087
3.59132
3.60115
3.60903
3.61497
3.62018
3.6247
3.62865
3.63216
3.6352
3.63793
3.64054
3.64307
3.64553
3.64792
3.65022
3.65244
3.65457
3.65661
3.65857
3.66044
3.66224
3.66395
3.66559
3.66716
3.66867
3.67013
3.66879
3.6689
3.66916
3.66942
3.66968
3.66994
3.67021
3.67047
3.67072
3.67096
3.67118
3.67136
3.6715
3.67157
3.67155
3.67142
3.67114
3.67069
3.67
3.66904
3.66773
3.66604
3.66396
3.66153
3.65901
3.65671
3.65505
3.65466
3.65387
3.65072
3.67109
3.69821
3.71284
3.84973
3.87507
3.85476
3.90597
3.7758
3.73765
3.71918
3.70879
3.71088
3.72788
3.73436
3.85491
3.86326
3.89073
3.95869
3.77078
3.6937
3.65013
3.58575
3.61709
3.58321
3.63394
3.61317
3.58389
3.56254
3.54782
3.53847
3.53259
3.52288
3.54002
3.51794
3.58939
3.56254
3.61219
3.58463
3.57851
3.57291
3.57422
3.57926
3.58556
3.59322
3.60124
3.60871
3.61468
3.61928
3.62343
3.62729
3.63093
3.6343
3.63727
3.63993
3.6424
3.64474
3.64696
3.64908
3.65111
3.65304
3.65489
3.65665
3.65833
3.65994
3.66148
3.66295
3.66436
3.66571
3.66701
3.66826
3.66691
3.66721
3.66769
3.66818
3.66867
3.66918
3.6697
3.67024
3.67078
3.67134
3.67189
3.67243
3.67296
3.67347
3.67393
3.67435
3.67469
3.67496
3.67512
3.67516
3.67507
3.67487
3.67461
3.67446
3.67468
3.67558
3.6773
3.6796
3.68158
3.68086
3.69777
3.73182
3.76583
3.90424
3.94394
3.92904
3.95871
3.83851
3.794
3.77052
3.75969
3.76428
3.78641
3.8065
3.915
3.94
3.96529
4.0178
3.84543
3.76058
3.7065
3.6426
3.64953
3.63008
3.66267
3.64643
3.61453
3.5922
3.57715
3.56683
3.56106
3.55263
3.56751
3.55468
3.60613
3.59622
3.6268
3.60744
3.59795
3.59137
3.59152
3.59443
3.59869
3.60436
3.61046
3.61618
3.62071
3.62419
3.62738
3.63048
3.63359
3.63661
3.63935
3.6418
3.64406
3.64618
3.64816
3.65004
3.6518
3.65347
3.65505
3.65654
3.65797
3.65933
3.66064
3.66188
3.66308
3.66422
3.66532
3.66639
3.66504
3.66554
3.66624
3.66696
3.66769
3.66845
3.66924
3.67006
3.67091
3.67178
3.67268
3.67361
3.67455
3.6755
3.67646
3.67743
3.67841
3.6794
3.68039
3.68141
3.68245
3.68359
3.68492
3.68662
3.68892
3.69211
3.69616
3.70043
3.70436
3.70644
3.72102
3.75837
3.80397
3.93665
3.982
3.97557
3.99673
3.88689
3.84033
3.81446
3.80436
3.81029
3.8349
3.86171
3.95619
3.98698
4.01467
4.06055
3.90396
3.81448
3.75475
3.69018
3.68071
3.66728
3.68755
3.67408
3.64169
3.61945
3.60431
3.59332
3.5875
3.5799
3.59203
3.58466
3.62154
3.61992
3.63827
3.62474
3.61418
3.60742
3.60667
3.60791
3.61057
3.61461
3.61909
3.6233
3.62659
3.6291
3.63147
3.63392
3.63654
3.63916
3.64156
3.64371
3.64569
3.64752
3.64923
3.65083
3.65233
3.65373
3.65505
3.6563
3.65749
3.65862
3.65971
3.66075
3.66174
3.66269
3.66362
3.66451
3.66317
3.66388
3.6648
3.66575
3.66672
3.66774
3.6688
3.66991
3.67106
3.67226
3.67351
3.67481
3.67617
3.67757
3.67903
3.68055
3.68214
3.68382
3.6856
3.68751
3.68958
3.69189
3.69456
3.69774
3.70166
3.70655
3.71233
3.71814
3.72363
3.72776
3.7406
3.77888
3.8308
3.95334
3.99895
4.00127
4.02021
3.92214
3.87694
3.85054
3.84201
3.84827
3.87336
3.9027
3.9823
4.01311
4.04447
4.08833
3.94803
3.85795
3.79408
3.72981
3.70958
3.69789
3.70913
3.69705
3.66556
3.64448
3.62941
3.61797
3.61196
3.60474
3.61392
3.60922
3.63534
3.63728
3.64744
3.6379
3.62774
3.62146
3.62008
3.62001
3.62137
3.62401
3.62708
3.62999
3.6322
3.63387
3.63555
3.63742
3.63956
3.64177
3.6438
3.64561
3.64727
3.6488
3.65022
3.65153
3.65275
3.65389
3.65496
3.65597
3.65693
3.65785
3.65873
3.65957
3.66037
3.66114
3.6619
3.66263
3.6613
3.66221
3.66335
3.66453
3.66575
3.66702
3.66835
3.66974
3.67119
3.67272
3.67431
3.67599
3.67775
3.67959
3.68153
3.68358
3.68575
3.68808
3.69058
3.6933
3.69629
3.69961
3.70339
3.70779
3.71301
3.71921
3.72626
3.73328
3.73987
3.74541
3.75707
3.79498
3.84988
3.95974
4.00232
4.01178
4.03083
3.94622
3.90481
3.87925
3.87261
3.87865
3.903
3.93231
3.99692
4.02439
4.05976
4.1011
3.98156
3.89052
3.82498
3.76232
3.73562
3.72398
3.72821
3.71631
3.68647
3.66745
3.65247
3.64078
3.6345
3.62729
3.63351
3.62958
3.64771
3.65091
3.65548
3.64837
3.63922
3.63381
3.63196
3.63087
3.63115
3.63257
3.63442
3.63621
3.63752
3.63849
3.63953
3.64085
3.64252
3.64431
3.64597
3.64745
3.64878
3.65
3.65112
3.65215
3.6531
3.65399
3.65481
3.65559
3.65633
3.65703
3.65771
3.65836
3.65898
3.65958
3.66017
3.66075
3.65942
3.66054
3.66189
3.6633
3.66475
3.66627
3.66786
3.66953
3.67127
3.67311
3.67505
3.67708
3.67923
3.6815
3.68389
3.68643
3.68915
3.69207
3.69523
3.69867
3.70245
3.70664
3.71136
3.71677
3.72301
3.73022
3.73821
3.7461
3.75351
3.76006
3.7712
3.80826
3.86326
3.95935
3.99738
4.01202
4.03103
3.96044
3.92525
3.9015
3.89663
3.90201
3.92533
3.95292
4.00325
4.02577
4.06486
4.10352
3.9991
3.91216
3.84852
3.78855
3.75862
3.74675
3.74519
3.73277
3.70492
3.68857
3.6736
3.66187
3.65525
3.64781
3.65125
3.64679
3.65884
3.66241
3.6632
3.65736
3.64935
3.64489
3.64259
3.64067
3.64003
3.64036
3.64113
3.64196
3.6425
3.64288
3.64336
3.64415
3.64536
3.64676
3.64806
3.6492
3.65021
3.65112
3.65195
3.6527
3.65339
3.65402
3.6546
3.65516
3.65568
3.65618
3.65666
3.65712
3.65757
3.658
3.65843
3.65886
3.65752
3.65884
3.6604
3.66203
3.66371
3.66547
3.66731
3.66924
3.67127
3.67341
3.67566
3.67804
3.68056
3.68322
3.68604
3.68904
3.69225
3.6957
3.69945
3.70352
3.70799
3.71293
3.71844
3.72465
3.73171
3.73968
3.74835
3.75688
3.76491
3.77231
3.78342
3.81936
3.87211
3.95488
3.98831
4.00543
4.0239
3.96774
3.93764
3.91828
3.91471
3.92014
3.94055
3.96658
4.00433
4.02081
4.06041
4.09687
4.00575
3.92553
3.86558
3.80936
3.77853
3.7666
3.7607
3.74742
3.72195
3.70754
3.69296
3.68142
3.67446
3.66666
3.66756
3.66177
3.66898
3.67271
3.6712
3.66588
3.65885
3.65515
3.65231
3.64966
3.64817
3.6475
3.64726
3.64722
3.64711
3.64698
3.64696
3.64728
3.64807
3.6491
3.65007
3.65087
3.65156
3.65216
3.6527
3.65318
3.6536
3.65398
3.65434
3.65467
3.65498
3.65528
3.65558
3.65587
3.65614
3.65641
3.65669
3.65697
3.65561
3.65712
3.65888
3.66072
3.66261
3.6646
3.66668
3.66886
3.67116
3.67357
3.67613
3.67883
3.68168
3.68471
3.68792
3.69134
3.695
3.69893
3.70319
3.70782
3.71288
3.71844
3.7246
3.73147
3.73916
3.7477
3.75689
3.7659
3.77443
3.78254
3.79383
3.82849
3.8779
3.94839
3.97746
3.99504
4.01254
3.96834
3.94544
3.92969
3.92727
3.93264
3.95096
3.97524
4.00266
4.01265
4.05006
4.0831
4.00518
3.93217
3.87699
3.82563
3.79559
3.78413
3.77512
3.76103
3.73791
3.72479
3.71087
3.69963
3.69235
3.68415
3.68279
3.6753
3.67851
3.68255
3.68
3.6748
3.6683
3.66495
3.66143
3.65808
3.65576
3.6541
3.65288
3.65202
3.65136
3.65081
3.65035
3.65023
3.65064
3.65134
3.65198
3.65247
3.65284
3.65313
3.65338
3.65358
3.65375
3.65389
3.65401
3.65413
3.65425
3.65436
3.65447
3.65459
3.6547
3.65481
3.65494
3.65508
3.65369
3.65537
3.65732
3.65935
3.66144
3.66364
3.66595
3.66837
3.67091
3.67359
3.67642
3.67941
3.68258
3.68594
3.68951
3.6933
3.69736
3.70172
3.70642
3.71152
3.71709
3.72317
3.72986
3.73725
3.74543
3.75442
3.76396
3.77334
3.78228
3.79092
3.80245
3.83567
3.8818
3.94123
3.96594
3.98347
3.99984
3.96476
3.94889
3.93621
3.93504
3.94044
3.95703
3.98018
3.99971
4.00348
4.03523
4.06308
3.99718
3.93239
3.88349
3.83816
3.81021
3.79962
3.78898
3.77417
3.75319
3.7407
3.7276
3.71672
3.70916
3.7006
3.69727
3.6881
3.68795
3.69249
3.69001
3.68474
3.67817
3.67458
3.6702
3.66612
3.66292
3.66026
3.65807
3.65644
3.6553
3.65441
3.65356
3.65303
3.6531
3.65348
3.65381
3.65398
3.65404
3.65403
3.65399
3.65392
3.65384
3.65374
3.65365
3.65356
3.65348
3.65341
3.65335
3.6533
3.65325
3.65321
3.65319
3.65319
3.65174
3.65359
3.65571
3.65791
3.6602
3.66259
3.6651
3.66774
3.67051
3.67343
3.67651
3.67976
3.68321
3.68687
3.69076
3.69489
3.6993
3.70403
3.70912
3.71463
3.72061
3.72712
3.73424
3.74204
3.75061
3.75991
3.76971
3.77935
3.7886
3.79763
3.8094
3.84109
3.88429
3.93431
3.95488
3.9719
3.98726
3.95884
3.9485
3.9386
3.93866
3.94413
3.9588
3.98231
3.9959
3.99392
4.01699
4.03645
3.9817
3.9267
3.88576
3.8476
3.82287
3.81355
3.80238
3.78717
3.7677
3.75594
3.74344
3.73289
3.72511
3.71628
3.71133
3.70076
3.69788
3.70298
3.7014
3.69601
3.6887
3.68426
3.67881
3.67393
3.66979
3.66611
3.66295
3.66057
3.65903
3.65785
3.65664
3.65574
3.65547
3.65555
3.65557
3.65543
3.65517
3.65487
3.65454
3.65421
3.65388
3.65355
3.65325
3.65296
3.65268
3.65243
3.6522
3.65199
3.65178
3.65159
3.65143
3.65129
3.64978
3.65178
3.65405
3.65641
3.65887
3.66144
3.66414
3.66698
3.66995
3.67309
3.67639
3.67988
3.68358
3.6875
3.69166
3.69609
3.70081
3.70586
3.71128
3.71713
3.72346
3.73032
3.73778
3.74591
3.75476
3.76429
3.77426
3.78407
3.79352
3.80281
3.81475
3.84483
3.88471
3.92907
3.94504
3.96056
3.97266
3.95383
3.94521
3.93747
3.93852
3.94411
3.9583
3.97971
3.9905
3.98311
3.99507
4.00425
3.95999
3.91612
3.88453
3.85459
3.834
3.82623
3.81538
3.80019
3.78178
3.77057
3.75853
3.74829
3.74038
3.73141
3.72524
3.71376
3.70884
3.71436
3.71407
3.70854
3.69998
3.6941
3.68741
3.68164
3.67652
3.67178
3.66763
3.66455
3.66266
3.66124
3.6597
3.65844
3.65785
3.65761
3.6573
3.65683
3.65626
3.65566
3.65505
3.65445
3.65387
3.65332
3.6528
3.65232
3.65186
3.65143
3.65103
3.65066
3.6503
3.64997
3.64967
3.64939
3.64779
3.64993
3.65233
3.65485
3.65745
3.66019
3.66306
3.66607
3.66923
3.67255
3.67605
3.67975
3.68366
3.68781
3.69221
3.69689
3.70187
3.7072
3.7129
3.71904
3.72565
3.7328
3.74053
3.74891
3.75797
3.76765
3.77772
3.78762
3.79718
3.80659
3.81859
3.84729
3.88619
3.92277
3.93634
3.94969
3.95933
3.94592
3.939
3.9332
3.93483
3.94018
3.95348
3.9738
3.98253
3.96978
3.9692
3.96778
3.93342
3.90177
3.88063
3.85973
3.84402
3.83791
3.82791
3.81311
3.7955
3.78461
3.77296
3.76305
3.7551
3.74616
3.73921
3.72741
3.72121
3.72686
3.72772
3.72196
3.71191
3.70416
3.69608
3.68935
3.68321
3.6774
3.67226
3.6685
3.66631
3.66468
3.66285
3.66125
3.6603
3.65971
3.65905
3.65823
3.65733
3.65641
3.65552
3.65465
3.65383
3.65305
3.65233
3.65164
3.65101
3.65041
3.64984
3.64931
3.64881
3.64833
3.6479
3.6475
3.64578
3.64804
3.65056
3.6532
3.65594
3.65882
3.66184
3.665
3.66832
3.67181
3.67549
3.67937
3.68346
3.6878
3.6924
3.69729
3.7025
3.70805
3.71399
3.72036
3.72721
3.73458
3.74252
3.75109
3.76029
3.77007
3.78019
3.79012
3.7997
3.8091
3.82106
3.84841
3.886
3.9181
3.92872
3.93864
3.94568
3.93598
3.93041
3.92613
3.92781
3.9324
3.94432
3.96362
3.97068
3.95284
3.93962
3.92842
3.90341
3.88486
3.87492
3.86358
3.8533
3.84881
3.83977
3.82558
3.80875
3.79805
3.7868
3.77724
3.76937
3.76063
3.75333
3.74186
3.73518
3.74053
3.74195
3.7358
3.72427
3.71442
3.70488
3.69715
3.68996
3.6831
3.67698
3.67259
3.67012
3.66831
3.66621
3.66426
3.66292
3.66192
3.66086
3.65965
3.6584
3.65715
3.65596
3.65482
3.65375
3.65275
3.65182
3.65095
3.65013
3.64936
3.64864
3.64796
3.64731
3.64669
3.64612
3.64559
3.64375
3.64611
3.64874
3.65148
3.65434
3.65734
3.66048
3.66378
3.66724
3.67087
3.6747
3.67872
3.68298
3.68747
3.69224
3.69731
3.70269
3.70843
3.71456
3.72111
3.72814
3.73569
3.74379
3.75248
3.76178
3.77163
3.78176
3.79167
3.80122
3.81053
3.82241
3.84854
3.88473
3.91397
3.92148
3.92695
3.93112
3.92452
3.92013
3.9167
3.91777
3.9209
3.9308
3.94856
3.95415
3.93189
3.90724
3.888
3.87191
3.86679
3.86829
3.86666
3.86212
3.85907
3.85076
3.83725
3.82136
3.8109
3.80007
3.79092
3.78323
3.77486
3.76761
3.75703
3.75061
3.75523
3.75636
3.74964
3.73686
3.72484
3.71382
3.70508
3.69688
3.68898
3.68193
3.67693
3.6742
3.67223
3.66989
3.66757
3.66579
3.6643
3.66276
3.66112
3.65948
3.65789
3.65638
3.65497
3.65365
3.65243
3.65129
3.65023
3.64924
3.6483
3.64742
3.64659
3.6458
3.64505
3.64435
3.64369
3.64169
3.64413
3.64685
3.64969
3.65264
3.65574
3.65899
3.6624
3.66597
3.66973
3.67367
3.67783
3.68221
3.68684
3.69174
3.69694
3.70247
3.70835
3.71462
3.72132
3.72849
3.73616
3.74437
3.75315
3.7625
3.77236
3.78247
3.79236
3.80186
3.81107
3.82292
3.84803
3.88259
3.90941
3.91389
3.91441
3.91587
3.91216
3.90882
3.90544
3.90516
3.906
3.91304
3.92858
3.93292
3.90745
3.8738
3.84907
3.84137
3.84914
3.86163
3.86936
3.87057
3.86874
3.86073
3.84789
3.83321
3.82311
3.81281
3.80412
3.7967
3.78882
3.78193
3.77269
3.76705
3.77057
3.77066
3.76325
3.74951
3.73538
3.72293
3.7132
3.70402
3.69515
3.68723
3.68166
3.67866
3.67653
3.67394
3.67125
3.66895
3.66688
3.66479
3.66267
3.6606
3.65864
3.65681
3.65511
3.65354
3.65209
3.65075
3.6495
3.64833
3.64723
3.6462
3.64522
3.64429
3.6434
3.64257
3.64179
3.63961
3.64212
3.64491
3.64783
3.65086
3.65404
3.65737
3.66087
3.66453
3.66838
3.67242
3.67668
3.68116
3.68589
3.6909
3.69621
3.70184
3.70783
3.71421
3.721
3.72826
3.73601
3.74429
3.75311
3.76247
3.77231
3.78238
3.79223
3.80169
3.81085
3.8228
3.84698
3.87945
3.90369
3.90549
3.90153
3.9007
3.89962
3.89703
3.89297
3.89064
3.88835
3.89169
3.90448
3.9079
3.88095
3.84161
3.81421
3.81426
3.83348
3.85578
3.872
3.87862
3.87778
3.86968
3.85746
3.84425
3.83473
3.82502
3.81685
3.80978
3.80247
3.79612
3.7884
3.78382
3.78606
3.78468
3.77658
3.76214
3.74602
3.73222
3.72154
3.71143
3.70166
3.69296
3.68685
3.68356
3.68123
3.67841
3.6753
3.67242
3.66968
3.66696
3.6643
3.66177
3.65942
3.65725
3.65526
3.65343
3.65175
3.6502
3.64876
3.64742
3.64616
3.64497
3.64384
3.64277
3.64175
3.64079
3.63988
3.6375
3.64007
3.64292
3.64589
3.64899
3.65223
3.65563
3.65919
3.66293
3.66684
3.67096
3.67528
3.67984
3.68465
3.68973
3.69512
3.70083
3.70689
3.71333
3.72018
3.72749
3.73528
3.74358
3.7524
3.76174
3.77152
3.78153
3.79132
3.80077
3.80995
3.82208
3.84532
3.87512
3.89645
3.89626
3.88914
3.88681
3.8878
3.8854
3.88001
3.87508
3.86898
3.86792
3.87759
3.88072
3.85447
3.81314
3.7858
3.79266
3.82112
3.85142
3.87476
3.88611
3.88606
3.87769
3.86612
3.85455
3.84579
3.83674
3.82913
3.82248
3.81574
3.80998
3.80371
3.80013
3.80112
3.79836
3.78976
3.77473
3.75675
3.74167
3.73009
3.71913
3.70855
3.69915
3.69254
3.68892
3.68635
3.68326
3.67972
3.67618
3.6727
3.66928
3.66602
3.663
3.66023
3.65771
3.65542
3.65332
3.65141
3.64965
3.64802
3.6465
3.64508
3.64373
3.64246
3.64125
3.6401
3.63901
3.63797
3.63536
3.63798
3.64087
3.64389
3.64703
3.65032
3.65376
3.65737
3.66115
3.66512
3.66928
3.67366
3.67827
3.68312
3.68826
3.69369
3.69944
3.70554
3.71201
3.71889
3.72621
3.734
3.74228
3.75105
3.76032
3.77002
3.77992
3.78965
3.7991
3.80837
3.82069
3.84289
3.8696
3.88774
3.88659
3.87808
3.8753
3.87752
3.87458
3.86737
3.8595
3.84915
3.84341
3.8499
3.85351
3.83026
3.79055
3.76557
3.77797
3.81295
3.84899
3.87772
3.89282
3.89346
3.88491
3.87415
3.86427
3.85638
3.84801
3.84102
3.83479
3.82861
3.82336
3.81821
3.81533
3.81531
3.81168
3.8029
3.78731
3.76755
3.75129
3.73885
3.7271
3.71581
3.70578
3.69869
3.69469
3.69182
3.68844
3.68443
3.68019
3.6759
3.67172
3.66783
3.66428
3.66108
3.65819
3.65559
3.65323
3.65108
3.64911
3.64729
3.64559
3.644
3.6425
3.64108
3.63973
3.63845
3.63723
3.63607
3.63321
3.63586
3.63877
3.64182
3.64499
3.6483
3.65178
3.65541
3.65922
3.66322
3.66741
3.67181
3.67645
3.68133
3.68648
3.69193
3.6977
3.7038
3.71028
3.71714
3.72443
3.73218
3.7404
3.7491
3.75826
3.76783
3.7776
3.78724
3.7967
3.80606
3.81853
3.83957
3.86311
3.87823
3.87691
3.86883
3.86681
3.86936
3.86514
3.85578
3.84504
3.83025
3.82012
3.82371
3.82855
3.81032
3.77529
3.75431
3.77071
3.80937
3.8487
3.88087
3.89858
3.8999
3.89157
3.88185
3.87357
3.86653
3.85896
3.85255
3.84674
3.84105
3.83616
3.83167
3.82903
3.82832
3.82467
3.81609
3.79985
3.77841
3.76103
3.74779
3.73531
3.72339
3.7128
3.70524
3.7008
3.69756
3.69385
3.68936
3.68438
3.67924
3.67428
3.66972
3.66562
3.66197
3.6587
3.65578
3.65314
3.65076
3.64858
3.64656
3.64469
3.64294
3.64128
3.63971
3.63822
3.6368
3.63545
3.63416
3.63103
3.63369
3.63662
3.63968
3.64286
3.64619
3.64967
3.65332
3.65714
3.66115
3.66535
3.66976
3.6744
3.67928
3.68443
3.68987
3.69563
3.70171
3.70815
3.71497
3.7222
3.72987
3.73799
3.74657
3.75558
3.76499
3.7746
3.78412
3.79357
3.80299
3.81551
3.83534
3.85592
3.86848
3.86763
3.86174
3.86122
3.86338
3.85736
3.84574
3.83203
3.81437
3.80008
3.80122
3.8079
3.79603
3.76789
3.75183
3.77063
3.81026
3.85053
3.8842
3.90336
3.90541
3.89786
3.88946
3.88262
3.87632
3.86967
3.86376
3.85836
3.85309
3.84839
3.84408
3.8412
3.8401
3.83733
3.82925
3.81229
3.78927
3.77087
3.75686
3.74371
3.7312
3.72015
3.71207
3.70716
3.70348
3.69941
3.6944
3.68867
3.68268
3.67691
3.67167
3.66701
3.6629
3.65925
3.656
3.65309
3.65046
3.64807
3.64586
3.64381
3.64189
3.64008
3.63836
3.63672
3.63517
3.63368
3.63226
3.62882
3.6315
3.63443
3.63748
3.64066
3.64398
3.64746
3.65111
3.65492
3.65892
3.66311
3.66752
3.67214
3.677
3.68213
3.68754
3.69325
3.69928
3.70566
3.71241
3.71954
3.72709
3.73508
3.7435
3.75233
3.76153
3.77095
3.78033
3.78974
3.79917
3.81162
3.83026
3.84827
3.85884
3.85917
3.85632
3.85779
3.85912
3.85114
3.83755
3.82178
3.80187
3.78509
3.78437
3.79303
3.78804
3.76795
3.75708
3.77675
3.81509
3.85429
3.88777
3.9073
3.91016
3.90396
3.89712
3.89151
3.88593
3.88007
3.87471
3.86972
3.86479
3.86016
3.85564
3.85214
3.85066
3.84975
3.8422
3.8245
3.80006
3.78075
3.76603
3.75225
3.73921
3.7277
3.71912
3.71362
3.70949
3.705
3.69947
3.69302
3.68618
3.67962
3.67369
3.66847
3.66388
3.65985
3.65627
3.65309
3.65021
3.6476
3.6452
3.64296
3.64087
3.6389
3.63702
3.63524
3.63354
3.63191
3.63035
3.62661
3.62928
3.63219
3.63522
3.63838
3.64169
3.64516
3.64878
3.65258
3.65656
3.66073
3.6651
3.66969
3.67452
3.6796
3.68495
3.69059
3.69655
3.70284
3.70948
3.71649
3.72389
3.73171
3.73993
3.74855
3.75752
3.76671
3.77591
3.78524
3.79463
3.80689
3.82443
3.84033
3.84947
3.85136
3.85186
3.85533
3.85567
3.84598
3.83116
3.81447
3.79382
3.77601
3.77432
3.78469
3.78621
3.77434
3.76839
3.78766
3.82303
3.85968
3.89164
3.91072
3.91443
3.91
3.90484
3.90029
3.89538
3.89026
3.88546
3.88087
3.87625
3.8716
3.8667
3.86245
3.86123
3.86096
3.8546
3.83629
3.81071
3.79063
3.77523
3.76088
3.74734
3.73535
3.72626
3.72015
3.7155
3.71055
3.70451
3.69735
3.68971
3.68238
3.67578
3.66999
3.66494
3.66052
3.65661
3.65314
3.65002
3.64718
3.64458
3.64216
3.63989
3.63774
3.63571
3.63378
3.63193
3.63016
3.62845
3.62438
3.62703
3.62991
3.63292
3.63605
3.63933
3.64277
3.64636
3.65013
3.65407
3.6582
3.66253
3.66708
3.67184
3.67686
3.68213
3.68769
3.69354
3.69972
3.70622
3.71308
3.72031
3.72793
3.73592
3.74429
3.753
3.76193
3.77092
3.78013
3.78943
3.80142
3.81793
3.8322
3.84039
3.84375
3.84726
3.85237
3.85186
3.84115
3.82621
3.80997
3.79035
3.77326
3.77134
3.78282
3.7898
3.78549
3.78383
3.80178
3.83313
3.86637
3.89599
3.91407
3.91859
3.91606
3.91253
3.90893
3.9047
3.9003
3.89606
3.89189
3.88755
3.88289
3.87761
3.87259
3.87132
3.87188
3.86632
3.84754
3.82118
3.80045
3.78443
3.76955
3.75552
3.74306
3.73343
3.72669
3.72143
3.71602
3.70945
3.70163
3.69326
3.68519
3.67794
3.6716
3.66608
3.66127
3.65703
3.65326
3.64989
3.64682
3.64401
3.64139
3.63894
3.63663
3.63443
3.63233
3.63034
3.62841
3.62656
3.62213
3.62477
3.62761
3.63058
3.63367
3.63691
3.6403
3.64386
3.64758
3.65147
3.65555
3.65983
3.66431
3.66901
3.67394
3.67912
3.68457
3.6903
3.69634
3.70269
3.70937
3.7164
3.72378
3.73153
3.73962
3.74803
3.75667
3.76542
3.77447
3.78361
3.79527
3.81083
3.82383
3.83142
3.83585
3.84145
3.84754
3.84652
3.83591
3.82219
3.80787
3.79103
3.77633
3.77481
3.78666
3.79762
3.79966
3.80147
3.81747
3.84448
3.87406
3.90096
3.91781
3.92301
3.9222
3.9201
3.91739
3.91393
3.91026
3.90659
3.90284
3.89879
3.89419
3.88869
3.88307
3.88148
3.88239
3.8772
3.85811
3.83155
3.81018
3.79361
3.77823
3.76374
3.75079
3.74057
3.73317
3.7273
3.72139
3.71429
3.70586
3.6968
3.68807
3.6802
3.67331
3.66733
3.66211
3.65753
3.65347
3.64983
3.64653
3.6435
3.64068
3.63804
3.63554
3.63317
3.63091
3.62876
3.62668
3.62467
3.61988
3.62249
3.62528
3.62821
3.63125
3.63444
3.63778
3.64128
3.64495
3.64878
3.6528
3.65701
3.66141
3.66603
3.67086
3.67594
3.68126
3.68686
3.69274
3.69891
3.7054
3.7122
3.71934
3.72681
3.7346
3.74269
3.75101
3.75948
3.76831
3.77724
3.78849
3.80312
3.81509
3.82223
3.82714
3.83363
3.83983
3.83884
3.82964
3.81853
3.80757
3.79502
3.78406
3.7834
3.79486
3.80828
3.81524
3.81957
3.83347
3.85631
3.88244
3.90669
3.92233
3.92798
3.92846
3.92749
3.92569
3.9231
3.9202
3.91711
3.91379
3.91005
3.90562
3.90015
3.89422
3.89206
3.89248
3.88737
3.86822
3.84164
3.81985
3.80281
3.78694
3.77196
3.75851
3.74768
3.73961
3.73311
3.72662
3.719
3.71003
3.70037
3.69102
3.68255
3.67514
3.66869
3.66307
3.65814
3.65377
3.64986
3.64631
3.64305
3.64002
3.63718
3.6345
3.63195
3.62952
3.6272
3.62495
3.62278
3.61763
3.6202
3.62294
3.62581
3.6288
3.63193
3.63521
3.63865
3.64225
3.64601
3.64996
3.65408
3.6584
3.66292
3.66766
3.67261
3.67781
3.68325
3.68896
3.69495
3.70122
3.70778
3.71465
3.72182
3.72929
3.73704
3.74502
3.75317
3.76172
3.77037
3.78113
3.79479
3.80582
3.81252
3.81725
3.82334
3.82892
3.82853
3.82193
3.81473
3.80836
3.80123
3.7949
3.79538
3.80582
3.82034
3.83079
3.83689
3.84867
3.86803
3.89103
3.91321
3.92786
3.93368
3.93487
3.93471
3.93386
3.93228
3.93019
3.92769
3.92482
3.92141
3.91725
3.91207
3.90612
3.90322
3.90268
3.89665
3.87798
3.85158
3.82952
3.81205
3.7957
3.78022
3.76622
3.75477
3.74602
3.73886
3.73178
3.72365
3.71417
3.70398
3.69405
3.68502
3.67709
3.67018
3.66415
3.65886
3.65417
3.64997
3.64617
3.64267
3.63943
3.63638
3.6335
3.63076
3.62815
3.62565
3.62323
3.6209
3.61537
3.61791
3.62059
3.6234
3.62633
3.6294
3.63261
3.63597
3.6395
3.64318
3.64704
3.65108
3.65531
3.65972
3.66434
3.66917
3.67423
3.67951
3.68504
3.69083
3.69687
3.70319
3.70978
3.71664
3.72377
3.73116
3.73877
3.74656
3.75477
3.76306
3.77324
3.78586
3.79594
3.80211
3.80605
3.8107
3.81512
3.8157
3.81269
3.81047
3.8096
3.80855
3.80723
3.80891
3.81793
3.83254
3.84516
3.85252
3.86228
3.87888
3.89969
3.92047
3.93443
3.94015
3.9415
3.94185
3.94201
3.94154
3.9403
3.9384
3.93597
3.93292
3.92911
3.9244
3.91868
3.9149
3.91283
3.90586
3.88755
3.86155
3.8393
3.8214
3.80456
3.78854
3.77395
3.76186
3.75243
3.74461
3.73695
3.72831
3.71836
3.70766
3.6972
3.68763
3.67918
3.6718
3.66535
3.65969
3.65468
3.65018
3.64611
3.64237
3.63889
3.63563
3.63254
3.6296
3.6268
3.62412
3.62153
3.61902
3.61312
3.61561
3.61823
3.62097
3.62384
3.62684
3.62998
3.63327
3.63671
3.64031
3.64408
3.64802
3.65214
3.65645
3.66095
3.66565
3.67055
3.67567
3.68102
3.6866
3.69241
3.69847
3.70478
3.71132
3.71811
3.72512
3.73234
3.73975
3.74755
3.75539
3.7649
3.77641
3.78549
3.79098
3.79372
3.79623
3.79909
3.80089
3.80218
3.80562
3.81077
3.81601
3.81959
3.82237
3.82982
3.84389
3.8577
3.86564
3.87378
3.88852
3.90817
3.92826
3.94186
3.9473
3.94838
3.94909
3.95029
3.95097
3.95059
3.94929
3.94732
3.94463
3.94122
3.93705
3.93167
3.927
3.9232
3.91523
3.89728
3.87173
3.84927
3.83093
3.81359
3.797
3.78176
3.76898
3.75889
3.75044
3.74221
3.73307
3.72266
3.71149
3.70052
3.69041
3.68143
3.67357
3.66669
3.66065
3.65529
3.65049
3.64614
3.64214
3.63842
3.63493
3.63162
3.62848
3.62548
3.62261
3.61983
3.61714
3.61086
3.61331
3.61587
3.61854
3.62134
3.62427
3.62734
3.63054
3.6339
3.63741
3.64108
3.64492
3.64894
3.65313
3.6575
3.66206
3.66682
3.67177
3.67693
3.6823
3.68789
3.69369
3.69971
3.70594
3.71238
3.71901
3.72583
3.73281
3.74015
3.74749
3.75627
3.7666
3.77463
3.77932
3.78065
3.78076
3.78187
3.78503
3.79089
3.80028
3.81158
3.82288
3.8309
3.83457
3.84047
3.85364
3.86782
3.87581
3.88285
3.89675
3.9162
3.93634
3.9499
3.95494
3.95558
3.9566
3.95884
3.96064
3.96111
3.96043
3.95891
3.95659
3.95357
3.9499
3.94485
3.9394
3.934
3.9251
3.90749
3.88228
3.85955
3.84075
3.82288
3.80567
3.78972
3.77622
3.76547
3.75644
3.74767
3.73804
3.72717
3.71553
3.70403
3.69337
3.68386
3.6755
3.66819
3.66175
3.65603
3.65091
3.64626
3.64199
3.63801
3.63428
3.63075
3.62739
3.62418
3.62112
3.61815
3.61527
3.60861
3.61101
3.61351
3.61611
3.61884
3.62169
3.62468
3.62781
3.63108
3.6345
3.63807
3.64181
3.64571
3.64978
3.65402
3.65844
3.66305
3.66784
3.67281
3.67798
3.68334
3.68889
3.69463
3.70055
3.70664
3.71291
3.71931
3.72586
3.73271
3.73951
3.74752
3.75668
3.76365
3.76746
3.76737
3.7652
3.76472
3.76924
3.77953
3.79469
3.81193
3.82873
3.84049
3.84481
3.84931
3.8613
3.87513
3.88278
3.88934
3.90341
3.92364
3.94435
3.95821
3.96285
3.96316
3.96455
3.96778
3.97064
3.97194
3.97186
3.9708
3.96885
3.96617
3.96288
3.95805
3.95199
3.94535
3.93577
3.9184
3.89335
3.87027
3.85097
3.83254
3.81467
3.79796
3.78369
3.77227
3.76268
3.75342
3.74332
3.73198
3.71984
3.7078
3.69657
3.6865
3.67763
3.66984
3.66299
3.6569
3.65144
3.64648
3.64192
3.63768
3.6337
3.62993
3.62634
3.62292
3.61965
3.61648
3.61341
3.60636
3.60872
3.61114
3.61368
3.61634
3.61912
3.62203
3.62507
3.62825
3.63158
3.63506
3.63869
3.64247
3.64642
3.65054
3.65482
3.65928
3.6639
3.6687
3.67366
3.6788
3.68411
3.68958
3.6952
3.70097
3.70687
3.71289
3.719
3.72536
3.73161
3.73886
3.74692
3.75287
3.75582
3.75449
3.75047
3.7488
3.75457
3.76881
3.78923
3.81187
3.83343
3.84815
3.85289
3.85612
3.86662
3.87936
3.88643
3.89323
3.90847
3.93028
3.95218
3.96648
3.97088
3.97116
3.97297
3.97717
3.98102
3.9831
3.98362
3.98303
3.98145
3.97905
3.97596
3.9712
3.96472
3.95734
3.94738
3.93015
3.90506
3.88152
3.86171
3.84268
3.82413
3.80661
3.79152
3.77939
3.76927
3.75955
3.74899
3.73716
3.72449
3.71186
3.70003
3.68937
3.67996
3.67168
3.66439
3.65791
3.6521
3.64681
3.64195
3.63743
3.63319
3.62917
3.62535
3.6217
3.61821
3.61482
3.61155
3.60411
3.60642
3.60878
3.61125
3.61384
3.61654
3.61938
3.62234
3.62544
3.62867
3.63205
3.63558
3.63925
3.64309
3.64707
3.65122
3.65553
3.65999
3.66461
3.66939
3.67432