/*--------------------------------*- C++ -*----------------------------------*\
  =========                 |
  \\      /  F ield         | OpenFOAM: The Open Source CFD Toolbox
   \\    /   O peration     | Website:  https://openfoam.org
    \\  /    A nd           | Version:  9
     \\/     M anipulation  |
\*---------------------------------------------------------------------------*/
FoamFile
{
    format      ascii;
    class       volScalarField;
    location    "0.18";
    object      p_rgh;
}
// * * * * * * * * * * * * * * * * * * * * * * * * * * * * * * * * * * * * * //

dimensions      [1 -1 -2 0 0 0 0];

internalField   nonuniform List<scalar> 
20000
(
-0.000445987
-0.0011544
-0.00164543
-0.00205566
-0.00244783
-0.00284334
-0.00326366
-0.0037271
-0.00425054
-0.00485157
-0.00555001
-0.0063688
-0.00733486
-0.00848001
-0.00984222
-0.0114672
-0.0134103
-0.0157396
-0.0185398
-0.0219177
-0.026011
-0.0310105
-0.0372627
-0.0457424
-0.0598355
-0.0905463
-0.163412
-0.322834
-0.631
-0.517928
-0.115085
-0.209333
-0.560277
-1.01354
-2.23562
-2.20221
-0.798799
-0.634355
-0.407487
-0.279119
-0.235164
-0.247899
-0.345274
-0.638191
-1.1083
-2.59062
-2.27342
-0.91922
-0.762611
-0.585227
-0.51191
-0.566737
-0.297563
-1.18362
-0.226935
-0.267106
-0.382157
-0.363162
-0.334948
-0.321157
-0.32405
-0.345329
-0.38896
-0.501723
-0.263496
-1.17096
-0.162005
-0.266853
-0.340124
-0.302927
-0.259404
-0.224812
-0.194683
-0.165931
-0.134406
-0.0990746
-0.0676664
-0.0461842
-0.0363039
-0.0420214
-0.0537274
-0.0608749
-0.0617372
-0.0585318
-0.053284
-0.0471939
-0.0409299
-0.0348951
-0.0293377
-0.0243868
-0.0200755
-0.016372
-0.013213
-0.0105274
-0.00824728
-0.00630744
-0.0046436
-0.0031893
-0.00186953
-0.000618765
-0.000688149
-0.0017648
-0.00254592
-0.00322503
-0.0038695
-0.00448802
-0.00510117
-0.00572996
-0.00639357
-0.00711228
-0.00790943
-0.00881258
-0.00985472
-0.0110759
-0.012525
-0.0142631
-0.0163677
-0.0189405
-0.0221207
-0.0261088
-0.0312135
-0.0379585
-0.0473581
-0.0615832
-0.0854242
-0.128632
-0.200391
-0.284217
-0.389533
-0.329495
-0.124121
-0.210962
-0.509523
-0.857277
-1.47258
-1.45031
-0.614221
-0.520992
-0.382062
-0.276615
-0.238952
-0.254432
-0.343119
-0.604345
-0.926415
-1.69321
-1.48061
-0.675507
-0.618413
-0.519539
-0.447308
-0.543383
-0.333714
-0.846656
-0.201913
-0.242108
-0.306234
-0.307711
-0.298806
-0.292259
-0.295053
-0.309658
-0.329993
-0.491252
-0.299752
-0.832453
-0.150065
-0.236961
-0.272148
-0.253738
-0.228194
-0.202015
-0.176958
-0.154209
-0.133616
-0.113549
-0.0919466
-0.0682328
-0.0479713
-0.041142
-0.0445915
-0.0495381
-0.0520657
-0.0521048
-0.0504658
-0.0478388
-0.044643
-0.0411027
-0.0373364
-0.0334197
-0.0294258
-0.0254432
-0.0215704
-0.0178971
-0.0144852
-0.0113593
-0.0085091
-0.00589722
-0.00345115
-0.00111932
-0.000413136
-0.00109748
-0.00165223
-0.00219665
-0.00274678
-0.00329218
-0.00384306
-0.00441385
-0.0050192
-0.00567679
-0.0064085
-0.00724112
-0.00820767
-0.00934911
-0.0107168
-0.0123762
-0.0144125
-0.0169405
-0.0201203
-0.024185
-0.0294863
-0.036579
-0.0463767
-0.0603534
-0.0808032
-0.111544
-0.153666
-0.195719
-0.258924
-0.245417
-0.119289
-0.179304
-0.375673
-0.429035
-0.834678
-0.873556
-0.327379
-0.346585
-0.281692
-0.221533
-0.202802
-0.217846
-0.279345
-0.447034
-0.451284
-0.949274
-0.86767
-0.319344
-0.423399
-0.398415
-0.358597
-0.450926
-0.220783
-0.573983
-0.185762
-0.240066
-0.260143
-0.261391
-0.262989
-0.262276
-0.267312
-0.28278
-0.289673
-0.415538
-0.199575
-0.563272
-0.147655
-0.233689
-0.228746
-0.212839
-0.197093
-0.177158
-0.157185
-0.138338
-0.119854
-0.100904
-0.0831038
-0.0676468
-0.05524
-0.049466
-0.0484264
-0.0483246
-0.0476364
-0.0461773
-0.0440362
-0.0413762
-0.038358
-0.0351137
-0.0317493
-0.0283508
-0.0249877
-0.0217153
-0.0185744
-0.0155917
-0.0127796
-0.0101378
-0.00765967
-0.00533019
-0.00310613
-0.00098966
-0.000283012
-0.000722179
-0.00106833
-0.00142508
-0.00180122
-0.00218509
-0.002584
-0.0030079
-0.00346745
-0.00397701
-0.00455541
-0.00522656
-0.00602068
-0.00697585
-0.00814011
-0.00957458
-0.0113584
-0.0135967
-0.0164322
-0.0200628
-0.0247633
-0.0309159
-0.0390595
-0.0498839
-0.0641714
-0.0835156
-0.108375
-0.133108
-0.169012
-0.171879
-0.0905859
-0.116171
-0.230289
-0.162169
-0.382014
-0.419379
-0.0796104
-0.186981
-0.172851
-0.148467
-0.144447
-0.153971
-0.181404
-0.273944
-0.158161
-0.429125
-0.398079
-0.0439802
-0.244644
-0.268433
-0.257187
-0.339876
-0.156973
-0.373119
-0.143524
-0.198513
-0.2129
-0.219963
-0.227464
-0.230217
-0.236337
-0.251649
-0.245043
-0.332178
-0.145491
-0.365499
-0.120077
-0.19823
-0.1878
-0.179138
-0.169326
-0.153933
-0.138177
-0.12245
-0.106102
-0.0892518
-0.0746566
-0.0638253
-0.0558735
-0.0513669
-0.0488869
-0.0466709
-0.0443649
-0.041897
-0.0392017
-0.0363079
-0.0332892
-0.0302213
-0.0271707
-0.0241887
-0.02131
-0.0185542
-0.0159292
-0.013436
-0.0110705
-0.00882568
-0.00669669
-0.00467665
-0.00273249
-0.000870172
-0.000195306
-0.000449936
-0.000599687
-0.000761808
-0.0009412
-0.00112926
-0.00133304
-0.00155978
-0.0018178
-0.0021187
-0.00247798
-0.00291575
-0.00345778
-0.00413665
-0.00499311
-0.00607814
-0.00745634
-0.00921105
-0.0114516
-0.0143215
-0.0180058
-0.0227362
-0.0288093
-0.0365587
-0.0462269
-0.0583886
-0.0727816
-0.0854794
-0.101319
-0.107406
-0.0597746
-0.0597901
-0.11636
-0.00906773
-0.0902592
-0.116294
0.072644
-0.0654319
-0.0781308
-0.0756939
-0.0801069
-0.0847305
-0.0891876
-0.136204
-0.00143207
-0.115683
-0.0829914
0.112067
-0.103955
-0.153182
-0.164077
-0.237861
-0.11817
-0.237992
-0.104346
-0.146112
-0.164655
-0.179167
-0.190766
-0.196358
-0.202652
-0.216209
-0.200939
-0.258182
-0.117896
-0.23664
-0.0961486
-0.154515
-0.148646
-0.147682
-0.142102
-0.130773
-0.118641
-0.105754
-0.0923211
-0.0791495
-0.0683476
-0.0605018
-0.0542831
-0.0496493
-0.0460466
-0.0428619
-0.0399913
-0.0372668
-0.0345362
-0.0317768
-0.0290192
-0.0262986
-0.0236451
-0.0210793
-0.0186127
-0.0162499
-0.013991
-0.011834
-0.00977515
-0.00780957
-0.00593536
-0.00414967
-0.00242698
-0.000772648
-0.000125804
-0.00020437
-0.000154829
-0.000107231
-7.54474e-05
-4.76008e-05
-2.81495e-05
-2.36952e-05
-4.07655e-05
-8.81583e-05
-0.000177886
-0.000325832
-0.00055247
-0.00088348
-0.00135034
-0.00199137
-0.00285383
-0.00399728
-0.00549772
-0.0074512
-0.00997383
-0.0131947
-0.0172533
-0.0222631
-0.0281565
-0.0348478
-0.0416933
-0.046462
-0.0518916
-0.0571329
-0.0285688
-0.0124187
-0.027406
0.0990428
0.0915848
0.069309
0.167504
0.0285896
0.000907514
-0.0094293
-0.0179637
-0.0189967
-0.010285
-0.0261544
0.103474
0.0707631
0.108711
0.212568
0.00842532
-0.0567925
-0.0847857
-0.153981
-0.085548
-0.149016
-0.0686307
-0.0973851
-0.121808
-0.140932
-0.154755
-0.162599
-0.168703
-0.180155
-0.162158
-0.198448
-0.0983657
-0.157538
-0.0756341
-0.115611
-0.11619
-0.119694
-0.116778
-0.10897
-0.100039
-0.0899343
-0.0794803
-0.069651
-0.0617778
-0.0558335
-0.0506282
-0.0461063
-0.0421529
-0.0386468
-0.0356088
-0.0328702
-0.0302642
-0.0277352
-0.0252756
-0.0228897
-0.0205847
-0.0183657
-0.0162349
-0.0141919
-0.0122347
-0.010361
-0.00856768
-0.00685106
-0.00521032
-0.0036441
-0.00213207
-0.000678251
-5.13133e-05
5.25781e-05
0.00031462
0.000581766
0.000837746
0.00109941
0.00136371
0.00162478
0.00187833
0.00211846
0.00233677
0.00252156
0.00265798
0.00272762
0.00270877
0.00257618
0.00229984
0.00184291
0.0011596
0.00019488
-0.00111006
-0.00280017
-0.004886
-0.00730981
-0.00983148
-0.0121296
-0.013797
-0.0141829
-0.0149693
-0.0181279
0.00224769
0.0293708
0.0439925
0.180888
0.206226
0.185917
0.237125
0.106961
0.0688093
0.0503387
0.039946
0.0420408
0.0590322
0.0655134
0.186062
0.194418
0.221892
0.289845
0.101941
0.0248557
-0.0187102
-0.0830888
-0.0517535
-0.085631
-0.0348992
-0.0556769
-0.0849524
-0.106307
-0.121022
-0.130373
-0.136254
-0.145963
-0.128822
-0.150906
-0.0794556
-0.1063
-0.0566563
-0.084212
-0.0903309
-0.0959293
-0.0946242
-0.089586
-0.0832876
-0.0756275
-0.0676076
-0.0601307
-0.0541622
-0.0495667
-0.045408
-0.0415499
-0.0379145
-0.0345435
-0.0315702
-0.0289114
-0.0264425
-0.0241068
-0.0218818
-0.0197582
-0.0177317
-0.0157987
-0.0139545
-0.0121942
-0.0105124
-0.00890434
-0.00736566
-0.00589225
-0.00448289
-0.00313637
-0.00183548
-0.000582652
3.17735e-05
0.000328763
0.000807701
0.00130127
0.00179225
0.00230031
0.00282388
0.0033588
0.0039032
0.00445409
0.00500638
0.00555274
0.00608362
0.00658764
0.00705243
0.00746505
0.00781157
0.00807599
0.00823957
0.00828238
0.00819196
0.00798508
0.00773276
0.00757863
0.00779443
0.00870121
0.0104172
0.0127178
0.0147
0.0139826
0.0308878
0.0649413
0.0989447
0.237362
0.27706
0.262157
0.29183
0.171631
0.127114
0.103636
0.0928113
0.0973972
0.119524
0.139617
0.248116
0.273119
0.298409
0.350923
0.178552
0.0937015
0.0396198
-0.0242845
-0.0173541
-0.0368043
-0.0042094
-0.020447
-0.052351
-0.0746838
-0.0897357
-0.100055
-0.105825
-0.114256
-0.0993705
-0.1122
-0.0607551
-0.0706636
-0.0400835
-0.0594406
-0.0689305
-0.0755076
-0.0753601
-0.0724525
-0.0681951
-0.0625184
-0.0564192
-0.0507009
-0.0461662
-0.0426877
-0.0395043
-0.0364059
-0.0332898
-0.0302666
-0.0275359
-0.0250816
-0.0228194
-0.0207046
-0.018717
-0.0168453
-0.0150807
-0.0134139
-0.0118356
-0.0103367
-0.00890932
-0.00754702
-0.00624439
-0.00499695
-0.00380329
-0.00266217
-0.00155798
-0.000492222
0.00012158
0.000621318
0.00131973
0.00204311
0.00277434
0.00353523
0.00432591
0.00514409
0.00599032
0.00686436
0.00776442
0.0086872
0.00962809
0.0105821
0.0115451
0.012515
0.0134917
0.0144766
0.0154727
0.0164861
0.0175356
0.018673
0.020005
0.021699
0.0240008
0.0271882
0.0312433
0.0355101
0.0394396
0.0415179
0.0560985
0.0934547
0.139047
0.271735
0.317079
0.310646
0.331809
0.221972
0.17541
0.149537
0.139438
0.14537
0.169977
0.196795
0.291276
0.32206
0.349753
0.395633
0.239038
0.149558
0.0898285
0.0252582
0.015792
0.00236106
0.0226293
0.00916569
-0.0232331
-0.0454685
-0.0606129
-0.0716004
-0.0774152
-0.085018
-0.0728863
-0.0802591
-0.0433778
-0.0450029
-0.0266453
-0.0401794
-0.0507396
-0.0575039
-0.058249
-0.0570095
-0.0543515
-0.0503098
-0.0458296
-0.0416143
-0.0383288
-0.0358202
-0.0334489
-0.0309967
-0.0283786
-0.025758
-0.0233634
-0.0212097
-0.0192334
-0.0173976
-0.0156858
-0.0140877
-0.0125931
-0.0111907
-0.0098692
-0.00861832
-0.00742938
-0.0062955
-0.00521125
-0.00417231
-0.00317752
-0.00222589
-0.00130218
-0.000407812
0.000213655
0.000921848
0.00184032
0.0027943
0.00376757
0.00478379
0.00584458
0.00694937
0.00810095
0.00930179
0.0105533
0.0118558
0.0132093
0.014614
0.0160729
0.0175921
0.0191828
0.0208599
0.0226418
0.0245516
0.026627
0.0289368
0.0315999
0.034785
0.0387073
0.0435969
0.0493742
0.0551869
0.0606741
0.064807
0.0776384
0.115923
0.167844
0.290378
0.335994
0.338311
0.357257
0.259182
0.213979
0.187587
0.179053
0.18531
0.210405
0.239743
0.319345
0.350152
0.38151
0.425372
0.285069
0.194992
0.131123
0.0668521
0.0466196
0.0349314
0.0461763
0.0340903
0.00260609
-0.0184726
-0.0335517
-0.0449902
-0.050992
-0.058213
-0.0490354
-0.0537327
-0.0276174
-0.0256796
-0.0155182
-0.0250593
-0.0352219
-0.0414989
-0.0428818
-0.0429477
-0.0415883
-0.0389496
-0.035878
-0.0329689
-0.030762
-0.0290841
-0.0274099
-0.0255356
-0.0233948
-0.0211877
-0.0191593
-0.0173431
-0.0156873
-0.0141584
-0.0127413
-0.0114269
-0.0102051
-0.00906459
-0.00799384
-0.00698267
-0.0060226
-0.00510705
-0.00423088
-0.00339015
-0.00258426
-0.0018126
-0.00105949
-0.000326895
0.00030227
0.00121925
0.00235621
0.00353967
0.00475409
0.00602439
0.00735355
0.00874268
0.0101967
0.0117208
0.0133192
0.0149957
0.016754
0.0185988
0.0205382
0.0225849
0.0247578
0.0270822
0.0295874
0.0323075
0.0352902
0.0386119
0.0423936
0.046799
0.0520147
0.058214
0.0652665
0.0722808
0.07888
0.0844174
0.0960716
0.133984
0.188888
0.298748
0.341326
0.350782
0.369835
0.285229
0.243815
0.21826
0.21162
0.21765
0.242008
0.271316
0.335929
0.363395
0.39876
0.4401
0.320567
0.229523
0.163984
0.101321
0.0746293
0.062987
0.0672108
0.0553102
0.0254738
0.00645959
-0.00852644
-0.0202121
-0.0264981
-0.0337097
-0.0274821
-0.0314165
-0.0132862
-0.0100814
-0.00551784
-0.0126295
-0.0217794
-0.0271828
-0.0290395
-0.0301272
-0.0298462
-0.0284284
-0.0265787
-0.024782
-0.0234771
-0.0225054
-0.0214608
-0.0201426
-0.018476
-0.0166818
-0.0150219
-0.0135479
-0.012217
-0.0109973
-0.00987526
-0.00884274
-0.0078903
-0.00700679
-0.00618108
-0.00540327
-0.00466532
-0.0039611
-0.00328595
-0.00263644
-0.0020127
-0.0014146
-0.000825551
-0.000248467
0.000382387
0.0015042
0.00285603
0.0042652
0.00571629
0.00723521
0.00882631
0.0104924
0.0122405
0.0140781
0.0160123
0.0180497
0.020197
0.0224625
0.0248578
0.0274003
0.0301146
0.0330328
0.036192
0.0396348
0.0434137
0.0476055
0.0523276
0.0577324
0.063977
0.0711838
0.0791741
0.0870659
0.0944759
0.101022
0.112165
0.149224
0.204225
0.300319
0.338346
0.352988
0.371996
0.301408
0.266217
0.242467
0.237597
0.242981
0.266295
0.293891
0.344218
0.366733
0.405831
0.444483
0.340064
0.25313
0.189487
0.129516
0.0995904
0.0877134
0.0861582
0.0737371
0.0458824
0.0295332
0.0145673
0.0028396
-0.00377936
-0.0112243
-0.00778248
-0.0122421
-0.000190591
0.00337216
0.0041677
-0.00167269
-0.0096811
-0.0141387
-0.0164464
-0.0183627
-0.0190061
-0.0186714
-0.0179034
-0.0170737
-0.0165282
-0.0161554
-0.0156776
-0.0148848
-0.0136724
-0.0122733
-0.0109712
-0.00983496
-0.00882681
-0.00791477
-0.0070859
-0.00633272
-0.00564607
-0.00501501
-0.00442877
-0.00387799
-0.0033553
-0.00285533
-0.00237415
-0.00190903
-0.00146093
-0.00103028
-0.000599553
-0.000172662
0.000450557
0.00177043
0.00333072
0.00495808
0.00663719
0.00839534
0.0102382
0.01217
0.0141996
0.0163366
0.0185903
0.0209699
0.0234848
0.0261457
0.0289666
0.0319676
0.0351771
0.0386316
0.0423741
0.0464529
0.050923
0.0558578
0.0613646
0.0675803
0.074636
0.0826064
0.0912836
0.0998124
0.107839
0.115243
0.126352
0.16229
0.215041
0.297804
0.331242
0.348356
0.366825
0.310665
0.280569
0.261208
0.257637
0.263064
0.283483
0.309507
0.347262
0.363735
0.403339
0.439801
0.348677
0.268454
0.208512
0.152286
0.12146
0.109529
0.103629
0.0903532
0.0648747
0.0504735
0.0358937
0.0243492
0.0173873
0.00958517
0.0104848
0.0046971
0.0119128
0.0156418
0.0141285
0.00881231
0.00177753
-0.00192386
-0.00476549
-0.00740674
-0.00889698
-0.0095693
-0.00980672
-0.00985426
-0.00995755
-0.0100869
-0.0101086
-0.00979565
-0.00900068
-0.0079668
-0.00700491
-0.00619914
-0.00551163
-0.00490714
-0.00437125
-0.00389593
-0.00347188
-0.00308844
-0.00273552
-0.00240476
-0.00208992
-0.00178678
-0.00149245
-0.00120504
-0.000926446
-0.000657661
-0.000380389
-9.94045e-05
0.000504327
0.00201298
0.00377176
0.00560619
0.00750154
0.00948666
0.0115683
0.0137517
0.0160472
0.0184659
0.0210191
0.0237181
0.0265745
0.0296012
0.0328139
0.0362342
0.0398915
0.0438244
0.0480799
0.0527105
0.0577723
0.0633336
0.0694895
0.0763577
0.0840486
0.092596
0.101779
0.110795
0.11932
0.127427
0.138716
0.173377
0.22279
0.293284
0.32235
0.339932
0.357426
0.313228
0.290327
0.274584
0.272158
0.277527
0.295851
0.320128
0.347555
0.357545
0.394952
0.427993
0.350066
0.277058
0.221883
0.170521
0.140478
0.129017
0.120008
0.105926
0.0828053
0.0696858
0.0557602
0.0445229
0.0372421
0.0290454
0.0276776
0.0201926
0.0234033
0.0274433
0.0248917
0.0196862
0.0131942
0.00983629
0.00631602
0.00297524
0.000646207
-0.00101207
-0.00222569
-0.00309146
-0.00374982
-0.00429595
-0.00475701
-0.00488045
-0.00446535
-0.00376669
-0.00312718
-0.00264335
-0.00227291
-0.0019743
-0.0017295
-0.00152885
-0.00136267
-0.00122084
-0.0010944
-0.000976469
-0.000862348
-0.000749245
-0.000635467
-0.000520098
-0.00040588
-0.000294349
-0.000166728
-2.83859e-05
0.000541224
0.00222654
0.00417036
0.0061982
0.00829617
0.0104941
0.0127995
0.0152182
0.0177612
0.020441
0.0232702
0.0262622
0.0294307
0.0327905
0.0363587
0.0401573
0.0442155
0.0485715
0.0532741
0.0583777
0.0639388
0.0700211
0.0767092
0.0841005
0.0922865
0.101272
0.110813
0.120196
0.129133
0.137775
0.149304
0.182523
0.228651
0.288087
0.312791
0.33032
0.346696
0.311615
0.295746
0.283065
0.281897
0.287293
0.303885
0.327037
0.346559
0.350333
0.382087
0.409929
0.344031
0.279246
0.230346
0.185011
0.157065
0.146471
0.135829
0.121021
0.100043
0.0875496
0.074457
0.0635752
0.0560178
0.0474576
0.0441267
0.0349517
0.034798
0.0393468
0.0368669
0.0315918
0.0250189
0.0214323
0.0170501
0.0129742
0.00976951
0.00711322
0.00492722
0.00328808
0.00215608
0.00126372
0.000409995
-0.000115416
-5.06564e-05
0.000334154
0.000663481
0.000832188
0.000889977
0.000886407
0.000844262
0.000775321
0.000689545
0.000596169
0.000502655
0.000414134
0.000333553
0.000262171
0.000200444
0.00014835
0.000102388
6.0582e-05
4.18821e-05
4.05293e-05
0.000559264
0.00240756
0.00452121
0.00672733
0.00901273
0.0114077
0.0139198
0.0165554
0.0193258
0.0222439
0.0253237
0.0285798
0.0320281
0.0356854
0.0395706
0.0437059
0.048119
0.0528463
0.0579357
0.0634421
0.0694213
0.0759335
0.0830519
0.0908592
0.099422
0.108729
0.118527
0.128168
0.137414
0.146449
0.158216
0.189907
0.233102
0.28313
0.303691
0.320718
0.336072
0.307655
0.297317
0.287413
0.287479
0.292946
0.307616
0.331126
0.344714
0.342736
0.365805
0.385264
0.330516
0.275519
0.234573
0.196418
0.171688
0.162369
0.151192
0.135981
0.116517
0.104754
0.0922562
0.0817026
0.0739281
0.0650949
0.0601485
0.049579
0.0466914
0.051793
0.0502188
0.0448277
0.0375181
0.0330728
0.0276291
0.0227453
0.0186092
0.0149281
0.0117616
0.00938565
0.00784887
0.00666707
0.00545704
0.00455561
0.00428798
0.00436655
0.00438723
0.00424161
0.00398828
0.00368493
0.00335919
0.00302489
0.00269201
0.00236859
0.00206033
0.0017704
0.00149994
0.00124862
0.00101567
0.000800172
0.000597956
0.000406669
0.000245124
0.000107271
0.000557089
0.00255463
0.00482251
0.00719068
0.00964669
0.012221
0.0149214
0.0177541
0.0207304
0.0238633
0.0271674
0.0306583
0.0343536
0.0382721
0.0424345
0.0468636
0.051586
0.0566356
0.062058
0.0679059
0.0742329
0.0810967
0.0885585
0.0966905
0.105537
0.115071
0.12504
0.134845
0.144297
0.153589
0.165523
0.195603
0.235485
0.279851
0.295814
0.311335
0.323434
0.30461
0.295989
0.288251
0.289295
0.294885
0.30908
0.330489
0.341282
0.333891
0.345844
0.355024
0.310767
0.266896
0.235305
0.205365
0.184778
0.177011
0.166161
0.150969
0.132554
0.121345
0.109306
0.0990664
0.0911551
0.0821865
0.0760201
0.0645411
0.0596127
0.0651333
0.0648501
0.0593174
0.0507603
0.0448816
0.0381906
0.0324167
0.0272948
0.0225612
0.0184049
0.0153242
0.0134392
0.0120144
0.0104794
0.00922001
0.00862204
0.00838303
0.00808116
0.00761147
0.00704153
0.00643581
0.00582604
0.00522756
0.00464994
0.00409966
0.00358032
0.00309294
0.00263665
0.0022095
0.00180943
0.00143459
0.00108017
0.00074346
0.000442757
0.000171784
0.000533167
0.0026657
0.00507151
0.00758433
0.0101927
0.0129274
0.0157963
0.0188053
0.0219656
0.0252898
0.0287925
0.0324898
0.0364003
0.0405446
0.0449451
0.0496258
0.0546123
0.0599366
0.0656413
0.0717752
0.0783891
0.0855368
0.0932698
0.101649
0.110704
0.120393
0.130463
0.140356
0.149916
0.159325
0.171328
0.200034
0.238933
0.275511
0.289076
0.302433
0.312069
0.298662
0.291739
0.285941
0.287567
0.292922
0.306216
0.32654
0.335268
0.322514
0.321936
0.320517
0.286155
0.254512
0.233368
0.212465
0.196758
0.19065
0.180653
0.16585
0.148234
0.137345
0.125702
0.115787
0.107838
0.0988999
0.0919455
0.0801533
0.0739512
0.0795958
0.0804602
0.0747005
0.0646453
0.0569028
0.0488231
0.0420905
0.0359453
0.0301434
0.0249971
0.0212428
0.0190533
0.0174233
0.0155926
0.0139846
0.013038
0.0124468
0.0117895
0.0109725
0.0100711
0.00915388
0.00825502
0.00739032
0.00656814
0.00579272
0.00506506
0.00438361
0.00374525
0.00314619
0.00258298
0.00205273
0.00155003
0.00107176
0.000635288
0.0002342
0.000485769
0.00273762
0.00526398
0.00790322
0.0106452
0.0135206
0.0165374
0.0197013
0.0230231
0.026515
0.0301909
0.0340673
0.038163
0.0424999
0.0471016
0.0519931
0.0571998
0.0627526
0.068691
0.0750596
0.0819063
0.089279
0.0972229
0.105787
0.114989
0.124776
0.134895
0.144819
0.154403
0.1638
0.175761
0.203108
0.240697
0.2728
0.283416
0.29334
0.300384
0.290684
0.285106
0.280836
0.282512
0.2871
0.299024
0.318325
0.325385
0.307542
0.294318
0.283123
0.258112
0.239562
0.229622
0.218286
0.208004
0.203507
0.194474
0.180284
0.163448
0.152756
0.141501
0.131944
0.124067
0.115334
0.10803
0.0965578
0.0898806
0.0952338
0.096648
0.0905009
0.0789729
0.0691231
0.059578
0.0518463
0.0446655
0.0378003
0.031682
0.0272862
0.0248216
0.0230144
0.0209149
0.0189578
0.0176228
0.0166209
0.0155561
0.0143548
0.0130978
0.011854
0.0106571
0.00952174
0.00845365
0.0074539
0.00652008
0.0056475
0.00483039
0.00406291
0.00334002
0.00265774
0.00201004
0.00139344
0.0008238
0.000294779
0.000413697
0.0027686
0.00539813
0.00814584
0.0110026
0.0139989
0.0171426
0.0204394
0.0238995
0.0275348
0.0313588
0.0353873
0.0396396
0.0441377
0.0489062
0.0539706
0.0593566
0.0650941
0.0712201
0.0777756
0.0848056
0.0923515
0.100454
0.109148
0.118447
0.128288
0.138419
0.148335
0.157887
0.167192
0.179071
0.205203
0.241394
0.270634
0.278141
0.283609
0.287785
0.281185
0.276791
0.273367
0.274435
0.277559
0.287461
0.305221
0.310812
0.288558
0.263905
0.244665
0.228578
0.22345
0.224953
0.223322
0.218779
0.215729
0.207419
0.193914
0.178026
0.167558
0.156736
0.147587
0.139891
0.131522
0.124269
0.113698
0.107273
0.111891
0.113022
0.106304
0.0935259
0.0815034
0.0704836
0.0617445
0.0535433
0.045646
0.038596
0.0335934
0.0308663
0.0288962
0.026549
0.0242324
0.0224505
0.0209599
0.0194202
0.0177866
0.0161427
0.0145526
0.013046
0.0116336
0.010317
0.00909261
0.00795379
0.00689204
0.00589854
0.00496511
0.00408504
0.00325316
0.00246289
0.00171036
0.00100933
0.000353741
0.00031643
0.00275895
0.00547561
0.00831481
0.0112682
0.0143657
0.0176152
0.0210223
0.0245971
0.0283511
0.0322973
0.0364514
0.0408322
0.0454618
0.0503651
0.0555676
0.0610951
0.0669769
0.0732473
0.0799444
0.087111
0.0947829
0.102995
0.111774
0.121125
0.130983
0.141096
0.150983
0.160483
0.169691
0.181548
0.206651
0.241217
0.268033
0.272511
0.273033
0.274499
0.270788
0.26744
0.264066
0.263789
0.264624
0.271667
0.287208
0.291548
0.266077
0.232429
0.207695
0.199996
0.207768
0.220259
0.227989
0.229194
0.227364
0.219359
0.206513
0.191835
0.181739
0.17143
0.162743
0.155325
0.147446
0.140553
0.131314
0.125679
0.1292
0.129286
0.121872
0.108139
0.0940058
0.0815558
0.0718282
0.0626467
0.0537742
0.0458561
0.0402832
0.0372882
0.0351506
0.0325662
0.0298703
0.0275715
0.0255029
0.0234118
0.0212916
0.0192249
0.0172659
0.0154358
0.0137385
0.0121694
0.0107188
0.00937478
0.00812447
0.00695564
0.00585759
0.00482178
0.00384181
0.0029106
0.00202392
0.00119262
0.000411223
0.000193906
0.00270967
0.00549876
0.00841348
0.0114457
0.0146252
0.0179596
0.0214547
0.0251204
0.0289682
0.0330111
0.0372644
0.0417466
0.0464793
0.0514872
0.0567954
0.0624294
0.0684178
0.0747922
0.0815887
0.0888474
0.0966007
0.104878
0.113697
0.12306
0.1329
0.142971
0.152817
0.162278
0.171438
0.183385
0.207566
0.240033
0.264279
0.266077
0.262118
0.261289
0.260212
0.257619
0.253561
0.251226
0.248942
0.252278
0.265068
0.268487
0.241538
0.202197
0.174793
0.174846
0.194072
0.21637
0.232592
0.239208
0.238364
0.23027
0.218048
0.204837
0.195313
0.185603
0.177434
0.170371
0.163056
0.156707
0.148991
0.144403
0.146645
0.145269
0.137171
0.122729
0.106607
0.0928022
0.082124
0.07202
0.0622502
0.0535443
0.0474371
0.0441504
0.0418195
0.0389932
0.0358912
0.0330033
0.030267
0.0275472
0.0248848
0.0223582
0.0200064
0.0178379
0.0158467
0.0140197
0.01234
0.0107893
0.00934998
0.00800592
0.00674373
0.00555294
0.00442579
0.00335476
0.00233524
0.00137435
0.000467411
4.64264e-05
0.0026216
0.00546864
0.00844314
0.0115371
0.0147798
0.018179
0.0217404
0.0254743
0.0293921
0.0335069
0.0378338
0.042391
0.0471995
0.0522831
0.0576665
0.0633746
0.0694346
0.0758757
0.0827317
0.0900404
0.0978324
0.106132
0.114951
0.124285
0.134071
0.144074
0.153869
0.163315
0.172502
0.184626
0.207866
0.237674
0.258995
0.258811
0.251689
0.249354
0.250347
0.247945
0.24256
0.23763
0.231527
0.230471
0.240139
0.243267
0.217018
0.175685
0.148348
0.155212
0.183672
0.213966
0.237314
0.248657
0.24861
0.240237
0.228672
0.217103
0.208337
0.199285
0.191684
0.185026
0.178294
0.172532
0.166261
0.162675
0.163674
0.160905
0.152306
0.137283
0.119296
0.104221
0.09264
0.0816806
0.0711025
0.0616943
0.0550844
0.051467
0.0488967
0.0458088
0.0422703
0.038728
0.0352443
0.0318262
0.0285699
0.0255483
0.0227807
0.0202589
0.0179644
0.0158737
0.0139614
0.0122022
0.0105728
0.00905318
0.00762698
0.00628159
0.00500776
0.00379755
0.00264595
0.00155554
0.000522693
-0.000125564
0.00249511
0.00538506
0.00840335
0.0115422
0.0148303
0.0182753
0.021883
0.0256638
0.0296295
0.033793
0.0381696
0.0427767
0.0476347
0.0527667
0.0581966
0.0639483
0.0700473
0.0765202
0.0833985
0.0907174
0.0985068
0.106787
0.115564
0.124831
0.134527
0.144432
0.154162
0.163612
0.172878
0.185202
0.207397
0.234115
0.252249
0.251101
0.242588
0.239815
0.242035
0.23909
0.231882
0.224008
0.213658
0.207923
0.214407
0.218018
0.194773
0.155058
0.130081
0.142476
0.177466
0.213498
0.242228
0.257329
0.257974
0.249424
0.238663
0.228782
0.220896
0.212519
0.205528
0.199298
0.193118
0.187869
0.182724
0.179837
0.179818
0.176194
0.167416
0.151817
0.132063
0.115799
0.103364
0.0916158
0.080318
0.0702901
0.0632016
0.0592016
0.0563297
0.0529489
0.0489452
0.0446984
0.0404061
0.0362343
0.0323414
0.0287947
0.025591
0.0227029
0.0200966
0.0177369
0.0155887
0.0136191
0.0117988
0.0101032
0.00851279
0.0070127
0.00559207
0.00424252
0.00295868
0.00173786
0.000577746
-0.00032143
0.00233064
0.00524793
0.00829385
0.011461
0.0147773
0.0182506
0.0218864
0.0256953
0.0296889
0.0338804
0.0382845
0.0429182
0.0478011
0.0529552
0.0584038
0.06417
0.0702771
0.0767492
0.0836149
0.0909067
0.098654
0.106874
0.11557
0.12473
0.134298
0.144074
0.153716
0.163171
0.17253
0.185002
0.206043
0.229581
0.244702
0.243379
0.235307
0.233287
0.235831
0.231616
0.222254
0.211512
0.196719
0.186592
0.190181
0.195023
0.176792
0.141765
0.120786
0.137186
0.175843
0.21517
0.247338
0.265055
0.266377
0.258041
0.248324
0.240045
0.233007
0.225438
0.219018
0.21321
0.207519
0.202631
0.198147
0.195502
0.194796
0.191146
0.182564
0.166321
0.144883
0.127506
0.114266
0.101787
0.0898624
0.0792684
0.0717142
0.067275
0.0640336
0.0603251
0.0558315
0.050849
0.0457112
0.0407494
0.0361895
0.032095
0.0284397
0.0251749
0.0222502
0.0196174
0.0172308
0.0150492
0.0130368
0.0111645
0.00940903
0.00775327
0.00618463
0.00469432
0.00327674
0.00192337
0.000633494
-0.000539819
0.00212988
0.00505882
0.00811646
0.0112959
0.0146244
0.0181097
0.0217573
0.0255773
0.0295813
0.0337819
0.0381935
0.0428322
0.0477166
0.0528679
0.0583086
0.064061
0.0701466
0.0765868
0.0834071
0.090637
0.0983047
0.106426
0.115002
0.124017
0.13342
0.143032
0.152559
0.162004
0.171427
0.183943
0.203774
0.224359
0.236914
0.236067
0.230178
0.229656
0.231819
0.225798
0.214171
0.200469
0.182808
0.168518
0.169654
0.176331
0.164468
0.136327
0.120269
0.139064
0.178692
0.218962
0.25264
0.271797
0.273849
0.266293
0.257899
0.25105
0.244759
0.238103
0.232199
0.226799
0.221522
0.216827
0.212518
0.209638
0.208535
0.205769
0.197685
0.180727
0.157704
0.139302
0.125298
0.112147
0.0996324
0.0885862
0.0805074
0.0755979
0.0719194
0.0678411
0.0628362
0.0571091
0.0511156
0.045349
0.0401059
0.0354497
0.0313328
0.0276843
0.0244366
0.0215274
0.0189
0.0165045
0.0142983
0.0122471
0.0103245
0.00851085
0.00679158
0.00515769
0.00360343
0.00211414
0.000690886
-0.000778315
0.00189652
0.00482212
0.00787626
0.011053
0.0143787
0.0178609
0.0215051
0.0253209
0.0293192
0.0335119
0.0379127
0.0425366
0.0474011
0.0525262
0.0579337
0.0636452
0.0696808
0.0760596
0.0828035
0.0899388
0.0974917
0.105477
0.113895
0.122729
0.131932
0.141347
0.150728
0.160133
0.169571
0.182012
0.200656
0.218664
0.22924
0.229563
0.226721
0.228189
0.229521
0.221535
0.20795
0.192175
0.172265
0.155482
0.154763
0.163427
0.158432
0.138348
0.127474
0.147146
0.185483
0.224685
0.258163
0.277699
0.280557
0.274356
0.267519
0.261909
0.256326
0.25047
0.245111
0.240118
0.23519
0.230552
0.226039
0.22254
0.221057
0.220146
0.212593
0.194898
0.170455
0.151144
0.136425
0.122648
0.10961
0.0980923
0.0895214
0.0840126
0.0798844
0.0753948
0.0698701
0.0634129
0.0565796
0.0500152
0.0440875
0.0388648
0.0342812
0.0302452
0.0266709
0.023482
0.0206107
0.017998
0.0155947
0.013361
0.0112677
0.00929212
0.00741831
0.00563674
0.00394147
0.00231184
0.000750648
-0.00103386
0.0016354
0.00454413
0.00758091
0.0107411
0.0140503
0.0175156
0.0211422
0.0249394
0.0289171
0.0330864
0.0374597
0.0420511
0.0468765
0.0519543
0.0573054
0.0629507
0.0689092
0.0751984
0.0818368
0.0888471
0.0962528
0.104068
0.112293
0.120911
0.129879
0.139066
0.14827
0.157599
0.166994
0.179253
0.196786
0.212686
0.221826
0.223717
0.224216
0.227687
0.228033
0.218337
0.203516
0.186826
0.166179
0.148365
0.146681
0.157047
0.158568
0.1467
0.140751
0.160022
0.195393
0.232038
0.264001
0.283083
0.286791
0.282358
0.277195
0.272649
0.267739
0.262619
0.257816
0.25323
0.248608
0.243959
0.239057
0.234811
0.233589
0.233319
0.226958
0.208647
0.183071
0.162984
0.147586
0.133238
0.119699
0.107707
0.0986182
0.0925116
0.0878549
0.0829067
0.0768645
0.0697081
0.0620731
0.054738
0.0481375
0.0423509
0.0372995
0.0328748
0.02897
0.0254968
0.0223766
0.0195414
0.0169353
0.0145144
0.0122451
0.0101026
0.00806906
0.00613458
0.00429303
0.0025179
0.000813582
-0.00130318
0.00135156
0.0042317
0.00723915
0.0103709
0.0136509
0.0170864
0.0206823
0.0244473
0.0283907
0.0325222
0.0368531
0.0413962
0.0461654
0.0511776
0.0564519
0.0620084
0.0678656
0.0740392
0.0805454
0.087403
0.0946322
0.102246
0.110246
0.118616
0.127319
0.136246
0.145242
0.154453
0.163748
0.17574
0.192254
0.20652
0.214709
0.218074
0.221582
0.226687
0.226181
0.215476
0.200527
0.184286
0.164675
0.147579
0.14566
0.157145
0.164121
0.159808
0.158148
0.1761
0.207451
0.240689
0.270306
0.288393
0.292914
0.290384
0.28685
0.283247
0.279023
0.274622
0.270379
0.266207
0.261871
0.257215
0.251933
0.246911
0.24564
0.246196
0.24064
0.221857
0.1955
0.174766
0.158747
0.143866
0.129845
0.117382
0.107747
0.101014
0.0957539
0.0903389
0.0837729
0.075955
0.0675772
0.0595156
0.0522645
0.0459209
0.0403988
0.0355943
0.0313499
0.0275847
0.0242083
0.0211436
0.0183284
0.0157135
0.0132619
0.0109462
0.00874705
0.00665363
0.00465966
0.00273324
0.000880139
-0.00158296
0.00104999
0.0038916
0.00685965
0.00995257
0.0131925
0.0165864
0.0201393