/*--------------------------------*- C++ -*----------------------------------*\
  =========                 |
  \\      /  F ield         | OpenFOAM: The Open Source CFD Toolbox
   \\    /   O peration     | Website:  https://openfoam.org
    \\  /    A nd           | Version:  9
     \\/     M anipulation  |
\*---------------------------------------------------------------------------*/
FoamFile
{
    format      ascii;
    class       surfaceScalarField;
    location    "0.18";
    object      phi;
}
// * * * * * * * * * * * * * * * * * * * * * * * * * * * * * * * * * * * * * //

dimensions      [0 3 -1 0 0 0 0];

internalField   nonuniform List<scalar> 
39700
(
4.33695e-06
3.33084e-06
4.33695e-06
3.48643e-06
4.33695e-06
3.64995e-06
4.33698e-06
3.82096e-06
4.33703e-06
3.99955e-06
4.3371e-06
4.18583e-06
4.33718e-06
4.37998e-06
4.33728e-06
4.58218e-06
4.3374e-06
4.79264e-06
4.33753e-06
5.0116e-06
4.33768e-06
5.23928e-06
4.33786e-06
5.47591e-06
4.33805e-06
5.72169e-06
4.33827e-06
5.97679e-06
4.33852e-06
6.24135e-06
4.33882e-06
6.51545e-06
4.33915e-06
6.79912e-06
4.33955e-06
7.09236e-06
4.34001e-06
7.39513e-06
4.34056e-06
7.70748e-06
4.34123e-06
8.02973e-06
4.34212e-06
8.36352e-06
4.3436e-06
8.71474e-06
4.34731e-06
9.09868e-06
4.35873e-06
9.53515e-06
4.39299e-06
9.97838e-06
4.47615e-06
1.00729e-05
4.55887e-06
8.92934e-06
4.2925e-06
6.64886e-06
4.13938e-06
7.60628e-06
4.33652e-06
1.50399e-05
4.44435e-06
1.95741e-05
4.52812e-06
2.24508e-05
5.22592e-06
2.12187e-05
4.41789e-06
3.15091e-06
3.54567e-06
3.05726e-06
4.17676e-06
2.13531e-05
4.24912e-06
2.30794e-05
4.2887e-06
2.14302e-05
4.31933e-06
2.0524e-05
4.34359e-06
2.0207e-05
4.3768e-06
2.02583e-05
4.43091e-06
2.09494e-05
4.54832e-06
2.26304e-05
5.33094e-06
2.13807e-05
4.17547e-06
2.44794e-06
3.47894e-06
2.69548e-06
4.20571e-06
2.15412e-05
4.27679e-06
2.38341e-05
4.31138e-06
2.27567e-05
4.32386e-06
2.25375e-05
4.34662e-06
2.26848e-05
4.57156e-06
1.84694e-05
4.04968e-06
6.57885e-06
4.24851e-06
1.28056e-05
4.35279e-06
2.06733e-05
4.33157e-06
2.20658e-05
4.32568e-06
2.16808e-05
4.33119e-06
2.13611e-05
4.33826e-06
2.12333e-05
4.34593e-06
2.1263e-05
4.35232e-06
2.14637e-05
4.34332e-06
2.19427e-05
4.36133e-06
2.2301e-05
4.57443e-06
1.80311e-05
4.04361e-06
6.62705e-06
4.26229e-06
1.38156e-05
4.34586e-06
2.07755e-05
4.3234e-06
2.17454e-05
4.31706e-06
2.12336e-05
4.31867e-06
1.69791e-05
4.31993e-06
1.59333e-05
4.31876e-06
1.4984e-05
4.31478e-06
1.40802e-05
4.31178e-06
1.31227e-05
4.31639e-06
1.20105e-05
4.32647e-06
1.08625e-05
4.3356e-06
1.00873e-05
4.34332e-06
9.82548e-06
4.3446e-06
9.70386e-06
4.34029e-06
9.4407e-06
4.33521e-06
9.03676e-06
4.33164e-06
8.57635e-06
4.32958e-06
8.11126e-06
4.32854e-06
7.65875e-06
4.32819e-06
7.2225e-06
4.32839e-06
6.80372e-06
4.32901e-06
6.40404e-06
4.32994e-06
6.02575e-06
4.331e-06
5.67128e-06
4.33204e-06
5.34252e-06
4.33296e-06
5.0402e-06
4.3337e-06
4.7636e-06
4.33426e-06
4.5107e-06
4.33468e-06
4.27866e-06
4.33497e-06
4.06443e-06
4.33517e-06
3.86519e-06
4.33529e-06
3.6786e-06
4.33534e-06
3.50285e-06
3.33645e-06
4.33759e-06
3.33078e-06
4.33763e-06
3.48638e-06
4.33767e-06
3.64992e-06
4.33774e-06
3.82089e-06
4.33787e-06
3.99942e-06
4.33805e-06
4.18565e-06
4.33828e-06
4.37975e-06
4.33855e-06
4.5819e-06
4.33888e-06
4.79231e-06
4.33927e-06
5.01121e-06
4.33972e-06
5.23883e-06
4.34024e-06
5.47539e-06
4.34085e-06
5.72108e-06
4.34156e-06
5.97608e-06
4.34239e-06
6.24051e-06
4.34338e-06
6.51446e-06
4.34456e-06
6.79794e-06
4.34601e-06
7.09091e-06
4.34783e-06
7.39332e-06
4.35018e-06
7.70512e-06
4.35341e-06
8.0265e-06
4.35823e-06
8.3587e-06
4.36634e-06
8.70663e-06
4.38217e-06
9.08286e-06
4.41696e-06
9.50035e-06
4.49393e-06
9.90141e-06
4.62704e-06
9.9398e-06
4.67899e-06
8.87739e-06
4.30782e-06
7.02003e-06
4.05776e-06
7.85634e-06
4.3505e-06
1.47472e-05
4.59767e-06
1.93269e-05
4.83814e-06
2.22103e-05
5.54944e-06
2.05074e-05
4.31793e-06
4.38242e-06
3.10539e-06
4.2698e-06
3.87305e-06
2.05855e-05
4.1022e-06
2.28503e-05
4.2044e-06
2.1328e-05
4.28726e-06
2.04411e-05
4.36018e-06
2.01341e-05
4.45231e-06
2.01662e-05
4.58925e-06
2.08125e-05
4.88133e-06
2.23384e-05
5.70677e-06
2.05553e-05
4.19446e-06
3.96024e-06
3.0788e-06
3.81114e-06
3.94066e-06
2.06794e-05
4.17122e-06
2.36035e-05
4.25785e-06
2.26701e-05
4.30175e-06
2.24936e-05
4.41088e-06
2.25756e-05
4.66479e-06
1.82155e-05
3.86779e-06
7.37585e-06
4.08501e-06
1.25884e-05
4.32793e-06
2.04304e-05
4.32461e-06
2.20691e-05
4.31323e-06
2.16922e-05
4.32415e-06
2.13501e-05
4.34149e-06
2.1216e-05
4.35994e-06
2.12446e-05
4.37007e-06
2.14536e-05
4.35905e-06
2.19537e-05
4.44644e-06
2.22136e-05
4.67892e-06
1.77986e-05
3.85738e-06
7.44859e-06
4.10707e-06
1.35659e-05
4.31371e-06
2.05689e-05
4.30252e-06
2.17566e-05
4.28674e-06
2.12494e-05
4.28728e-06
1.69785e-05
4.28874e-06
1.59318e-05
4.28593e-06
1.49868e-05
4.27993e-06
1.40862e-05
4.27924e-06
1.31234e-05
4.29176e-06
1.1998e-05
4.30935e-06
1.08449e-05
4.3245e-06
1.00722e-05
4.33952e-06
9.81046e-06
4.34588e-06
9.69749e-06
4.34133e-06
9.44525e-06
4.33267e-06
9.04542e-06
4.32522e-06
8.58381e-06
4.32032e-06
8.11616e-06
4.31762e-06
7.66144e-06
4.31657e-06
7.22355e-06
4.31678e-06
6.8035e-06
4.31793e-06
6.40289e-06
4.31968e-06
6.024e-06
4.3217e-06
5.66926e-06
4.3237e-06
5.34051e-06
4.3255e-06
5.0384e-06
4.32702e-06
4.76209e-06
4.32823e-06
4.50949e-06
4.32917e-06
4.27772e-06
4.32988e-06
4.06373e-06
4.33037e-06
3.86469e-06
4.33067e-06
3.6783e-06
4.3308e-06
3.50272e-06
3.33644e-06
4.33791e-06
3.33072e-06
4.33798e-06
3.48631e-06
4.33807e-06
3.64983e-06
4.33821e-06
3.82075e-06
4.33842e-06
3.99922e-06
4.3387e-06
4.18537e-06
4.33907e-06
4.37938e-06
4.33952e-06
4.58145e-06
4.34005e-06
4.79177e-06
4.34069e-06
5.01058e-06
4.34144e-06
5.23808e-06
4.34231e-06
5.47451e-06
4.34335e-06
5.72005e-06
4.34457e-06
5.97486e-06
4.34602e-06
6.23906e-06
4.34777e-06
6.51271e-06
4.3499e-06
6.7958e-06
4.35255e-06
7.08826e-06
4.35594e-06
7.38993e-06
4.36042e-06
7.70064e-06
4.36662e-06
8.0203e-06
4.37569e-06
8.34962e-06
4.38999e-06
8.69234e-06
4.4147e-06
9.05814e-06
4.46181e-06
9.45324e-06
4.55312e-06
9.81011e-06
4.68824e-06
9.80468e-06
4.70691e-06
8.85871e-06
4.33975e-06
7.38719e-06
4.07487e-06
8.12123e-06
4.37424e-06
1.44478e-05
4.68992e-06
1.90113e-05
4.98761e-06
2.19126e-05
5.58274e-06
1.99123e-05
4.26512e-06
5.70004e-06
3.02253e-06
5.51239e-06
3.71608e-06
1.98919e-05
4.0075e-06
2.25589e-05
4.147e-06
2.11885e-05
4.26454e-06
2.03236e-05
4.3735e-06
2.00252e-05
4.50381e-06
2.00359e-05
4.6833e-06
2.0633e-05
5.0292e-06
2.19925e-05
5.74975e-06
1.98348e-05
4.27677e-06
5.43322e-06
3.0479e-06
5.04001e-06
3.81561e-06
1.99117e-05
4.11365e-06
2.33055e-05
4.22789e-06
2.25559e-05
4.28854e-06
2.24329e-05
4.43756e-06
2.24266e-05
4.65903e-06
1.7994e-05
3.81105e-06
8.22382e-06
3.98053e-06
1.24189e-05
4.28928e-06
2.01216e-05
4.31303e-06
2.20454e-05
4.30386e-06
2.17013e-05
4.31978e-06
2.13342e-05
4.34433e-06
2.11914e-05
4.37029e-06
2.12186e-05
4.38502e-06
2.14388e-05
4.37849e-06
2.19602e-05
4.49289e-06
2.20992e-05
4.68305e-06
1.76084e-05
3.79751e-06
8.33413e-06
3.99944e-06
1.3364e-05
4.26936e-06
2.02989e-05
4.27785e-06
2.17481e-05
4.25983e-06
2.12674e-05
4.25987e-06
1.69785e-05
4.26129e-06
1.59304e-05
4.25782e-06
1.49903e-05
4.25143e-06
1.40925e-05
4.2526e-06
1.31222e-05
4.26998e-06
1.19806e-05
4.29399e-06
1.08209e-05
4.31492e-06
1.00513e-05
4.33377e-06
9.79161e-06
4.34211e-06
9.68915e-06
4.33751e-06
9.44985e-06
4.32746e-06
9.05546e-06
4.31833e-06
8.59294e-06
4.31206e-06
8.12243e-06
4.30846e-06
7.66504e-06
4.30699e-06
7.22502e-06
4.30719e-06
6.80331e-06
4.30864e-06
6.40144e-06
4.31091e-06
6.02174e-06
4.31355e-06
5.66662e-06
4.3162e-06
5.33786e-06
4.31861e-06
5.03599e-06
4.32065e-06
4.76005e-06
4.3223e-06
4.50784e-06
4.32359e-06
4.27644e-06
4.32455e-06
4.06276e-06
4.32524e-06
3.86401e-06
4.32567e-06
3.67787e-06
4.32588e-06
3.50251e-06
3.33638e-06
4.33781e-06
3.33068e-06
4.33788e-06
3.48623e-06
4.33799e-06
3.64971e-06
4.33817e-06
3.82057e-06
4.33844e-06
3.99894e-06
4.33882e-06
4.18499e-06
4.3393e-06
4.3789e-06
4.3399e-06
4.58085e-06
4.34062e-06
4.79105e-06
4.34148e-06
5.00971e-06
4.3425e-06
5.23706e-06
4.34371e-06
5.4733e-06
4.34515e-06
5.71862e-06
4.34685e-06
5.97316e-06
4.34889e-06
6.23702e-06
4.35135e-06
6.51025e-06
4.35437e-06
6.79278e-06
4.35815e-06
7.08449e-06
4.36296e-06
7.38512e-06
4.36926e-06
7.69433e-06
4.37781e-06
8.01175e-06
4.38987e-06
8.33756e-06
4.40788e-06
8.67433e-06
4.43708e-06
9.02895e-06
4.48913e-06
9.40119e-06
4.58224e-06
9.717e-06
4.70223e-06
9.68469e-06
4.69149e-06
8.86945e-06
4.36288e-06
7.71581e-06
4.11479e-06
8.36931e-06
4.38573e-06
1.41768e-05
4.72554e-06
1.86715e-05
5.05419e-06
2.15839e-05
5.5183e-06
1.94482e-05
4.27164e-06
6.9467e-06
3.11247e-06
6.67155e-06
3.67802e-06
1.93264e-05
3.97677e-06
2.22601e-05
4.1224e-06
2.10428e-05
4.25266e-06
2.01933e-05
4.3788e-06
1.9899e-05
4.52368e-06
1.9891e-05
4.71278e-06
2.04439e-05
5.07284e-06
2.16324e-05
5.65061e-06
1.9257e-05
4.34632e-06
6.73752e-06
3.17902e-06
6.20731e-06
3.80958e-06
1.92811e-05
4.11695e-06
2.29981e-05
4.22733e-06
2.24455e-05
4.29034e-06
2.23699e-05
4.45413e-06
2.22628e-05
4.61393e-06
1.78342e-05
3.82228e-06
9.01546e-06
3.93848e-06
1.23027e-05
4.26573e-06
1.97944e-05
4.30602e-06
2.20051e-05
4.29783e-06
2.17095e-05
4.31693e-06
2.13151e-05
4.34663e-06
2.11617e-05
4.37744e-06
2.11878e-05
4.39434e-06
2.14219e-05
4.39154e-06
2.1963e-05
4.51645e-06
2.19743e-05
4.63872e-06
1.74862e-05
3.80415e-06
9.16869e-06
3.94958e-06
1.32186e-05
4.23848e-06
2.001e-05
4.25815e-06
2.17284e-05
4.23731e-06
2.12882e-05
4.23635e-06
1.69794e-05
4.2376e-06
1.59292e-05
4.23354e-06
1.49944e-05
4.22675e-06
1.40993e-05
4.22913e-06
1.31198e-05
4.24987e-06
1.19598e-05
4.27913e-06
1.07916e-05
4.30582e-06
1.00246e-05
4.32815e-06
9.76928e-06
4.33768e-06
9.67962e-06
4.33278e-06
9.45474e-06
4.32158e-06
9.06666e-06
4.31123e-06
8.6033e-06
4.30407e-06
8.12959e-06
4.29997e-06
7.66914e-06
4.29833e-06
7.22666e-06
4.29861e-06
6.80302e-06
4.30034e-06
6.39971e-06
4.303e-06
6.01907e-06
4.3061e-06
5.66352e-06
4.30921e-06
5.33475e-06
4.31204e-06
5.03316e-06
4.31446e-06
4.75763e-06
4.31643e-06
4.50587e-06
4.31797e-06
4.27489e-06
4.31913e-06
4.0616e-06
4.31996e-06
3.86318e-06
4.32049e-06
3.67734e-06
4.32077e-06
3.50222e-06
3.33629e-06
4.33687e-06
3.33066e-06
4.33694e-06
3.48616e-06
4.33707e-06
3.64959e-06
4.33728e-06
3.82036e-06
4.3376e-06
3.99862e-06
4.33805e-06
4.18455e-06
4.33863e-06
4.37832e-06
4.33935e-06
4.58013e-06
4.34022e-06
4.79017e-06
4.34128e-06
5.00866e-06
4.34253e-06
5.23581e-06
4.34402e-06
5.47181e-06
4.34579e-06
5.71685e-06
4.34789e-06
5.97105e-06
4.35042e-06
6.2345e-06
4.35348e-06
6.50719e-06
4.35722e-06
6.78904e-06
4.36186e-06
7.07984e-06
4.36773e-06
7.37925e-06
4.37531e-06
7.68675e-06
4.38538e-06
8.00169e-06
4.39917e-06
8.32377e-06
4.41903e-06
8.65447e-06
4.44993e-06
8.99805e-06
4.5023e-06
9.34882e-06
4.58882e-06
9.63048e-06
4.68518e-06
9.58833e-06
4.65419e-06
8.90044e-06
4.37719e-06
7.99281e-06
4.15889e-06
8.58762e-06
4.38481e-06
1.39509e-05
4.72339e-06
1.83329e-05
5.06065e-06
2.12467e-05
5.40671e-06
1.91021e-05
4.29981e-06
8.0536e-06
3.27348e-06
7.69788e-06
3.70734e-06
1.88925e-05
3.98683e-06
2.19806e-05
4.12225e-06
2.09074e-05
4.24956e-06
2.0066e-05
4.37794e-06
1.97706e-05
4.52315e-06
1.97458e-05
4.70944e-06
2.02576e-05
5.05671e-06
2.12851e-05
5.49513e-06
1.88186e-05
4.39084e-06
7.8418e-06
3.37347e-06
7.22468e-06
3.86991e-06
1.87847e-05
4.15659e-06
2.27114e-05
4.25041e-06
2.23517e-05
4.30812e-06
2.23122e-05
4.46996e-06
2.2101e-05
4.57052e-06
1.77337e-05
3.87957e-06
9.70642e-06
3.9402e-06
1.22421e-05
4.25614e-06
1.94785e-05
4.30652e-06
2.19547e-05
4.29695e-06
2.17191e-05
4.31619e-06
2.12959e-05
4.34865e-06
2.11293e-05
4.38173e-06
2.11547e-05
4.39901e-06
2.14047e-05
4.40088e-06
2.19612e-05
4.52212e-06
2.1853e-05
4.58404e-06
1.74242e-05
3.85352e-06
9.89922e-06
3.94108e-06
1.3131e-05
4.22085e-06
1.97303e-05
4.24633e-06
2.17029e-05
4.22103e-06
2.13135e-05
4.21737e-06
1.69831e-05
4.21759e-06
1.5929e-05
4.21281e-06
1.49991e-05
4.20592e-06
1.41062e-05
4.2097e-06
1.3116e-05
4.23293e-06
1.19366e-05
4.26575e-06
1.07588e-05
4.29651e-06
9.99381e-06
4.3214e-06
9.7444e-06
4.33218e-06
9.66883e-06
4.32753e-06
9.4594e-06
4.31577e-06
9.07841e-06
4.30461e-06
8.61446e-06
4.29684e-06
8.13736e-06
4.29243e-06
7.67355e-06
4.29073e-06
7.22836e-06
4.29114e-06
6.80261e-06
4.2931e-06
6.39775e-06
4.29604e-06
6.01613e-06
4.29943e-06
5.66013e-06
4.30283e-06
5.33136e-06
4.30593e-06
5.03006e-06
4.30858e-06
4.75497e-06
4.31076e-06
4.50369e-06
4.31248e-06
4.27318e-06
4.31378e-06
4.0603e-06
4.31471e-06
3.86225e-06
4.31532e-06
3.67673e-06
4.31566e-06
3.50188e-06
3.33617e-06
4.33477e-06
3.33063e-06
4.33485e-06
3.48608e-06
4.335e-06
3.64944e-06
4.33524e-06
3.82011e-06
4.33561e-06
3.99826e-06
4.33611e-06
4.18404e-06
4.33677e-06
4.37767e-06
4.33759e-06
4.57931e-06
4.33858e-06
4.78918e-06
4.33978e-06
5.00746e-06
4.34121e-06
5.23438e-06
4.34291e-06
5.47011e-06
4.34493e-06
5.71483e-06
4.34733e-06
5.96864e-06
4.35021e-06
6.23162e-06
4.35369e-06
6.50372e-06
4.35792e-06
6.78481e-06
4.36314e-06
7.07463e-06
4.36967e-06
7.37272e-06
4.37799e-06
7.67842e-06
4.38884e-06
7.99085e-06
4.40336e-06
8.30924e-06
4.42368e-06
8.63415e-06
4.45419e-06
8.96754e-06
4.50341e-06
9.2996e-06
4.57872e-06
9.55517e-06
4.65184e-06
9.51521e-06
4.61118e-06
8.9411e-06
4.38118e-06
8.22281e-06
4.19417e-06
8.77462e-06
4.37381e-06
1.37713e-05
4.69479e-06
1.80119e-05
5.02201e-06
2.09194e-05
5.28496e-06
1.88392e-05
4.32222e-06
9.01635e-06
3.42721e-06
8.59288e-06
3.76325e-06
1.85565e-05
4.01572e-06
2.17281e-05
4.13643e-06
2.07867e-05
4.25231e-06
1.99502e-05
4.37339e-06
1.96496e-05
4.51091e-06
1.96083e-05
4.69054e-06
2.0078e-05
5.01297e-06
2.09627e-05
5.34963e-06
1.84819e-05
4.41732e-06
8.77412e-06
3.55412e-06
8.08787e-06
3.95691e-06
1.83819e-05
4.21435e-06
2.2454e-05
4.29118e-06
2.22748e-05
4.34397e-06
2.22594e-05
4.49053e-06
2.19544e-05
4.54648e-06
1.76777e-05
3.95865e-06
1.02942e-05
3.9689e-06
1.22318e-05
4.25541e-06
1.91919e-05
4.3115e-06
2.18986e-05
4.30026e-06
2.17303e-05
4.31759e-06
2.12786e-05
4.35077e-06
2.10961e-05
4.38423e-06
2.11213e-05
4.40119e-06
2.13877e-05
4.40824e-06
2.19541e-05
4.51798e-06
2.17433e-05
4.53894e-06
1.74033e-05
3.92094e-06
1.05172e-05
3.95806e-06
1.30939e-05
4.21135e-06
1.9477e-05
4.23937e-06
2.16749e-05
4.20993e-06
2.1343e-05
4.2027e-06
1.69903e-05
4.20126e-06
1.59304e-05
4.19569e-06
1.50047e-05
4.18889e-06
1.4113e-05
4.19392e-06
1.3111e-05
4.21897e-06
1.19116e-05
4.25427e-06
1.07235e-05
4.28781e-06
9.96027e-06
4.31425e-06
9.71796e-06
4.32587e-06
9.65721e-06
4.3217e-06
9.46357e-06
4.3099e-06
9.0902e-06
4.29841e-06
8.62596e-06
4.29033e-06
8.14543e-06
4.28579e-06
7.67809e-06
4.28412e-06
7.23003e-06
4.28466e-06
6.80207e-06
4.28681e-06
6.39561e-06
4.28996e-06
6.01298e-06
4.29355e-06
5.65654e-06
4.29714e-06
5.32778e-06
4.30042e-06
5.02678e-06
4.30323e-06
4.75216e-06
4.30554e-06
4.50138e-06
4.30738e-06
4.27135e-06
4.30877e-06
4.05891e-06
4.30977e-06
3.86125e-06
4.31044e-06
3.67606e-06
4.31083e-06
3.50149e-06
3.33604e-06
4.33136e-06
3.3306e-06
4.33146e-06
3.48598e-06
4.33164e-06
3.64926e-06
4.33192e-06
3.81983e-06
4.33233e-06
3.99785e-06
4.33288e-06
4.18349e-06
4.33359e-06
4.37695e-06
4.33448e-06
4.57843e-06
4.33555e-06
4.7881e-06
4.33685e-06
5.00617e-06
4.3384e-06
5.23283e-06
4.34023e-06
5.46828e-06
4.34241e-06
5.71265e-06
4.345e-06
5.96605e-06
4.34809e-06
6.22853e-06
4.3518e-06
6.50001e-06
4.3563e-06
6.78032e-06
4.3618e-06
7.06913e-06
4.36861e-06
7.3659e-06
4.37719e-06
7.66985e-06
4.38818e-06
7.97986e-06
4.40259e-06
8.29483e-06
4.42223e-06
8.61452e-06
4.45079e-06
8.93898e-06
4.49496e-06
9.25543e-06
4.55836e-06
9.49177e-06
4.61284e-06
9.46073e-06
4.56906e-06
8.98488e-06
4.37634e-06
8.41553e-06
4.21474e-06
8.93622e-06
4.35198e-06
1.3634e-05
4.64486e-06
1.7719e-05
4.95444e-06
2.06099e-05
5.1658e-06
1.86278e-05
4.32683e-06
9.85531e-06
3.54708e-06
9.37263e-06
3.82268e-06
1.82809e-05
4.05335e-06
2.14975e-05
4.1594e-06
2.06806e-05
4.25886e-06
1.98507e-05
4.36635e-06
1.95421e-05
4.49034e-06
1.94843e-05
4.66124e-06
1.99071e-05
4.96268e-06
2.06613e-05
5.23675e-06
1.82079e-05
4.43339e-06
9.57747e-06
3.6999e-06
8.82136e-06
4.047e-06
1.80348e-05
4.28492e-06
2.22161e-05
4.34495e-06
2.22148e-05
4.39329e-06
2.22111e-05
4.51672e-06
2.1831e-05
4.54155e-06
1.76529e-05
4.04239e-06
1.07934e-05
4.01023e-06
1.2264e-05
4.2593e-06
1.89429e-05
4.31775e-06
2.18402e-05
4.30564e-06
2.17424e-05
4.32049e-06
2.12637e-05
4.35325e-06
2.10633e-05
4.38606e-06
2.10885e-05
4.40223e-06
2.13715e-05
4.4131e-06
2.19432e-05
4.50885e-06
2.16476e-05
4.50707e-06
1.7405e-05
3.99027e-06
1.1034e-05
3.98678e-06
1.30974e-05
4.20573e-06
1.9258e-05
4.23403e-06
2.16466e-05
4.20183e-06
2.13752e-05
4.19127e-06
1.70009e-05
4.18802e-06
1.59336e-05
4.18157e-06
1.50112e-05
4.17472e-06
1.41199e-05
4.18069e-06
1.3105e-05
4.20735e-06
1.18849e-05
4.24491e-06
1.0686e-05
4.28056e-06
9.92461e-06
4.30774e-06
9.69078e-06
4.31954e-06
9.64542e-06
4.31558e-06
9.46753e-06
4.30387e-06
9.10191e-06
4.29229e-06
8.63754e-06
4.28413e-06
8.15359e-06
4.27961e-06
7.6826e-06
4.27807e-06
7.23157e-06
4.27881e-06
6.80134e-06
4.28118e-06
6.39324e-06
4.28456e-06
6.0096e-06
4.28836e-06
5.65273e-06
4.29214e-06
5.324e-06
4.29558e-06
5.02334e-06
4.29853e-06
4.74921e-06
4.30095e-06
4.49896e-06
4.30287e-06
4.26943e-06
4.30433e-06
4.05744e-06
4.30539e-06
3.86019e-06
4.30611e-06
3.67534e-06
4.30653e-06
3.50107e-06
3.33589e-06
4.32667e-06
3.33055e-06
4.3268e-06
3.48586e-06
4.327e-06
3.64905e-06
4.32732e-06
3.81952e-06
4.32775e-06
3.99741e-06
4.32834e-06
4.1829e-06
4.32909e-06
4.37621e-06
4.33002e-06
4.5775e-06
4.33114e-06
4.78697e-06
4.33249e-06
5.00482e-06
4.3341e-06
5.23123e-06
4.336e-06
5.46638e-06
4.33825e-06
5.7104e-06
4.34091e-06
5.96339e-06
4.34408e-06
6.22536e-06
4.34786e-06
6.49622e-06
4.35241e-06
6.77577e-06
4.35793e-06
7.06361e-06
4.3647e-06
7.35913e-06
4.37311e-06
7.66143e-06
4.38372e-06
7.96925e-06
4.39737e-06
8.28118e-06
4.41555e-06
8.59633e-06
4.44135e-06
8.91318e-06
4.47997e-06
9.21681e-06
4.53257e-06
9.43917e-06
4.57276e-06
9.42055e-06
4.52843e-06
9.02922e-06
4.36384e-06
8.58011e-06
4.2213e-06
9.07876e-06
4.32003e-06
1.35353e-05
4.57868e-06
1.74604e-05
4.87026e-06
2.03183e-05
5.05174e-06
1.84463e-05
4.32105e-06
1.0586e-05
3.64153e-06
1.00522e-05
3.88232e-06
1.80401e-05
4.09823e-06
2.12816e-05
4.18871e-06
2.05902e-05
4.26796e-06
1.97715e-05
4.35764e-06
1.94524e-05
4.46376e-06
1.93782e-05
4.6233e-06
1.97475e-05
4.91264e-06
2.03719e-05
5.15287e-06
1.79676e-05
4.45857e-06
1.02718e-05
3.82395e-06
9.45598e-06
4.13601e-06
1.77227e-05
4.3624e-06
2.19897e-05
4.40838e-06
2.21688e-05
4.44541e-06
2.2174e-05
4.54588e-06
2.17305e-05
4.54906e-06
1.76497e-05
4.12094e-06
1.12215e-05
4.05415e-06
1.23308e-05
4.26542e-06
1.87316e-05
4.32368e-06
2.17819e-05
4.31154e-06
2.17546e-05
4.32414e-06
2.12511e-05
4.35611e-06
2.10314e-05
4.38789e-06
2.10567e-05
4.40272e-06
2.13567e-05
4.41479e-06
2.19312e-05
4.49716e-06
2.15652e-05
4.48519e-06
1.7417e-05
4.05306e-06
1.14661e-05
4.01764e-06
1.31328e-05
4.20169e-06
1.9074e-05
4.22867e-06
2.16196e-05
4.19503e-06
2.14088e-05
4.18187e-06
1.7014e-05
4.17701e-06
1.59385e-05
4.16958e-06
1.50186e-05
4.16246e-06
1.4127e-05
4.16922e-06
1.30983e-05
4.19759e-06
1.18565e-05
4.23737e-06
1.06462e-05
4.2747e-06
9.88729e-06
4.30214e-06
9.66334e-06
4.31365e-06
9.63391e-06
4.30959e-06
9.4716e-06
4.29783e-06
9.11367e-06
4.28617e-06
8.6492e-06
4.278e-06
8.16176e-06
4.2736e-06
7.68701e-06
4.27227e-06
7.2329e-06
4.27329e-06
6.80032e-06
4.27596e-06
6.39057e-06
4.27963e-06
6.00593e-06
4.2837e-06
5.64866e-06
4.2877e-06
5.32e-06
4.29132e-06
5.01972e-06
4.29442e-06
4.74611e-06
4.29695e-06
4.49642e-06
4.29895e-06
4.26743e-06
4.30047e-06
4.05592e-06
4.30158e-06
3.85908e-06
4.30233e-06
3.67459e-06
4.30277e-06
3.50062e-06
3.33572e-06
4.32082e-06
3.3305e-06
4.32096e-06
3.48572e-06
4.32119e-06
3.64882e-06
4.32152e-06
3.81919e-06
4.32198e-06
3.99695e-06
4.32259e-06
4.1823e-06
4.32335e-06
4.37544e-06
4.32429e-06
4.57656e-06
4.32543e-06
4.78583e-06
4.32679e-06
5.00346e-06
4.3284e-06
5.22962e-06
4.3303e-06
5.46448e-06
4.33254e-06
5.70816e-06
4.33518e-06
5.96075e-06
4.3383e-06
6.22224e-06
4.34201e-06
6.49252e-06
4.34643e-06
6.77134e-06
4.35176e-06
7.05828e-06
4.35822e-06
7.35267e-06
4.36616e-06
7.6535e-06
4.37602e-06
7.95938e-06
4.3885e-06
8.2687e-06
4.40484e-06
8.57999e-06
4.42759e-06
8.89043e-06
4.46079e-06
9.18361e-06
4.50393e-06
9.39602e-06
4.53281e-06
9.39167e-06
4.4887e-06
9.07332e-06
4.34518e-06
8.72363e-06
4.21687e-06
9.20708e-06
4.28072e-06
1.34715e-05
4.50229e-06
1.72388e-05
4.77809e-06
2.00425e-05
4.94639e-06
1.8278e-05
4.31636e-06
1.1216e-05
3.72715e-06
1.06414e-05
3.94733e-06
1.78199e-05
4.15149e-06
2.10774e-05
4.22284e-06
2.05188e-05
4.27886e-06
1.97154e-05
4.34801e-06
1.93832e-05
4.43354e-06
1.92926e-05
4.57822e-06
1.96029e-05
4.86108e-06
2.00891e-05
5.08663e-06
1.77421e-05
4.4895e-06
1.08689e-05
3.94092e-06
1.00046e-05
4.2283e-06
1.74353e-05
4.4495e-06
2.17685e-05
4.48064e-06
2.21377e-05
4.49989e-06
2.21548e-05
4.5763e-06
2.16541e-05
4.56346e-06
1.76625e-05
4.19003e-06
1.1595e-05
4.09548e-06
1.24253e-05
4.27213e-06
1.8555e-05
4.32875e-06
2.17253e-05
4.31713e-06
2.17662e-05
4.32799e-06
2.12403e-05
4.3593e-06
2.10001e-05
4.39011e-06
2.10259e-05
4.40311e-06
2.13437e-05
4.41364e-06
2.19207e-05
4.48427e-06
2.14945e-05
4.46963e-06
1.74317e-05
4.10571e-06
1.18301e-05
4.0455e-06
1.3193e-05
4.19781e-06
1.89217e-05
4.22261e-06
2.15948e-05
4.18857e-06
2.14429e-05
4.17363e-06
1.7029e-05
4.16749e-06
1.59446e-05
4.15911e-06
1.5027e-05
4.15159e-06
1.41345e-05
4.15917e-06
1.30907e-05
4.18935e-06
1.18264e-05
4.23116e-06
1.06044e-05
4.26973e-06
9.84871e-06
4.2972e-06
9.63587e-06
4.30832e-06
9.62279e-06
4.30396e-06
9.47596e-06
4.29197e-06
9.12566e-06
4.28014e-06
8.66104e-06
4.27193e-06
8.16997e-06
4.26766e-06
7.69127e-06
4.26661e-06
7.23395e-06
4.26797e-06
6.79896e-06
4.27101e-06
6.38753e-06
4.27503e-06
6.00191e-06
4.27941e-06
5.64428e-06
4.28367e-06
5.31574e-06
4.2875e-06
5.01589e-06
4.29076e-06
4.74285e-06
4.29341e-06
4.49377e-06
4.29549e-06
4.26534e-06
4.29708e-06
4.05434e-06
4.29823e-06
3.85793e-06
4.29901e-06
3.67381e-06
4.29948e-06
3.50015e-06
3.33555e-06
4.31389e-06
3.33044e-06
4.31404e-06
3.48556e-06
4.31429e-06
3.64857e-06
4.31464e-06
3.81884e-06
4.31511e-06
3.99648e-06
4.31571e-06
4.1817e-06
4.31647e-06
4.37468e-06
4.3174e-06
4.57563e-06
4.31852e-06
4.78472e-06
4.31985e-06
5.00213e-06
4.32142e-06
5.22805e-06
4.32326e-06
5.46263e-06
4.32542e-06
5.706e-06
4.32796e-06
5.95822e-06
4.33093e-06
6.21926e-06
4.33444e-06
6.48901e-06
4.3386e-06
6.76718e-06
4.34356e-06
7.05332e-06
4.34953e-06
7.3467e-06
4.35677e-06
7.64626e-06
4.36565e-06
7.9505e-06
4.37674e-06
8.25761e-06
4.39106e-06
8.56568e-06
4.41071e-06
8.87077e-06
4.43877e-06
9.15555e-06
4.47357e-06
9.36122e-06
4.49319e-06
9.37206e-06
4.44973e-06
9.11677e-06
4.32389e-06
8.84947e-06
4.20433e-06
9.32663e-06
4.23674e-06
1.3439e-05
4.42157e-06
1.7054e-05
4.68513e-06
1.97789e-05
4.85353e-06
1.81096e-05
4.31986e-06
1.17497e-05
3.81372e-06
1.11475e-05
4.02058e-06
1.7613e-05
4.21245e-06
2.08855e-05
4.25999e-06
2.04713e-05
4.2908e-06
1.96846e-05
4.33765e-06
1.93364e-05
4.40175e-06
1.92286e-05
4.52897e-06
1.94756e-05
4.8073e-06
1.98107e-05
5.03212e-06
1.75173e-05
4.52777e-06
1.13733e-05
4.05906e-06
1.04733e-05
4.32852e-06
1.71659e-05
4.54786e-06
2.15492e-05
4.55894e-06
2.21266e-05
4.55468e-06
2.21591e-05
4.60673e-06
2.16021e-05
4.58128e-06
1.7688e-05
4.24869e-06
1.19276e-05
4.13226e-06
1.25417e-05
4.27874e-06
1.84085e-05
4.33298e-06
2.16711e-05
4.322e-06
2.17772e-05
4.33168e-06
2.12306e-05
4.3628e-06
2.0969e-05
4.39304e-06
2.09956e-05
4.40403e-06
2.13327e-05
4.411e-06
2.19137e-05
4.47148e-06
2.14341e-05
4.45794e-06
1.74452e-05
4.14746e-06
1.21405e-05
4.06819e-06
1.32723e-05
4.19322e-06
1.87966e-05
4.2157e-06
2.15723e-05
4.18196e-06
2.14766e-05
4.16603e-06
1.70449e-05
4.15906e-06
1.59516e-05
4.14983e-06
1.50362e-05
4.14195e-06
1.41424e-05
4.15041e-06
1.30822e-05
4.18238e-06
1.17944e-05
4.22582e-06
1.05609e-05
4.26521e-06
9.80932e-06
4.29265e-06
9.60844e-06
4.30343e-06
9.61201e-06
4.29874e-06
9.48065e-06
4.28639e-06
9.138e-06
4.27425e-06
8.67318e-06
4.26595e-06
8.17827e-06
4.26182e-06
7.6954e-06
4.26108e-06
7.23469e-06
4.26284e-06
6.7972e-06
4.2663e-06
6.38407e-06
4.2707e-06
5.9975e-06
4.27542e-06
5.63956e-06
4.27996e-06
5.3112e-06
4.28401e-06
5.01184e-06
4.28744e-06
4.73943e-06
4.29022e-06
4.49099e-06
4.2924e-06
4.26316e-06
4.29405e-06
4.05269e-06
4.29525e-06
3.85673e-06
4.29607e-06
3.67299e-06
4.29656e-06
3.49966e-06
3.33537e-06
4.30595e-06
3.33038e-06
4.30611e-06
3.48539e-06
4.30637e-06
3.64832e-06
4.30672e-06
3.81849e-06
4.30719e-06
3.99602e-06
4.30778e-06
4.1811e-06
4.30852e-06
4.37395e-06
4.30941e-06
4.57473e-06
4.31049e-06
4.78364e-06
4.31175e-06
5.00086e-06
4.31324e-06
5.22656e-06
4.31498e-06
5.4609e-06
4.317e-06
5.70398e-06
4.31936e-06
5.95586e-06
4.32211e-06
6.21651e-06
4.32533e-06
6.48579e-06
4.32911e-06
6.7634e-06
4.33358e-06
7.04885e-06
4.33891e-06
7.34138e-06
4.3453e-06
7.63986e-06
4.35306e-06
7.94274e-06
4.36263e-06
8.24804e-06
4.37484e-06
8.55347e-06
4.39143e-06
8.85418e-06
4.41464e-06
9.13234e-06
4.44198e-06
9.33388e-06
4.45377e-06
9.36028e-06
4.41075e-06
9.15979e-06
4.29803e-06
8.96219e-06
4.18507e-06
9.4396e-06
4.18985e-06
1.34343e-05
4.34054e-06
1.69033e-05
4.59764e-06
1.95218e-05
4.77476e-06
1.79325e-05
4.33116e-06
1.21933e-05
3.90183e-06
1.15768e-05
4.09831e-06
1.74165e-05
4.27683e-06
2.0707e-05
4.29753e-06
2.04506e-05
4.30279e-06
1.96794e-05
4.32708e-06
1.93121e-05
4.36987e-06
1.91858e-05
4.48011e-06
1.93654e-05
4.75573e-06
1.95351e-05
4.99038e-06
1.72826e-05
4.57645e-06
1.17872e-05
4.18181e-06
1.08679e-05
4.44818e-06
1.68995e-05
4.65213e-06
2.13452e-05
4.63995e-06
2.21388e-05
4.60877e-06
2.21902e-05
4.63656e-06
2.15743e-05
4.60024e-06
1.77243e-05
4.29734e-06
1.22305e-05
4.16364e-06
1.26754e-05
4.28451e-06
1.82876e-05
4.33642e-06
2.16192e-05
4.326e-06
2.17876e-05
4.335e-06
2.12216e-05
4.36661e-06
2.09373e-05
4.39696e-06
2.09653e-05
4.40618e-06
2.13235e-05
4.40882e-06
2.1911e-05
4.4605e-06
2.13824e-05
4.44876e-06
1.74569e-05
4.17878e-06
1.24105e-05
4.08487e-06
1.33662e-05
4.18728e-06
1.86942e-05
4.20809e-06
2.15515e-05
4.17518e-06
2.15095e-05
4.1589e-06
1.70612e-05
4.15156e-06
1.5959e-05
4.14173e-06
1.5046e-05
4.13363e-06
1.41505e-05
4.14305e-06
1.30728e-05
4.17657e-06
1.17609e-05
4.22113e-06
1.05164e-05
4.26093e-06
9.76951e-06
4.28827e-06
9.5811e-06
4.29883e-06
9.60144e-06
4.29385e-06
9.48563e-06
4.28108e-06
9.15077e-06
4.26856e-06
8.6857e-06
4.26011e-06
8.18671e-06
4.25613e-06
7.69938e-06
4.25573e-06
7.23509e-06
4.25793e-06
6.79501e-06
4.26183e-06
6.38018e-06
4.26664e-06
5.99268e-06
4.27172e-06
5.63449e-06
4.27654e-06
5.30638e-06
4.28082e-06
5.00756e-06
4.28442e-06
4.73582e-06
4.28734e-06
4.48808e-06
4.28962e-06
4.26088e-06
4.29134e-06
4.05097e-06
4.29259e-06
3.85548e-06
4.29344e-06
3.67214e-06
4.29395e-06
3.49916e-06
3.33519e-06
4.29702e-06
3.33031e-06
4.29719e-06
3.48522e-06
4.29746e-06
3.64805e-06
4.29781e-06
3.81813e-06
4.29827e-06
3.99556e-06
4.29884e-06
4.18053e-06
4.29954e-06
4.37325e-06
4.30038e-06
4.57389e-06
4.30138e-06
4.78264e-06
4.30255e-06
4.99969e-06
4.30392e-06
5.22519e-06
4.30551e-06
5.45931e-06
4.30734e-06
5.70214e-06
4.30946e-06
5.95373e-06
4.31192e-06
6.21405e-06
4.31478e-06
6.48294e-06
4.3181e-06
6.76008e-06
4.32199e-06
7.04496e-06
4.32658e-06
7.33679e-06
4.33203e-06
7.63441e-06
4.33856e-06
7.9362e-06
4.34653e-06
8.24008e-06
4.35661e-06
8.54339e-06
4.37019e-06
8.8406e-06
4.38881e-06
9.11372e-06
4.40941e-06
9.31328e-06
4.41447e-06
9.35521e-06
4.37176e-06
9.20251e-06
4.2691e-06
9.06485e-06
4.1603e-06
9.5484e-06
4.14188e-06
1.34527e-05
4.26851e-06
1.67766e-05
4.52059e-06
1.92698e-05
4.70986e-06
1.77432e-05
4.34731e-06
1.25558e-05
3.98628e-06
1.19379e-05
4.17207e-06
1.72307e-05
4.3362e-06
2.05429e-05
4.3319e-06
2.04549e-05
4.31324e-06
1.9698e-05
4.31527e-06
1.93101e-05
4.33908e-06
1.9162e-05
4.43612e-06
1.92683e-05
4.7134e-06
1.92578e-05
4.96579e-06
1.70302e-05
4.63857e-06
1.21144e-05
4.31071e-06
1.11958e-05
4.55761e-06
1.66526e-05
4.75219e-06
2.11506e-05
4.71928e-06
2.21717e-05
4.66114e-06
2.22484e-05
4.66586e-06
2.15696e-05
4.61878e-06
1.77714e-05
4.33691e-06
1.25123e-05
4.18879e-06
1.28236e-05
4.28833e-06
1.81881e-05
4.33895e-06
2.15685e-05
4.32907e-06
2.17975e-05
4.33793e-06
2.12127e-05
4.37076e-06
2.09045e-05
4.40208e-06
2.0934e-05
4.41029e-06
2.13153e-05
4.40926e-06
2.19121e-05
4.45339e-06
2.13383e-05
4.44151e-06
1.74688e-05
4.20055e-06
1.26515e-05
4.09514e-06
1.34716e-05
4.17945e-06
1.86099e-05
4.19993e-06
2.1531e-05
4.16848e-06
2.1541e-05
4.15238e-06
1.70773e-05
4.14513e-06
1.59662e-05
4.13501e-06
1.50561e-05
4.12693e-06
1.41586e-05
4.13733e-06
1.30624e-05
4.17203e-06
1.17262e-05
4.2171e-06
1.04713e-05
4.25686e-06
9.72976e-06
4.28392e-06
9.55404e-06
4.29427e-06
9.59109e-06
4.28906e-06
9.49084e-06
4.27592e-06
9.16392e-06
4.26302e-06
8.6986e-06
4.25445e-06
8.19528e-06
4.25065e-06
7.70319e-06
4.25063e-06
7.2351e-06
4.2533e-06
6.79235e-06
4.25767e-06
6.3758e-06
4.26291e-06
5.98744e-06
4.26834e-06
5.62906e-06
4.27346e-06
5.30126e-06
4.27797e-06
5.00305e-06
4.28174e-06
4.73205e-06
4.28479e-06
4.48503e-06
4.28717e-06
4.25851e-06
4.28896e-06
4.04917e-06
4.29026e-06
3.85418e-06
4.29114e-06
3.67126e-06
4.29167e-06
3.49863e-06
3.33499e-06
4.28711e-06
3.33023e-06
4.28729e-06
3.48504e-06
4.28756e-06
3.64779e-06
4.28791e-06
3.81778e-06
4.28835e-06
3.99512e-06
4.28889e-06
4.17999e-06
4.28954e-06
4.37259e-06
4.29032e-06
4.57312e-06
4.29123e-06
4.78173e-06
4.29229e-06
4.99863e-06
4.29351e-06
5.22397e-06
4.29491e-06
5.45791e-06
4.29652e-06
5.70053e-06
4.29836e-06
5.95189e-06
4.30047e-06
6.21194e-06
4.3029e-06
6.48051e-06
4.3057e-06
6.75728e-06
4.30894e-06
7.04172e-06
4.31271e-06
7.33302e-06
4.31715e-06
7.62998e-06
4.3224e-06
7.93095e-06
4.32873e-06
8.23375e-06
4.33667e-06
8.53544e-06
4.34732e-06
8.82995e-06
4.36162e-06
9.09943e-06
4.37613e-06
9.29877e-06
4.37537e-06
9.35597e-06
4.33265e-06
9.24522e-06
4.23742e-06
9.16008e-06
4.13091e-06
9.65491e-06
4.09345e-06
1.34901e-05
4.20233e-06
1.66678e-05
4.45597e-06
1.90161e-05
4.65762e-06
1.75416e-05
4.36488e-06
1.28486e-05
4.061e-06
1.22417e-05
4.23333e-06
1.70584e-05
4.38286e-06
2.03934e-05
4.36203e-06
2.04757e-05
4.32069e-06