/*--------------------------------*- C++ -*----------------------------------*\
  =========                 |
  \\      /  F ield         | OpenFOAM: The Open Source CFD Toolbox
   \\    /   O peration     | Website:  https://openfoam.org
    \\  /    A nd           | Version:  9
     \\/     M anipulation  |
\*---------------------------------------------------------------------------*/
FoamFile
{
    format      ascii;
    class       volScalarField;
    location    "0.18";
    object      rAU;
}
// * * * * * * * * * * * * * * * * * * * * * * * * * * * * * * * * * * * * * //

dimensions      [-1 3 1 0 0 0 0];

internalField   nonuniform List<scalar> 
20000
(
6.33e-06
7.95836e-06
8.05524e-06
8.14821e-06
8.23758e-06
8.32359e-06
8.40646e-06
8.48641e-06
8.56361e-06
8.63826e-06
8.71054e-06
8.78062e-06
8.8487e-06
8.91495e-06
8.97958e-06
9.04281e-06
9.10483e-06
9.16587e-06
9.22612e-06
9.28574e-06
9.34475e-06
9.40268e-06
9.45753e-06
9.50433e-06
9.53726e-06
9.57196e-06
9.71551e-06
1.0248e-05
1.12285e-05
1.09559e-05
9.6428e-06
8.81427e-06
8.35151e-06
8.53708e-06
1.35904e-05
1.31042e-05
8.42272e-06
8.29864e-06
8.55665e-06
8.69609e-06
8.74508e-06
8.73095e-06
8.60517e-06
8.32421e-06
8.50075e-06
1.3962e-05
1.31808e-05
8.38358e-06
8.17857e-06
8.33905e-06
8.36383e-06
8.34671e-06
9.08354e-06
1.2139e-05
1.0091e-05
8.61464e-06
8.44145e-06
8.50539e-06
8.55415e-06
8.57344e-06
8.567e-06
8.5324e-06
8.45451e-06
8.40638e-06
9.16566e-06
1.21134e-05
9.86235e-06
8.60769e-06
8.49515e-06
8.57823e-06
8.58223e-06
8.61443e-06
8.63982e-06
8.66726e-06
8.72156e-06
8.83276e-06
8.97318e-06
9.01513e-06
8.90385e-06
8.75989e-06
8.66807e-06
8.62421e-06
8.60255e-06
8.58797e-06
8.57538e-06
8.56343e-06
8.55131e-06
8.53782e-06
8.52132e-06
8.49985e-06
8.4715e-06
8.43479e-06
8.38894e-06
8.33394e-06
8.27038e-06
8.19913e-06
8.12108e-06
8.03699e-06
7.94743e-06
8.10974e-06
7.39534e-06
9.71408e-06
9.85445e-06
9.98941e-06
1.01191e-05
1.02438e-05
1.03636e-05
1.04787e-05
1.05894e-05
1.06957e-05
1.0798e-05
1.08963e-05
1.09908e-05
1.10819e-05
1.11696e-05
1.12542e-05
1.13359e-05
1.14149e-05
1.14913e-05
1.15655e-05
1.16373e-05
1.17066e-05
1.17722e-05
1.18312e-05
1.18805e-05
1.19292e-05
1.20378e-05
1.23453e-05
1.28244e-05
1.27862e-05
1.22166e-05
1.16613e-05
1.1328e-05
1.14948e-05
1.38321e-05
1.3805e-05
1.1554e-05
1.13561e-05
1.15092e-05
1.15909e-05
1.16147e-05
1.15992e-05
1.15085e-05
1.13127e-05
1.14741e-05
1.39197e-05
1.38785e-05
1.15326e-05
1.12646e-05
1.13529e-05
1.13583e-05
1.13445e-05
1.18455e-05
1.33676e-05
1.25064e-05
1.15541e-05
1.14046e-05
1.14487e-05
1.1483e-05
1.1495e-05
1.1489e-05
1.14636e-05
1.14081e-05
1.13799e-05
1.18929e-05
1.33528e-05
1.23763e-05
1.15459e-05
1.14424e-05
1.14986e-05
1.14269e-05
1.1425e-05
1.14185e-05
1.14125e-05
1.14233e-05
1.14684e-05
1.15257e-05
1.1517e-05
1.14135e-05
1.12873e-05
1.11929e-05
1.11291e-05
1.10782e-05
1.10296e-05
1.09795e-05
1.09272e-05
1.0872e-05
1.08131e-05
1.07495e-05
1.06799e-05
1.06033e-05
1.05188e-05
1.0426e-05
1.0325e-05
1.0216e-05
1.00995e-05
9.97611e-06
9.84608e-06
9.70974e-06
9.95143e-06
7.395e-06
9.71394e-06
9.85433e-06
9.98929e-06
1.0119e-05
1.02437e-05
1.03635e-05
1.04786e-05
1.05892e-05
1.06955e-05
1.07977e-05
1.08959e-05
1.09904e-05
1.10814e-05
1.1169e-05
1.12535e-05
1.13351e-05
1.14139e-05
1.14903e-05
1.15642e-05
1.16358e-05
1.17049e-05
1.17704e-05
1.18298e-05
1.18809e-05
1.19346e-05
1.20495e-05
1.23411e-05
1.27562e-05
1.27457e-05
1.22512e-05
1.16839e-05
1.13433e-05
1.15533e-05
1.36248e-05
1.36412e-05
1.16481e-05
1.1394e-05
1.15312e-05
1.16067e-05
1.16254e-05
1.16081e-05
1.15174e-05
1.13342e-05
1.15454e-05
1.36645e-05
1.37097e-05
1.16305e-05
1.12983e-05
1.13684e-05
1.13658e-05
1.13581e-05
1.18721e-05
1.32503e-05
1.25463e-05
1.15897e-05
1.14075e-05
1.14494e-05
1.14856e-05
1.14974e-05
1.14907e-05
1.14634e-05
1.14049e-05
1.13875e-05
1.19147e-05
1.32307e-05
1.24198e-05
1.15778e-05
1.14453e-05
1.15002e-05
1.14309e-05
1.14291e-05
1.14221e-05
1.14158e-05
1.1428e-05
1.14757e-05
1.15334e-05
1.15229e-05
1.14178e-05
1.12889e-05
1.11922e-05
1.11279e-05
1.10778e-05
1.10301e-05
1.0981e-05
1.09293e-05
1.08746e-05
1.08161e-05
1.07526e-05
1.06831e-05
1.06064e-05
1.05218e-05
1.04288e-05
1.03275e-05
1.02184e-05
1.01018e-05
9.97821e-06
9.84809e-06
9.71168e-06
9.9535e-06
7.395e-06
9.71399e-06
9.85439e-06
9.98937e-06
1.01191e-05
1.02438e-05
1.03636e-05
1.04787e-05
1.05892e-05
1.06955e-05
1.07977e-05
1.08959e-05
1.09903e-05
1.10812e-05
1.11688e-05
1.12533e-05
1.13348e-05
1.14135e-05
1.14898e-05
1.15636e-05
1.16353e-05
1.17045e-05
1.17704e-05
1.18312e-05
1.18856e-05
1.19461e-05
1.2067e-05
1.23391e-05
1.2695e-05
1.27035e-05
1.22854e-05
1.17167e-05
1.13718e-05
1.16081e-05
1.34229e-05
1.34649e-05
1.1719e-05
1.14258e-05
1.15498e-05
1.16227e-05
1.1639e-05
1.1622e-05
1.1535e-05
1.13696e-05
1.16167e-05
1.34437e-05
1.3525e-05
1.17045e-05
1.13264e-05
1.13797e-05
1.13723e-05
1.13747e-05
1.1894e-05
1.31319e-05
1.25724e-05
1.16271e-05
1.1411e-05
1.14496e-05
1.14883e-05
1.15006e-05
1.14933e-05
1.14639e-05
1.14032e-05
1.13996e-05
1.19323e-05
1.31071e-05
1.24502e-05
1.16115e-05
1.14482e-05
1.15008e-05
1.14342e-05
1.14327e-05
1.1425e-05
1.14186e-05
1.14325e-05
1.14831e-05
1.15417e-05
1.15298e-05
1.1423e-05
1.12912e-05
1.11917e-05
1.11266e-05
1.10771e-05
1.10304e-05
1.09821e-05
1.09311e-05
1.0877e-05
1.08189e-05
1.07557e-05
1.06862e-05
1.06095e-05
1.05247e-05
1.04316e-05
1.03301e-05
1.02208e-05
1.01041e-05
9.98041e-06
9.85019e-06
9.71372e-06
9.95566e-06
7.39557e-06
9.71436e-06
9.85478e-06
9.98977e-06
1.01195e-05
1.02442e-05
1.0364e-05
1.04791e-05
1.05897e-05
1.06959e-05
1.07981e-05
1.08962e-05
1.09907e-05
1.10816e-05
1.11691e-05
1.12535e-05
1.1335e-05
1.14138e-05
1.14901e-05
1.1564e-05
1.16358e-05
1.17055e-05
1.17723e-05
1.18348e-05
1.1893e-05
1.19605e-05
1.20857e-05
1.23375e-05
1.26443e-05
1.26648e-05
1.23163e-05
1.1755e-05
1.1408e-05
1.16558e-05
1.32445e-05
1.33004e-05
1.17694e-05
1.14521e-05
1.15643e-05
1.16375e-05
1.16535e-05
1.16385e-05
1.15564e-05
1.14101e-05
1.16796e-05
1.32634e-05
1.33566e-05
1.17583e-05
1.13492e-05
1.13865e-05
1.13769e-05
1.13915e-05
1.19082e-05
1.3023e-05
1.25851e-05
1.16626e-05
1.14147e-05
1.14488e-05
1.14908e-05
1.1504e-05
1.14965e-05
1.14651e-05
1.14027e-05
1.14133e-05
1.19434e-05
1.29943e-05
1.24677e-05
1.16435e-05
1.14507e-05
1.14999e-05
1.14365e-05
1.14355e-05
1.14273e-05
1.14208e-05
1.14365e-05
1.14903e-05
1.15502e-05
1.15373e-05
1.14291e-05
1.12941e-05
1.11915e-05
1.11252e-05
1.10761e-05
1.10304e-05
1.0983e-05
1.09327e-05
1.08791e-05
1.08214e-05
1.07585e-05
1.06892e-05
1.06125e-05
1.05276e-05
1.04343e-05
1.03327e-05
1.02233e-05
1.01064e-05
9.98262e-06
9.85231e-06
9.71576e-06
9.95782e-06
7.39687e-06
9.71519e-06
9.8556e-06
9.99061e-06
1.01204e-05
1.02451e-05
1.03648e-05
1.04799e-05
1.05905e-05
1.06968e-05
1.07989e-05
1.08971e-05
1.09915e-05
1.10824e-05
1.11699e-05
1.12544e-05
1.13359e-05
1.14147e-05
1.14911e-05
1.15653e-05
1.16375e-05
1.17076e-05
1.17755e-05
1.18399e-05
1.19022e-05
1.19758e-05
1.21033e-05
1.23357e-05
1.26035e-05
1.26319e-05
1.23429e-05
1.17953e-05
1.14481e-05
1.16961e-05
1.30932e-05
1.31579e-05
1.18064e-05
1.14744e-05
1.15758e-05
1.16503e-05
1.16677e-05
1.16555e-05
1.15791e-05
1.1451e-05
1.17306e-05
1.31148e-05
1.32145e-05
1.17993e-05
1.13679e-05
1.13897e-05
1.1379e-05
1.14058e-05
1.1915e-05
1.29276e-05
1.25872e-05
1.16945e-05
1.14186e-05
1.14473e-05
1.14929e-05
1.15076e-05
1.14999e-05
1.14666e-05
1.14031e-05
1.14265e-05
1.19486e-05
1.28969e-05
1.2475e-05
1.16724e-05
1.14531e-05
1.1498e-05
1.14377e-05
1.14377e-05
1.1429e-05
1.14225e-05
1.14401e-05
1.14974e-05
1.15588e-05
1.15453e-05
1.14354e-05
1.12973e-05
1.11915e-05
1.11238e-05
1.10749e-05
1.10301e-05
1.09836e-05
1.0934e-05
1.0881e-05
1.08238e-05
1.07611e-05
1.0692e-05
1.06153e-05
1.05303e-05
1.04369e-05
1.03352e-05
1.02256e-05
1.01086e-05
9.98472e-06
9.85431e-06
9.71769e-06
9.95984e-06
7.39894e-06
9.71649e-06
9.8569e-06
9.99191e-06
1.01217e-05
1.02464e-05
1.03662e-05
1.04813e-05
1.05918e-05
1.06981e-05
1.08002e-05
1.08984e-05
1.09928e-05
1.10837e-05
1.11713e-05
1.12558e-05
1.13374e-05
1.14164e-05
1.1493e-05
1.15674e-05
1.164e-05
1.17108e-05
1.17797e-05
1.18462e-05
1.19121e-05
1.19907e-05
1.21186e-05
1.23335e-05
1.25709e-05
1.26049e-05
1.23654e-05
1.18355e-05
1.14898e-05
1.17308e-05
1.29661e-05
1.30373e-05
1.18362e-05
1.14939e-05
1.15846e-05
1.16608e-05
1.16807e-05
1.16719e-05
1.16023e-05
1.14906e-05
1.17715e-05
1.29893e-05
1.30954e-05
1.18335e-05
1.13836e-05
1.13897e-05
1.13794e-05
1.14168e-05
1.19162e-05
1.28455e-05
1.25813e-05
1.17222e-05
1.14229e-05
1.14455e-05
1.14945e-05
1.1511e-05
1.15033e-05
1.14682e-05
1.14042e-05
1.14386e-05
1.19499e-05
1.2815e-05
1.24747e-05
1.16974e-05
1.14554e-05
1.14954e-05
1.14381e-05
1.14391e-05
1.14301e-05
1.14237e-05
1.14435e-05
1.15043e-05
1.15675e-05
1.15534e-05
1.14418e-05
1.13006e-05
1.11916e-05
1.11224e-05
1.10738e-05
1.10297e-05
1.09841e-05
1.09353e-05
1.08828e-05
1.0826e-05
1.07637e-05
1.06946e-05
1.06179e-05
1.05329e-05
1.04393e-05
1.03375e-05
1.02278e-05
1.01106e-05
9.98664e-06
9.85613e-06
9.71943e-06
9.96165e-06
7.40178e-06
9.71827e-06
9.85867e-06
9.99366e-06
1.01234e-05
1.02481e-05
1.03679e-05
1.0483e-05
1.05936e-05
1.06998e-05
1.0802e-05
1.09002e-05
1.09946e-05
1.10856e-05
1.11732e-05
1.12578e-05
1.13395e-05
1.14187e-05
1.14955e-05
1.15702e-05
1.16433e-05
1.17148e-05
1.17848e-05
1.18531e-05
1.19221e-05
1.20046e-05
1.21318e-05
1.23313e-05
1.25446e-05
1.25828e-05
1.23841e-05
1.1874e-05
1.15315e-05
1.17621e-05
1.28584e-05
1.29346e-05
1.18616e-05
1.15113e-05
1.15909e-05
1.16688e-05
1.16918e-05
1.16872e-05
1.16253e-05
1.15293e-05
1.18062e-05
1.28817e-05
1.29937e-05
1.18634e-05
1.13977e-05
1.13871e-05
1.13782e-05
1.14249e-05
1.19139e-05
1.27751e-05
1.257e-05
1.17457e-05
1.14273e-05
1.14435e-05
1.14958e-05
1.15144e-05
1.15066e-05
1.14697e-05
1.14057e-05
1.14494e-05
1.19493e-05
1.27466e-05
1.24695e-05
1.17187e-05
1.14578e-05
1.14925e-05
1.14379e-05
1.14401e-05
1.14308e-05
1.14246e-05
1.14468e-05
1.15112e-05
1.15763e-05
1.15616e-05
1.14481e-05
1.13037e-05
1.11917e-05
1.11211e-05
1.10726e-05
1.10294e-05
1.09846e-05
1.09365e-05
1.08846e-05
1.08282e-05
1.07661e-05
1.06972e-05
1.06205e-05
1.05353e-05
1.04416e-05
1.03396e-05
1.02297e-05
1.01125e-05
9.98837e-06
9.85777e-06
9.72098e-06
9.96324e-06
7.4053e-06
9.72048e-06
9.86086e-06
9.99584e-06
1.01256e-05
1.02503e-05
1.03701e-05
1.04852e-05
1.05957e-05
1.0702e-05
1.08041e-05
1.09024e-05
1.09969e-05
1.10879e-05
1.11756e-05
1.12602e-05
1.13421e-05
1.14214e-05
1.14984e-05
1.15735e-05
1.1647e-05
1.17192e-05
1.17902e-05
1.18602e-05
1.19319e-05
1.20174e-05
1.21431e-05
1.23293e-05
1.25231e-05
1.25644e-05
1.23991e-05
1.19097e-05
1.15727e-05
1.17913e-05
1.27667e-05
1.28458e-05
1.18834e-05
1.15265e-05
1.15944e-05
1.16738e-05
1.17008e-05
1.17005e-05
1.16475e-05
1.15678e-05
1.1838e-05
1.27893e-05
1.29053e-05
1.18897e-05
1.14102e-05
1.13817e-05
1.13747e-05
1.14302e-05
1.19094e-05
1.27142e-05
1.25549e-05
1.17656e-05
1.14318e-05
1.14416e-05
1.1497e-05
1.15177e-05
1.15098e-05
1.14711e-05
1.14072e-05
1.14589e-05
1.1948e-05
1.26896e-05
1.24609e-05
1.17366e-05
1.14601e-05
1.14894e-05
1.14373e-05
1.14406e-05
1.14311e-05
1.14252e-05
1.14499e-05
1.15181e-05
1.15852e-05
1.15698e-05
1.14543e-05
1.13067e-05
1.11917e-05
1.11197e-05
1.10714e-05
1.1029e-05
1.09851e-05
1.09378e-05
1.08865e-05
1.08305e-05
1.07686e-05
1.06998e-05
1.0623e-05
1.05377e-05
1.04439e-05
1.03417e-05
1.02316e-05
1.01142e-05
9.98996e-06
9.85925e-06
9.72237e-06
9.96465e-06
7.40946e-06
9.72309e-06
9.86344e-06
9.9984e-06
1.01281e-05
1.02528e-05
1.03726e-05
1.04877e-05
1.05983e-05
1.07045e-05
1.08067e-05
1.09049e-05
1.09995e-05
1.10905e-05
1.11783e-05
1.1263e-05
1.1345e-05
1.14245e-05
1.15018e-05
1.15772e-05
1.16512e-05
1.1724e-05
1.17958e-05
1.18672e-05
1.19412e-05
1.20289e-05
1.21528e-05
1.23274e-05
1.25051e-05
1.25484e-05
1.24105e-05
1.19419e-05
1.1613e-05
1.18196e-05
1.2689e-05
1.27685e-05
1.19024e-05
1.15396e-05
1.15946e-05
1.16759e-05
1.17073e-05
1.17115e-05
1.16682e-05
1.16063e-05
1.1869e-05
1.27106e-05
1.28281e-05
1.19127e-05
1.14213e-05
1.13733e-05
1.13685e-05
1.14328e-05
1.19032e-05
1.26609e-05
1.25372e-05
1.17822e-05
1.14363e-05
1.14398e-05
1.1498e-05
1.15209e-05
1.15128e-05
1.14721e-05
1.14084e-05
1.14672e-05
1.19467e-05
1.26417e-05
1.245e-05
1.17518e-05
1.14624e-05
1.14864e-05
1.14364e-05
1.1441e-05
1.14311e-05
1.14255e-05
1.1453e-05
1.15252e-05
1.15943e-05
1.15781e-05
1.14603e-05
1.13095e-05
1.11915e-05
1.11181e-05
1.107e-05
1.10286e-05
1.09857e-05
1.09391e-05
1.08884e-05
1.08328e-05
1.07711e-05
1.07023e-05
1.06255e-05
1.05401e-05
1.0446e-05
1.03436e-05
1.02334e-05
1.01158e-05
9.99144e-06
9.86061e-06
9.72363e-06
9.96593e-06
7.41422e-06
9.72607e-06
9.8664e-06
1.00013e-05
1.0131e-05
1.02557e-05
1.03755e-05
1.04905e-05
1.06011e-05
1.07074e-05
1.08095e-05
1.09078e-05
1.10024e-05
1.10935e-05
1.11813e-05
1.12662e-05
1.13483e-05
1.1428e-05
1.15055e-05
1.15812e-05
1.16555e-05
1.17289e-05
1.18015e-05
1.18742e-05
1.19501e-05
1.20393e-05
1.21611e-05
1.23258e-05
1.24901e-05
1.25343e-05
1.24184e-05
1.19702e-05
1.16523e-05
1.18476e-05
1.26238e-05
1.27017e-05
1.19195e-05
1.15509e-05
1.15916e-05
1.16751e-05
1.17113e-05
1.17202e-05
1.1687e-05
1.16444e-05
1.19e-05
1.26441e-05
1.27608e-05
1.19329e-05
1.14302e-05
1.1362e-05
1.13594e-05
1.14328e-05
1.18959e-05
1.26132e-05
1.25176e-05
1.17963e-05
1.14407e-05
1.14381e-05
1.14989e-05
1.15242e-05
1.15157e-05
1.14728e-05
1.1409e-05
1.14742e-05
1.19454e-05
1.26008e-05
1.24377e-05
1.17646e-05
1.14647e-05
1.14835e-05
1.14355e-05
1.14411e-05
1.14309e-05
1.14257e-05
1.14561e-05
1.15324e-05
1.16034e-05
1.15865e-05
1.14664e-05
1.13123e-05
1.11912e-05
1.11164e-05
1.10686e-05
1.10282e-05
1.09863e-05
1.09405e-05
1.08904e-05
1.08351e-05
1.07737e-05
1.07049e-05
1.0628e-05
1.05424e-05
1.04481e-05
1.03455e-05
1.02351e-05
1.01174e-05
9.99283e-06
9.86187e-06
9.72479e-06
9.96707e-06
7.41958e-06
9.72942e-06
9.86971e-06
1.00046e-05
1.01343e-05
1.02589e-05
1.03787e-05
1.04937e-05
1.06043e-05
1.07105e-05
1.08127e-05
1.0911e-05
1.10056e-05
1.10967e-05
1.11846e-05
1.12696e-05
1.13518e-05
1.14316e-05
1.15094e-05
1.15854e-05
1.166e-05
1.17338e-05
1.18072e-05
1.18809e-05
1.19583e-05
1.20488e-05
1.21684e-05
1.23244e-05
1.24775e-05
1.25216e-05
1.24233e-05
1.19947e-05
1.16902e-05
1.18757e-05
1.257e-05
1.2645e-05
1.19356e-05
1.15614e-05
1.15863e-05
1.16718e-05
1.17129e-05
1.17266e-05
1.17038e-05
1.16818e-05
1.19314e-05
1.25885e-05
1.27017e-05
1.19518e-05
1.14387e-05
1.13486e-05
1.13476e-05
1.14303e-05
1.18874e-05
1.25698e-05
1.24968e-05
1.18082e-05
1.14453e-05
1.14366e-05
1.14999e-05
1.15276e-05
1.15186e-05
1.14732e-05
1.14088e-05
1.14799e-05
1.1944e-05
1.25653e-05
1.24244e-05
1.17758e-05
1.14672e-05
1.14806e-05
1.14344e-05
1.1441e-05
1.14303e-05
1.14255e-05
1.1459e-05
1.15395e-05
1.16125e-05
1.15948e-05
1.14723e-05
1.1315e-05
1.11909e-05
1.11147e-05
1.1067e-05
1.10277e-05
1.09868e-05
1.09419e-05
1.08924e-05
1.08375e-05
1.07763e-05
1.07075e-05
1.06304e-05
1.05447e-05
1.04502e-05
1.03473e-05
1.02367e-05
1.01188e-05
9.9941e-06
9.86302e-06
9.72582e-06
9.96808e-06
7.42554e-06
9.73314e-06
9.87339e-06
1.00082e-05
1.01379e-05
1.02625e-05
1.03822e-05
1.04972e-05
1.06078e-05
1.0714e-05
1.08162e-05
1.09144e-05
1.10091e-05
1.11002e-05
1.11882e-05
1.12732e-05
1.13556e-05
1.14355e-05
1.15134e-05
1.15897e-05
1.16646e-05
1.17388e-05
1.18128e-05
1.18874e-05
1.1966e-05
1.20572e-05
1.21747e-05
1.23232e-05
1.24665e-05
1.25098e-05
1.24257e-05
1.20166e-05
1.17272e-05
1.1904e-05
1.25259e-05
1.25972e-05
1.19514e-05
1.15718e-05
1.15797e-05
1.16664e-05
1.17124e-05
1.17311e-05
1.17194e-05
1.17189e-05
1.19637e-05
1.25427e-05
1.265e-05
1.197e-05
1.14476e-05
1.13342e-05
1.13336e-05
1.14256e-05
1.18778e-05
1.25297e-05
1.24755e-05
1.18187e-05
1.14502e-05
1.14354e-05
1.1501e-05
1.15312e-05
1.15216e-05
1.14732e-05
1.1408e-05
1.14843e-05
1.19419e-05
1.25333e-05
1.24105e-05
1.17858e-05
1.147e-05
1.1478e-05
1.14333e-05
1.14409e-05
1.14295e-05
1.14251e-05
1.14617e-05
1.15464e-05
1.16214e-05
1.16028e-05
1.14782e-05
1.13177e-05
1.11906e-05
1.11128e-05
1.10654e-05
1.10271e-05
1.09874e-05
1.09434e-05
1.08944e-05
1.08399e-05
1.07789e-05
1.07101e-05
1.06329e-05
1.05469e-05
1.04521e-05
1.03491e-05
1.02382e-05
1.01201e-05
9.99525e-06
9.86403e-06
9.72671e-06
9.96892e-06
7.43209e-06
9.73722e-06
9.87742e-06
1.00122e-05
1.01418e-05
1.02663e-05
1.0386e-05
1.0501e-05
1.06115e-05
1.07177e-05
1.08199e-05
1.09182e-05
1.10128e-05
1.1104e-05
1.1192e-05
1.1277e-05
1.13595e-05
1.14395e-05
1.15176e-05
1.1594e-05
1.16693e-05
1.17438e-05
1.18182e-05
1.18936e-05
1.19732e-05
1.20648e-05
1.218e-05
1.23219e-05
1.24569e-05
1.24985e-05
1.2426e-05
1.20365e-05
1.17636e-05
1.19325e-05
1.24901e-05
1.25568e-05
1.19668e-05
1.15827e-05
1.15729e-05
1.16593e-05
1.17099e-05
1.17339e-05
1.17346e-05
1.17566e-05
1.19974e-05
1.25055e-05
1.26014e-05
1.19847e-05
1.14569e-05
1.13198e-05
1.13181e-05
1.14192e-05
1.18668e-05
1.24915e-05
1.24536e-05
1.1828e-05
1.14557e-05
1.14345e-05
1.15023e-05
1.1535e-05
1.15248e-05
1.14732e-05
1.14066e-05
1.14873e-05
1.19384e-05
1.25036e-05
1.2396e-05
1.17949e-05
1.14733e-05
1.14756e-05
1.14321e-05
1.14405e-05
1.14285e-05
1.14244e-05
1.14642e-05
1.1553e-05
1.16299e-05
1.16106e-05
1.14838e-05
1.13204e-05
1.11903e-05
1.11111e-05
1.10638e-05
1.10266e-05
1.0988e-05
1.09449e-05
1.08965e-05
1.08424e-05
1.07814e-05
1.07126e-05
1.06352e-05
1.0549e-05
1.0454e-05
1.03507e-05
1.02396e-05
1.01213e-05
9.99622e-06
9.86486e-06
9.72741e-06
9.96955e-06
7.43919e-06
9.74164e-06
9.88178e-06
1.00165e-05
1.0146e-05
1.02705e-05
1.03901e-05
1.05051e-05
1.06155e-05
1.07217e-05
1.08238e-05
1.09221e-05
1.10167e-05
1.11079e-05
1.11959e-05
1.1281e-05
1.13635e-05
1.14437e-05
1.15218e-05
1.15984e-05
1.16739e-05
1.17487e-05
1.18235e-05
1.18995e-05
1.19798e-05
1.20715e-05
1.21845e-05
1.23206e-05
1.2448e-05
1.24876e-05
1.24247e-05
1.20551e-05
1.17997e-05
1.19609e-05
1.24609e-05
1.25218e-05
1.1981e-05
1.15942e-05
1.15667e-05
1.1651e-05
1.17056e-05
1.17355e-05
1.17503e-05
1.17958e-05
1.20337e-05
1.24773e-05
1.25561e-05
1.19948e-05
1.14662e-05
1.13062e-05
1.1302e-05
1.14113e-05
1.18544e-05
1.24544e-05
1.24311e-05
1.18363e-05
1.14618e-05
1.14343e-05
1.15038e-05
1.15391e-05
1.15282e-05
1.14733e-05
1.14051e-05
1.1489e-05
1.19331e-05
1.24747e-05
1.23807e-05
1.18031e-05
1.14772e-05
1.14736e-05
1.14309e-05
1.144e-05
1.14271e-05
1.14234e-05
1.14662e-05
1.15591e-05
1.16378e-05
1.16178e-05
1.14892e-05
1.1323e-05
1.11903e-05
1.11096e-05
1.10624e-05
1.10261e-05
1.09887e-05
1.09464e-05
1.08987e-05
1.08448e-05
1.0784e-05
1.07151e-05
1.06375e-05
1.0551e-05
1.04557e-05
1.03521e-05
1.02407e-05
1.01222e-05
9.997e-06
9.86548e-06
9.72789e-06
9.96994e-06
7.4468e-06
9.74636e-06
9.88644e-06
1.00211e-05
1.01505e-05
1.02749e-05
1.03945e-05
1.05094e-05
1.06198e-05
1.07259e-05
1.0828e-05
1.09262e-05
1.10208e-05
1.1112e-05
1.12e-05
1.12851e-05
1.13676e-05
1.14479e-05
1.15261e-05
1.16028e-05
1.16784e-05
1.17534e-05
1.18285e-05
1.1905e-05
1.19858e-05
1.20774e-05
1.21883e-05
1.23191e-05
1.24396e-05
1.24767e-05
1.24222e-05
1.2073e-05
1.18361e-05
1.19893e-05
1.24369e-05
1.24903e-05
1.19927e-05
1.16059e-05
1.15612e-05
1.16417e-05
1.16995e-05
1.1736e-05
1.17672e-05
1.18375e-05
1.20736e-05
1.24584e-05
1.25143e-05
1.19992e-05
1.14751e-05
1.12943e-05
1.12861e-05
1.14026e-05
1.18407e-05
1.2418e-05
1.24078e-05
1.18433e-05
1.14687e-05
1.14348e-05
1.15056e-05
1.15434e-05
1.15319e-05
1.14737e-05
1.14037e-05
1.14897e-05
1.19256e-05
1.24455e-05
1.23643e-05
1.18103e-05
1.14817e-05
1.1472e-05
1.14296e-05
1.14393e-05
1.14255e-05
1.14219e-05
1.14678e-05
1.15644e-05
1.16448e-05
1.16244e-05
1.14941e-05
1.13256e-05
1.11905e-05
1.11083e-05
1.10612e-05
1.10259e-05
1.09895e-05
1.09481e-05
1.09009e-05
1.08473e-05
1.07865e-05
1.07175e-05
1.06397e-05
1.05528e-05
1.04572e-05
1.03533e-05
1.02417e-05
1.0123e-05
9.99755e-06
9.86586e-06
9.72813e-06
9.97006e-06
7.45486e-06
9.75136e-06
9.89137e-06
1.0026e-05
1.01553e-05
1.02796e-05
1.03991e-05
1.05139e-05
1.06242e-05
1.07303e-05
1.08323e-05
1.09305e-05
1.1025e-05
1.11162e-05
1.12042e-05
1.12893e-05
1.13718e-05
1.14521e-05
1.15304e-05
1.16071e-05
1.16828e-05
1.1758e-05
1.18333e-05
1.19101e-05
1.19912e-05
1.20826e-05
1.21915e-05
1.23174e-05
1.24316e-05
1.24659e-05
1.2419e-05
1.20909e-05
1.18733e-05
1.20185e-05
1.24177e-05
1.24608e-05
1.20009e-05
1.16173e-05
1.15566e-05
1.16315e-05
1.16915e-05
1.17355e-05
1.17853e-05
1.1882e-05
1.2118e-05
1.24495e-05
1.24772e-05
1.19982e-05
1.1483e-05
1.12844e-05
1.12714e-05
1.13937e-05
1.1826e-05
1.23817e-05
1.23834e-05
1.1849e-05
1.14761e-05
1.14361e-05
1.15077e-05
1.15481e-05
1.1536e-05
1.14747e-05
1.14029e-05
1.14898e-05
1.1916e-05
1.24156e-05
1.23461e-05
1.18162e-05
1.14866e-05
1.14709e-05
1.14282e-05
1.14383e-05
1.14236e-05
1.14202e-05
1.14687e-05
1.15687e-05
1.16508e-05
1.163e-05
1.14985e-05
1.13282e-05
1.11909e-05
1.11075e-05
1.10603e-05
1.10258e-05
1.09904e-05
1.09498e-05
1.09031e-05
1.08498e-05
1.07889e-05
1.07198e-05
1.06417e-05
1.05545e-05
1.04586e-05
1.03544e-05
1.02425e-05
1.01235e-05
9.99785e-06
9.86598e-06
9.7281e-06
9.96987e-06
7.46332e-06
9.75659e-06
9.89652e-06
1.0031e-05
1.01603e-05
1.02845e-05
1.04039e-05
1.05186e-05
1.06289e-05
1.07348e-05
1.08368e-05
1.09349e-05
1.10294e-05
1.11205e-05
1.12084e-05
1.12935e-05
1.1376e-05
1.14563e-05
1.15346e-05
1.16114e-05
1.16872e-05
1.17624e-05
1.18379e-05
1.19149e-05
1.19962e-05
1.20871e-05
1.2194e-05
1.23155e-05
1.24237e-05
1.24552e-05
1.24157e-05
1.21092e-05
1.19115e-05
1.2049e-05
1.24032e-05
1.2433e-05
1.20049e-05
1.16273e-05
1.15525e-05
1.16205e-05
1.16817e-05
1.17338e-05
1.18043e-05
1.19291e-05
1.21671e-05
1.24509e-05
1.24462e-05
1.19929e-05
1.14896e-05
1.12771e-05
1.12586e-05
1.13854e-05
1.18108e-05
1.23458e-05
1.23577e-05
1.18529e-05
1.14838e-05
1.14382e-05
1.15102e-05
1.1553e-05
1.15406e-05
1.14764e-05
1.1403e-05
1.14895e-05
1.19046e-05
1.23846e-05
1.23262e-05
1.18206e-05
1.14919e-05
1.14703e-05
1.14268e-05
1.14371e-05
1.14214e-05
1.1418e-05
1.14689e-05
1.15719e-05
1.16554e-05
1.16346e-05
1.15023e-05
1.13305e-05
1.11915e-05
1.11069e-05
1.10597e-05
1.10259e-05
1.09915e-05
1.09516e-05
1.09053e-05
1.08522e-05
1.07913e-05
1.07219e-05
1.06435e-05
1.0556e-05
1.04598e-05
1.03552e-05
1.0243e-05
1.01237e-05
9.99787e-06
9.86581e-06
9.72777e-06
9.96935e-06
7.47211e-06
9.76202e-06
9.90187e-06
1.00363e-05
1.01655e-05
1.02896e-05
1.04089e-05
1.05235e-05
1.06336e-05
1.07395e-05
1.08414e-05
1.09394e-05
1.10338e-05
1.11248e-05
1.12127e-05
1.12978e-05
1.13802e-05
1.14604e-05
1.15387e-05
1.16155e-05
1.16913e-05
1.17666e-05
1.18422e-05
1.19193e-05
1.20007e-05
1.20911e-05
1.21961e-05
1.23135e-05
1.24161e-05
1.24447e-05
1.24126e-05
1.21284e-05
1.19511e-05
1.20817e-05
1.23939e-05
1.24074e-05
1.20055e-05
1.16359e-05
1.15489e-05
1.16088e-05
1.16701e-05
1.17306e-05
1.18235e-05
1.19776e-05
1.222e-05
1.24622e-05
1.24226e-05
1.19851e-05
1.14951e-05
1.12725e-05
1.12486e-05
1.13784e-05
1.17959e-05
1.23104e-05
1.23308e-05
1.18548e-05
1.14917e-05
1.14412e-05
1.15131e-05
1.15582e-05
1.15456e-05
1.14789e-05
1.14042e-05
1.14893e-05
1.18921e-05
1.23529e-05
1.23044e-05
1.18233e-05
1.14973e-05
1.14701e-05
1.14254e-05
1.14356e-05
1.1419e-05
1.14155e-05
1.14683e-05
1.15737e-05
1.16583e-05
1.16377e-05
1.15051e-05
1.13326e-05
1.11923e-05
1.11068e-05
1.10593e-05
1.10261e-05
1.09925e-05
1.09534e-05
1.09075e-05
1.08545e-05
1.07935e-05
1.07239e-05
1.06452e-05
1.05573e-05
1.04607e-05
1.03557e-05
1.02432e-05
1.01237e-05
9.99758e-06
9.86532e-06
9.7271e-06
9.96845e-06
7.4812e-06
9.76762e-06
9.90738e-06
1.00417e-05
1.01708e-05
1.02948e-05
1.04139e-05
1.05284e-05
1.06385e-05
1.07443e-05
1.0846e-05
1.09439e-05
1.10383e-05
1.11292e-05
1.1217e-05
1.1302e-05
1.13844e-05
1.14645e-05
1.15428e-05
1.16195e-05
1.16953e-05
1.17706e-05
1.18462e-05
1.19234e-05
1.20047e-05
1.20946e-05
1.21978e-05
1.23113e-05
1.24086e-05
1.24346e-05
1.24098e-05
1.21484e-05
1.19923e-05
1.21171e-05
1.23902e-05
1.23848e-05
1.20036e-05
1.16432e-05
1.15457e-05
1.15964e-05
1.16566e-05
1.17258e-05
1.18419e-05
1.20261e-05
1.22755e-05
1.24823e-05
1.24072e-05
1.19771e-05
1.15001e-05
1.12709e-05
1.12417e-05
1.13735e-05
1.17822e-05
1.22763e-05
1.2303e-05
1.18548e-05
1.14996e-05
1.14449e-05
1.15164e-05
1.15636e-05
1.1551e-05
1.14824e-05
1.14066e-05
1.14896e-05
1.1879e-05
1.23208e-05
1.22813e-05
1.18244e-05
1.15027e-05
1.14704e-05
1.14239e-05
1.1434e-05
1.14165e-05
1.14127e-05
1.14668e-05
1.15739e-05
1.16593e-05
1.16391e-05
1.1507e-05
1.13343e-05
1.11932e-05
1.11068e-05
1.10592e-05
1.10265e-05
1.09936e-05
1.0955e-05
1.09095e-05
1.08566e-05
1.07955e-05
1.07256e-05
1.06466e-05
1.05583e-05
1.04613e-05
1.0356e-05
1.02431e-05
1.01233e-05
9.99694e-06
9.86447e-06
9.72606e-06
9.96714e-06
7.49054e-06
9.77336e-06
9.91303e-06
1.00472e-05
1.01762e-05
1.03001e-05
1.04191e-05
1.05335e-05
1.06434e-05
1.07491e-05
1.08507e-05
1.09485e-05
1.10427e-05
1.11336e-05
1.12213e-05
1.13061e-05
1.13885e-05
1.14685e-05
1.15467e-05
1.16234e-05
1.16991e-05
1.17743e-05
1.18499e-05
1.19271e-05
1.20083e-05
1.20976e-05
1.21991e-05
1.2309e-05
1.24013e-05
1.24248e-05
1.24075e-05
1.21692e-05
1.20348e-05
1.21551e-05
1.23923e-05
1.23664e-05
1.20008e-05
1.16496e-05
1.1543e-05
1.15836e-05
1.16414e-05
1.17189e-05
1.18583e-05
1.20726e-05
1.23314e-05
1.2509e-05
1.23997e-05
1.19703e-05
1.15051e-05
1.12721e-05
1.12384e-05
1.13711e-05
1.17703e-05
1.22439e-05
1.22749e-05
1.18529e-05
1.15072e-05
1.14494e-05
1.15202e-05
1.15691e-05
1.15567e-05
1.14867e-05
1.14102e-05
1.14906e-05
1.18659e-05
1.22891e-05
1.22574e-05
1.1824e-05
1.15081e-05
1.14712e-05
1.14225e-05
1.14323e-05
1.14139e-05
1.14097e-05
1.14645e-05
1.15724e-05
1.16582e-05
1.16387e-05
1.15076e-05
1.13355e-05
1.1194e-05
1.11069e-05
1.10591e-05
1.10268e-05
1.09945e-05
1.09565e-05
1.09113e-05
1.08584e-05
1.07972e-05
1.07271e-05
1.06476e-05
1.0559e-05
1.04615e-05
1.03558e-05
1.02426e-05
1.01225e-05
9.99591e-06
9.8632e-06
9.72459e-06
9.96535e-06
7.50009e-06
9.77922e-06
9.91878e-06
1.00529e-05
1.01817e-05
1.03055e-05
1.04244e-05
1.05386e-05
1.06484e-05
1.0754e-05
1.08555e-05
1.09531e-05
1.10472e-05
1.11379e-05
1.12255e-05
1.13102e-05
1.13924e-05
1.14724e-05
1.15504e-05
1.1627e-05
1.17026e-05
1.17778e-05
1.18533e-05
1.19304e-05
1.20114e-05
1.21001e-05
1.21999e-05
1.23064e-05
1.2394e-05
1.24152e-05
1.24055e-05
1.21903e-05
1.20778e-05
1.21949e-05
1.23995e-05
1.23531e-05
1.19985e-05
1.16558e-05
1.15409e-05
1.15707e-05
1.1625e-05
1.17098e-05
1.18715e-05
1.2115e-05
1.23851e-05
1.25396e-05
1.23988e-05
1.1966e-05
1.15108e-05
1.12762e-05
1.12386e-05
1.13716e-05
1.17608e-05
1.2214e-05
1.22471e-05
1.18495e-05
1.15146e-05
1.14545e-05
1.15243e-05
1.15747e-05
1.15627e-05
1.14917e-05
1.1415e-05
1.14924e-05
1.18533e-05
1.22582e-05
1.22335e-05
1.18227e-05
1.15135e-05
1.14724e-05
1.14212e-05
1.14305e-05
1.14113e-05
1.14066e-05
1.14615e-05
1.15693e-05
1.1655e-05
1.16363e-05
1.15069e-05
1.13359e-05
1.11945e-05
1.11069e-05
1.10589e-05
1.10268e-05
1.09952e-05
1.09576e-05
1.09127e-05
1.08599e-05
1.07985e-05
1.07281e-05
1.06483e-05
1.05592e-05
1.04613e-05
1.03553e-05
1.02417e-05
1.01213e-05
9.99442e-06
9.86147e-06
9.72264e-06
9.96303e-06
7.50981e-06
9.78516e-06
9.92462e-06
1.00586e-05
1.01873e-05
1.03109e-05
1.04297e-05
1.05438e-05
1.06534e-05
1.07588e-05
1.08602e-05
1.09577e-05
1.10516e-05
1.11422e-05
1.12296e-05
1.13142e-05
1.13963e-05
1.14761e-05
1.1554e-05
1.16305e-05
1.17059e-05
1.1781e-05
1.18563e-05
1.19333e-05
1.2014e-05
1.21021e-05
1.22002e-05
1.23033e-05
1.23864e-05
1.24058e-05
1.24037e-05
1.22113e-05
1.21203e-05
1.22351e-05
1.24108e-05
1.2345e-05
1.19983e-05
1.16626e-05
1.15396e-05
1.15581e-05
1.16077e-05
1.16985e-05
1.18804e-05
1.21514e-05
1.24341e-05
1.25711e-05
1.24028e-05
1.19642e-05
1.15175e-05
1.12827e-05
1.12422e-05
1.13749e-05
1.17539e-05
1.21868e-05
1.22202e-05
1.1845e-05
1.15218e-05
1.14604e-05
1.15288e-05
1.15804e-05
1.15688e-05
1.14972e-05
1.14206e-05
1.1495e-05
1.18413e-05
1.22286e-05
1.22101e-05
1.18209e-05
1.15189e-05
1.14741e-05
1.14199e-05
1.14287e-05
1.14089e-05
1.14035e-05
1.14578e-05
1.15647e-05
1.16497e-05
1.1632e-05
1.15048e-05
1.13356e-05
1.11946e-05
1.11067e-05
1.10584e-05
1.10266e-05
1.09954e-05
1.09583e-05
1.09137e-05
1.08609e-05
1.07993e-05
1.07286e-05
1.06484e-05
1.05589e-05
1.04607e-05
1.03543e-05
1.02403e-05
1.01196e-05
9.99241e-06
9.85921e-06
9.72015e-06
9.96009e-06
7.51967e-06
9.79118e-06
9.93052e-06
1.00643e-05
1.01929e-05
1.03164e-05
1.0435e-05
1.05489e-05
1.06584e-05
1.07637e-05
1.08649e-05
1.09622e-05
1.1056e-05
1.11464e-05
1.12337e-05
1.13181e-05
1.14e-05
1.14797e-05
1.15574e-05
1.16337e-05
1.1709e-05
1.17838e-05
1.1859e-05
1.19357e-05
1.20161e-05
1.21034e-05
1.21998e-05
1.22997e-05
1.23784e-05
1.23963e-05
1.24022e-05
1.22317e-05
1.21611e-05
1.2274e-05
1.24245e-05
1.23418e-05
1.20007e-05
1.16705e-05
1.15395e-05
1.15463e-05
1.15901e-05
1.16852e-05
1.18846e-05
1.21802e-05
1.2476e-05
1.26006e-05
1.24096e-05
1.19647e-05
1.15252e-05
1.12913e-05
1.12486e-05
1.1381e-05
1.17497e-05
1.21626e-05
1.21948e-05
1.184e-05
1.15288e-05
1.14668e-05
1.15338e-05
1.15861e-05
1.1575e-05
1.15031e-05
1.14268e-05
1.14979e-05
1.18296e-05
1.22002e-05
1.21878e-05
1.18189e-05
1.15244e-05
1.14761e-05
1.14187e-05
1.14269e-05
1.14066e-05
1.14004e-05
1.14535e-05
1.15586e-05
1.16425e-05
1.16257e-05
1.15013e-05
1.13345e-05
1.11942e-05
1.1106e-05
1.10574e-05
1.10257e-05
1.0995e-05
1.09584e-05
1.09141e-05
1.08613e-05
1.07996e-05
1.07286e-05
1.0648e-05
1.05582e-05
1.04595e-05
1.03527e-05
1.02384e-05
1.01173e-05
9.98984e-06
9.85636e-06
9.71705e-06
9.95649e-06
7.52961e-06
9.79724e-06
9.93646e-06
1.00701e-05
1.01985e-05
1.03219e-05
1.04403e-05
1.05541e-05
1.06634e-05
1.07685e-05
1.08695e-05
1.09667e-05
1.10603e-05
1.11505e-05
1.12376e-05
1.13219e-05
1.14036e-05
1.1483e-05
1.15606e-05
1.16367e-05
1.17117e-05
1.17863e-05
1.18612e-05
1.19376e-05
1.20176e-05
1.2104e-05
1.21986e-05
1.22953e-05
1.237e-05
1.2387e-05
1.24011e-05
1.22515e-05
1.21994e-05
1.23099e-05
1.24385e-05
1.23423e-05
1.20061e-05
1.16798e-05
1.15407e-05
1.15356e-05
1.15728e-05
1.16703e-05
1.18838e-05
1.22005e-05
1.25089e-05
1.26255e-05
1.24168e-05
1.19667e-05
1.15334e-05
1.13013e-05
1.12572e-05
1.13892e-05
1.17478e-05
1.21412e-05
1.21712e-05
1.18348e-05
1.15357e-05
1.14737e-05
1.15391e-05
1.15918e-05
1.1581e-05
1.15091e-05
1.14333e-05
1.1501e-05
1.18182e-05
1.2173e-05