/*--------------------------------*- C++ -*----------------------------------*\
  =========                 |
  \\      /  F ield         | OpenFOAM: The Open Source CFD Toolbox
   \\    /   O peration     | Website:  https://openfoam.org
    \\  /    A nd           | Version:  9
     \\/     M anipulation  |
\*---------------------------------------------------------------------------*/
FoamFile
{
    format      ascii;
    class       volVectorField;
    location    "0.18";
    object      U;
}
// * * * * * * * * * * * * * * * * * * * * * * * * * * * * * * * * * * * * * //

dimensions      [0 1 -1 0 0 0 0];

internalField   nonuniform List<vector> 
20000
(
(7.214e-05 0 -0.00341116)
(9.63809e-05 0 -0.00927912)
(8.97792e-05 0 -0.0146225)
(9.05481e-05 0 -0.0200563)
(0.000100591 0 -0.0257798)
(0.000115344 0 -0.0319108)
(0.00013458 0 -0.0385278)
(0.000157875 0 -0.0456853)
(0.00018505 0 -0.0534186)
(0.000216226 0 -0.0617517)
(0.000251717 0 -0.0707054)
(0.000291992 0 -0.0803025)
(0.000337685 0 -0.0905712)
(0.000389637 0 -0.101548)
(0.000448947 0 -0.113279)
(0.000517028 0 -0.12582)
(0.00059566 0 -0.139235)
(0.000687082 0 -0.153589)
(0.000794188 0 -0.168933)
(0.000920988 0 -0.185288)
(0.00107369 0 -0.202563)
(0.00126545 0 -0.220283)
(0.00154415 0 -0.236781)
(0.00211764 0 -0.247956)
(0.00373068 0 -0.248779)
(0.00852019 0 -0.250273)
(0.0225176 0 -0.33431)
(0.0512922 0 -0.703133)
(0.0319193 0 -1.34661)
(-0.0465306 0 -1.19512)
(-0.023838 0 -0.185914)
(0.018926 0 0.557063)
(0.0302911 0 1.03265)
(0.0852042 0 0.902584)
(0.261104 0 -2.32231)
(-0.221942 0 -2.34421)
(-0.082619 0 0.92361)
(-0.0229475 0 1.13582)
(-0.0171001 0 0.855012)
(-0.00805787 0 0.703402)
(-0.00132938 0 0.649991)
(0.0055959 0 0.659818)
(0.0168827 0 0.777773)
(0.029026 0 1.0668)
(0.100291 0 0.940769)
(0.264691 0 -2.49707)
(-0.297447 0 -2.37513)
(-0.0716334 0 0.966411)
(-0.0161349 0 1.26171)
(-0.0107662 0 1.07599)
(-0.00238036 0 1.03712)
(-0.0111276 0 1.06309)
(0.0381357 0 0.385461)
(0.00494388 0 -1.70511)
(-0.0681613 0 -0.557658)
(0.00239074 0 0.741846)
(0.00260798 0 0.954695)
(-0.00290747 0 0.891847)
(-0.00217858 0 0.840162)
(-0.00047844 0 0.819135)
(0.00133994 0 0.824238)
(0.003414 0 0.857613)
(0.00491061 0 0.935497)
(-0.00744218 0 0.998545)
(0.0422263 0 0.310723)
(0.000769391 0 -1.69855)
(-0.0639715 0 -0.386397)
(0.00337567 0 0.755779)
(0.000142988 0 0.90092)
(-0.00476287 0 0.817223)
(-0.00476493 0 0.742584)
(-0.00427386 0 0.688351)
(-0.00422397 0 0.641767)
(-0.00489633 0 0.593035)
(-0.00593853 0 0.518903)
(-0.00586986 0 0.390734)
(-0.0039194 0 0.23209)
(-0.00134494 0 0.155783)
(0.000875384 0 0.21872)
(0.00203219 0 0.323234)
(0.00154908 0 0.384098)
(0.000268737 0 0.396286)
(-0.000839946 0 0.382545)
(-0.00153033 0 0.358287)
(-0.0019062 0 0.329094)
(-0.00207516 0 0.29636)
(-0.0020927 0 0.260716)
(-0.0019881 0 0.223105)
(-0.00179048 0 0.18494)
(-0.00153732 0 0.147977)
(-0.00126952 0 0.114018)
(-0.00102124 0 0.0845392)
(-0.00081274 0 0.0603799)
(-0.00064979 0 0.0416429)
(-0.000528387 0 0.0278143)
(-0.000440787 0 0.0180165)
(-0.00038003 0 0.0112697)
(-0.000339862 0 0.00668015)
(-0.000314807 0 0.00351893)
(-0.000318116 0 0.00113679)
(0.000213553 0 -0.00342068)
(0.000274779 0 -0.00922402)
(0.000266386 0 -0.0145376)
(0.000272165 0 -0.0199932)
(0.000299004 0 -0.025735)
(0.000337629 0 -0.0318801)
(0.000388726 0 -0.0385074)
(0.000452278 0 -0.0456728)
(0.00052844 0 -0.0534132)
(0.000618037 0 -0.0617538)
(0.00072252 0 -0.070716)
(0.000843892 0 -0.0803228)
(0.000984814 0 -0.0906029)
(0.00114886 0 -0.101593)
(0.00134084 0 -0.11334)
(0.00156738 0 -0.1259)
(0.00183767 0 -0.139337)
(0.00216502 0 -0.153718)
(0.00256987 0 -0.169098)
(0.00308609 0 -0.1855)
(0.00377472 0 -0.202851)
(0.00475384 0 -0.220712)
(0.00628246 0 -0.23755)
(0.00901636 0 -0.249698)
(0.0145299 0 -0.253334)
(0.0263179 0 -0.262094)
(0.0531099 0 -0.358845)
(0.0955662 0 -0.720058)
(0.0558733 0 -1.27173)
(-0.0695733 0 -1.15364)
(-0.04251 0 -0.230946)
(0.045074 0 0.528818)
(0.0790434 0 1.0084)
(0.194811 0 0.783326)
(0.327048 0 -2.09492)
(-0.332593 0 -2.11972)
(-0.193848 0 0.794715)
(-0.0670885 0 1.11515)
(-0.0451669 0 0.846926)
(-0.0222137 0 0.695866)
(-0.00334096 0 0.643289)
(0.0162831 0 0.650901)
(0.0444691 0 0.764183)
(0.0770249 0 1.0362)
(0.225692 0 0.805687)
(0.342751 0 -2.1856)
(-0.380922 0 -2.18782)
(-0.17904 0 0.821553)
(-0.0483027 0 1.24062)
(-0.0286927 0 1.0681)
(-0.00742814 0 1.0327)
(-0.0224678 0 1.05328)
(0.0849343 0 0.344905)
(0.00422639 0 -1.5701)
(-0.152491 0 -0.597986)
(-0.00625306 0 0.708471)
(0.00199415 0 0.956321)
(-0.00685531 0 0.892811)
(-0.00497643 0 0.838305)
(-0.000977667 0 0.816696)
(0.00334144 0 0.821525)
(0.00790869 0 0.855281)
(0.0128802 0 0.936175)
(-0.0111503 0 0.990333)
(0.0963546 0 0.273069)
(-0.00279524 0 -1.56022)
(-0.146508 0 -0.432436)
(-0.00412424 0 0.72796)
(-0.00421879 0 0.903499)
(-0.0125701 0 0.818519)
(-0.0126551 0 0.741854)
(-0.0119607 0 0.687653)
(-0.0120293 0 0.641829)
(-0.0132893 0 0.593943)
(-0.0146916 0 0.519566)
(-0.0135033 0 0.389637)
(-0.00928299 0 0.230348)
(-0.00482514 0 0.153984)
(-0.000793797 0 0.215304)
(0.00211556 0 0.321088)
(0.00210918 0 0.38469)
(0.000104846 0 0.398092)
(-0.00204233 0 0.384209)
(-0.00357249 0 0.359458)
(-0.00449038 0 0.32986)
(-0.00494074 0 0.296837)
(-0.00503469 0 0.260962)
(-0.00485361 0 0.223154)
(-0.00447676 0 0.184838)
(-0.00398948 0 0.147785)
(-0.00347282 0 0.1138)
(-0.00298847 0 0.0843399)
(-0.00257097 0 0.0602186)
(-0.00223065 0 0.0415182)
(-0.00196317 0 0.0277167)
(-0.00175959 0 0.0179394)
(-0.00161265 0 0.0112141)
(-0.00150926 0 0.00665543)
(-0.00143822 0 0.0035384)
(-0.00145119 0 0.00119156)
(0.000301431 0 -0.00349721)
(0.000353081 0 -0.00931327)
(0.00035738 0 -0.0146312)
(0.000379998 0 -0.0201148)
(0.000424827 0 -0.0258957)
(0.000486808 0 -0.0320789)
(0.000568125 0 -0.0387405)
(0.000669794 0 -0.0459371)
(0.000792781 0 -0.0537075)
(0.000939043 0 -0.0620785)
(0.00111153 0 -0.0710724)
(0.00131417 0 -0.0807136)
(0.00155214 0 -0.0910322)
(0.00183244 0 -0.102067)
(0.00216456 0 -0.113867)
(0.00256167 0 -0.126492)
(0.00304248 0 -0.140012)
(0.00363435 0 -0.154502)
(0.00437919 0 -0.170032)
(0.0053447 0 -0.186654)
(0.0066458 0 -0.204348)
(0.00848349 0 -0.222796)
(0.0112366 0 -0.240762)
(0.0157384 0 -0.255353)
(0.0238001 0 -0.264612)
(0.0391277 0 -0.285126)
(0.06975 0 -0.395778)
(0.109307 0 -0.73267)
(0.0630398 0 -1.18101)
(-0.0646435 0 -1.09289)
(-0.0457942 0 -0.286048)
(0.0597473 0 0.47947)
(0.105285 0 0.961564)
(0.252094 0 0.644615)
(0.302083 0 -1.8741)
(-0.337024 0 -1.89739)
(-0.248759 0 0.653951)
(-0.0932214 0 1.06802)
(-0.0628933 0 0.825151)
(-0.0319116 0 0.678476)
(-0.00462199 0 0.627895)
(0.0237898 0 0.631908)
(0.061002 0 0.736783)
(0.100503 0 0.978959)
(0.285024 0 0.642628)
(0.329935 0 -1.92755)
(-0.342056 0 -1.97788)
(-0.235223 0 0.661296)
(-0.0628251 0 1.19277)
(-0.0386247 0 1.05018)
(-0.0104637 0 1.02433)
(-0.0264042 0 1.03163)
(0.105087 0 0.294312)
(-0.00282667 0 -1.42026)
(-0.190781 0 -0.635744)
(-0.0178916 0 0.662199)
(-0.00172021 0 0.956077)
(-0.00991436 0 0.894884)
(-0.00687578 0 0.836076)
(-0.00118166 0 0.813227)
(0.00495111 0 0.817877)
(0.0108419 0 0.853364)
(0.0182445 0 0.938619)
(-0.00980853 0 0.973338)
(0.121465 0 0.227323)
(-0.00994287 0 -1.40487)
(-0.186776 0 -0.475876)
(-0.0156949 0 0.688165)
(-0.0110495 0 0.904983)
(-0.0193624 0 0.821559)
(-0.0194195 0 0.741743)
(-0.0187512 0 0.687318)
(-0.0189155 0 0.642621)
(-0.0204813 0 0.595636)
(-0.021898 0 0.519614)
(-0.0196902 0 0.385173)
(-0.0138056 0 0.223522)
(-0.00796784 0 0.147953)
(-0.00274116 0 0.210032)
(0.00113306 0 0.319219)
(0.00139517 0 0.386852)
(-0.000930319 0 0.401832)
(-0.00356618 0 0.3875)
(-0.00551175 0 0.361696)
(-0.00671405 0 0.331116)
(-0.00732187 0 0.297272)
(-0.00746112 0 0.260696)
(-0.00723392 0 0.222303)
(-0.00674539 0 0.183556)
(-0.00610837 0 0.146259)
(-0.00542838 0 0.112216)
(-0.0047854 0 0.0828437)
(-0.00422531 0 0.0588989)
(-0.00376388 0 0.0404096)
(-0.00339803 0 0.0268193)
(-0.00311811 0 0.0172393)
(-0.00291592 0 0.0106983)
(-0.00277389 0 0.00631604)
(-0.00267287 0 0.00336215)
(-0.00267065 0 0.00114268)
(0.00028522 0 -0.00352918)
(0.000323006 0 -0.00937403)
(0.000332151 0 -0.0147114)
(0.000364098 0 -0.0202322)
(0.000421815 0 -0.0260633)
(0.000502532 0 -0.0322984)
(0.000609579 0 -0.0390088)
(0.000744608 0 -0.0462519)
(0.000909357 0 -0.0540685)
(0.00110693 0 -0.0624871)
(0.00134177 0 -0.071532)
(0.00161968 0 -0.0812294)
(0.00194832 0 -0.0916118)
(0.00233796 0 -0.102721)
(0.00280247 0 -0.11461)
(0.00336096 0 -0.127347)
(0.00404028 0 -0.141009)
(0.00487914 0 -0.155687)
(0.00593515 0 -0.171477)
(0.00729707 0 -0.188473)
(0.00910694 0 -0.206734)
(0.0115965 0 -0.226093)
(0.0151682 0 -0.245639)
(0.0206681 0 -0.263249)
(0.0299599 0 -0.278647)
(0.0466962 0 -0.310104)
(0.0767383 0 -0.428464)
(0.108023 0 -0.733376)
(0.0619665 0 -1.10226)
(-0.0529901 0 -1.03727)
(-0.0438848 0 -0.337487)
(0.0648568 0 0.420078)
(0.117032 0 0.904601)
(0.271943 0 0.549234)
(0.269338 0 -1.66542)
(-0.301078 0 -1.70332)
(-0.259137 0 0.538434)
(-0.100501 0 1.0136)
(-0.0699184 0 0.798831)
(-0.0367785 0 0.656349)
(-0.00552353 0 0.607169)
(0.0269783 0 0.607343)
(0.0675388 0 0.702953)
(0.107699 0 0.914101)
(0.296409 0 0.524678)
(0.296335 0 -1.705)
(-0.284889 0 -1.78135)
(-0.24029 0 0.533686)
(-0.059838 0 1.13712)
(-0.0394017 0 1.02931)
(-0.00987916 0 1.01318)
(-0.023695 0 1.0042)
(0.107275 0 0.260836)
(-0.0102452 0 -1.28255)
(-0.196807 0 -0.663894)
(-0.0268253 0 0.606588)
(-0.00415884 0 0.951104)
(-0.0114312 0 0.896826)
(-0.00812855 0 0.83337)
(-0.0012752 0 0.808785)
(0.00625499 0 0.813219)
(0.0125444 0 0.850969)
(0.0214062 0 0.939727)
(-0.00590853 0 0.952565)
(0.124543 0 0.199584)
(-0.0173573 0 -1.26061)
(-0.196013 0 -0.509065)
(-0.0253614 0 0.639328)
(-0.0163461 0 0.902971)
(-0.0244288 0 0.825347)
(-0.0251645 0 0.742171)
(-0.0246662 0 0.687315)
(-0.0248757 0 0.643814)
(-0.026661 0 0.597599)
(-0.0281127 0 0.519435)
(-0.0252631 0 0.379998)
(-0.0181825 0 0.215523)
(-0.0109779 0 0.140324)
(-0.00453743 0 0.203424)
(3.06268e-05 0 0.316483)
(0.000386448 0 0.38879)
(-0.00221518 0 0.405935)
(-0.00520136 0 0.391399)
(-0.0074237 0 0.36452)
(-0.00879838 0 0.332829)
(-0.0094872 0 0.298019)
(-0.00963351 0 0.260612)
(-0.00935653 0 0.221534)
(-0.0087793 0 0.182284)
(-0.00803221 0 0.144697)
(-0.00723555 0 0.110567)
(-0.00647994 0 0.0812667)
(-0.00581788 0 0.0574896)
(-0.00526874 0 0.0392094)
(-0.00483071 0 0.0258354)
(-0.00449403 0 0.0164646)
(-0.00424981 0 0.0101244)
(-0.0040792 0 0.00593497)
(-0.00396007 0 0.0031547)
(-0.00394042 0 0.00107628)
(5.29246e-05 0 -0.00354997)
(8.58987e-05 0 -0.00942669)
(9.67249e-05 0 -0.014799)
(0.000136655 0 -0.0203707)
(0.000204186 0 -0.0262643)
(0.000299857 0 -0.0325643)
(0.000427861 0 -0.0393374)
(0.000590259 0 -0.0466413)
(0.000789603 0 -0.054519)
(0.00103 0 -0.0630015)
(0.00131713 0 -0.0721153)
(0.00165838 0 -0.0818889)
(0.0020634 0 -0.0923578)
(0.00254499 0 -0.103568)
(0.00312023 0 -0.115579)
(0.00381232 0 -0.128464)
(0.0046533 0 -0.142315)
(0.00568838 0 -0.157239)
(0.00698294 0 -0.17336)
(0.00863409 0 -0.190817)
(0.0107909 0 -0.209742)
(0.0136878 0 -0.2301)
(0.0177144 0 -0.251257)
(0.023664 0 -0.271749)
(0.0333 0 -0.292646)
(0.0498664 0 -0.332814)
(0.0766513 0 -0.453947)
(0.0988045 0 -0.727729)
(0.0565423 0 -1.03793)
(-0.0408382 0 -0.989934)
(-0.0400408 0 -0.379189)
(0.0624882 0 0.361781)
(0.119716 0 0.847426)
(0.266685 0 0.485449)
(0.237261 0 -1.47039)
(-0.254504 0 -1.52393)
(-0.243198 0 0.456146)
(-0.0966867 0 0.96366)
(-0.0692743 0 0.774114)
(-0.0377194 0 0.633795)
(-0.00605948 0 0.584936)
(0.026943 0 0.582033)
(0.0674488 0 0.670285)
(0.107778 0 0.853598)
(0.279934 0 0.443936)
(0.258708 0 -1.50579)
(-0.230409 0 -1.601)
(-0.21526 0 0.443457)
(-0.0478892 0 1.08605)
(-0.0331233 0 1.01115)
(-0.00559656 0 1.00226)
(-0.0154369 0 0.975672)
(0.101414 0 0.240272)
(-0.0121433 0 -1.15911)
(-0.18303 0 -0.678608)
(-0.0325372 0 0.550964)
(-0.00442619 0 0.942868)
(-0.0111421 0 0.898246)
(-0.00860021 0 0.830111)
(-0.00119124 0 0.803511)
(0.00730477 0 0.807797)
(0.013391 0 0.848102)
(0.0226455 0 0.939666)
(-0.000756363 0 0.931013)
(0.115404 0 0.185445)
(-0.0207331 0 -1.13026)
(-0.185724 0 -0.528322)
(-0.0324366 0 0.590021)
(-0.0193035 0 0.898619)
(-0.0275477 0 0.829207)
(-0.0297267 0 0.742658)
(-0.0296056 0 0.687182)
(-0.0299322 0 0.644843)
(-0.0318904 0 0.599223)
(-0.0332873 0 0.518618)
(-0.0299508 0 0.374201)
(-0.0220518 0 0.207001)
(-0.0137904 0 0.132065)
(-0.00643386 0 0.196296)
(-0.00138416 0 0.313226)
(-0.000881011 0 0.390331)
(-0.0035739 0 0.409916)
(-0.00676503 0 0.395338)
(-0.00917528 0 0.367399)
(-0.0106638 0 0.334555)
(-0.0113939 0 0.298736)
(-0.0115279 0 0.260469)
(-0.0112035 0 0.220687)
(-0.0105596 0 0.180928)
(-0.00973825 0 0.143051)
(-0.00886724 0 0.108837)
(-0.00804126 0 0.0796101)
(-0.00731501 0 0.056003)
(-0.00670931 0 0.0379357)
(-0.00622338 0 0.0247843)
(-0.00584784 0 0.0156318)
(-0.00557331 0 0.00950217)
(-0.00538077 0 0.00551222)
(-0.00524771 0 0.00291104)
(-0.0052126 0 0.000991226)
(-0.000474897 0 -0.00356861)
(-0.000435168 0 -0.009481)
(-0.000422535 0 -0.0148978)
(-0.000378018 0 -0.0205301)
(-0.00030042 0 -0.0264949)
(-0.000191598 0 -0.0328692)
(-4.68606e-05 0 -0.0397156)
(0.000136924 0 -0.0470914)
(0.000363003 0 -0.0550421)
(0.000636221 0 -0.0636011)
(0.000963153 0 -0.0727974)
(0.00135229 0 -0.0826624)
(0.00181462 0 -0.093235)
(0.00236448 0 -0.104565)
(0.00302077 0 -0.116719)
(0.00380876 0 -0.129778)
(0.00476277 0 -0.143847)
(0.00593032 0 -0.159048)
(0.00737871 0 -0.175532)
(0.00920518 0 -0.193478)
(0.0115543 0 -0.213079)
(0.0146469 0 -0.234408)
(0.0188399 0 -0.257071)
(0.0248355 0 -0.280179)
(0.0341775 0 -0.305851)
(0.0494866 0 -0.352685)
(0.0719305 0 -0.473408)
(0.0864927 0 -0.719187)
(0.0493336 0 -0.984502)
(-0.0311309 0 -0.949243)
(-0.0364045 0 -0.412536)
(0.0545527 0 0.306694)
(0.115151 0 0.792094)
(0.247853 0 0.438102)
(0.206662 0 -1.29626)
(-0.213987 0 -1.36209)
(-0.218545 0 0.395752)
(-0.0885381 0 0.920134)
(-0.0641798 0 0.752835)
(-0.0360011 0 0.613159)
(-0.00631719 0 0.563674)
(0.0248677 0 0.558125)
(0.0632409 0 0.639888)
(0.104805 0 0.798528)
(0.254285 0 0.383864)
(0.226279 0 -1.33404)
(-0.185828 0 -1.44296)
(-0.181102 0 0.373)
(-0.0324045 0 1.04154)
(-0.0217822 0 0.997116)
(0.00196343 0 0.992908)
(-0.00332665 0 0.949405)
(0.0944541 0 0.228633)
(-0.00764725 0 -1.05176)
(-0.159821 0 -0.683467)
(-0.035535 0 0.499939)
(-0.00335675 0 0.933544)
(-0.00963709 0 0.899811)
(-0.0083355 0 0.826901)
(-0.000867312 0 0.7979)
(0.00816977 0 0.802107)
(0.0138021 0 0.845118)
(0.0227601 0 0.938773)
(0.00476977 0 0.911386)
(0.101774 0 0.180129)
(-0.0194633 0 -1.01686)
(-0.165992 0 -0.537536)
(-0.03738 0 0.544797)
(-0.0207925 0 0.893783)
(-0.0293304 0 0.833634)
(-0.0331801 0 0.743639)
(-0.0335684 0 0.68721)
(-0.0341114 0 0.645915)
(-0.036215 0 0.600743)
(-0.0374851 0 0.517462)
(-0.0337602 0 0.367973)
(-0.0252925 0 0.197866)
(-0.016262 0 0.122995)
(-0.00832107 0 0.188623)
(-0.00301652 0 0.309634)
(-0.00236164 0 0.391694)
(-0.00500891 0 0.413917)
(-0.00827004 0 0.399401)
(-0.0107758 0 0.370384)
(-0.0123212 0 0.336325)
(-0.0130613 0 0.299439)
(-0.0131713 0 0.260269)
(-0.0128034 0 0.219759)
(-0.0121078 0 0.179478)
(-0.0112337 0 0.141305)
(-0.0103125 0 0.107005)
(-0.00944013 0 0.0778535)
(-0.00867193 0 0.0544195)
(-0.00802924 0 0.0365716)
(-0.00751186 0 0.0236525)
(-0.00711049 0 0.0147299)
(-0.00681485 0 0.00882191)
(-0.0066058 0 0.00504034)
(-0.00646179 0 0.00262834)
(-0.00641348 0 0.000888013)
(-0.00133046 0 -0.0035931)
(-0.00128213 0 -0.00955004)
(-0.00126522 0 -0.0150187)
(-0.00121402 0 -0.0207162)
(-0.00112674 0 -0.0267567)
(-0.00100708 0 -0.0332109)
(-0.000849559 0 -0.0401371)
(-0.000650179 0 -0.0475925)
(-0.000405227 0 -0.0556241)
(-0.000109442 0 -0.0642682)
(0.000244246 0 -0.0735564)
(0.000664877 0 -0.0835228)
(0.00116402 0 -0.0942096)
(0.0017566 0 -0.105672)
(0.00246206 0 -0.11798)
(0.00330601 0 -0.131227)
(0.00432268 0 -0.145524)
(0.0055587 0 -0.161012)
(0.00707882 0 -0.177865)
(0.0089745 0 -0.196295)
(0.0113778 0 -0.216546)
(0.0144843 0 -0.238782)
(0.0186014 0 -0.262816)
(0.0243222 0 -0.288254)
(0.0329443 0 -0.317988)
(0.0464963 0 -0.369776)
(0.064761 0 -0.488196)
(0.0738954 0 -0.70953)
(0.0416053 0 -0.939607)
(-0.0251495 0 -0.913888)
(-0.0348015 0 -0.438739)
(0.042592 0 0.255409)
(0.103812 0 0.739077)
(0.222904 0 0.399621)
(0.17795 0 -1.14513)
(-0.183513 0 -1.22095)
(-0.195169 0 0.347074)
(-0.0788216 0 0.880584)
(-0.0564115 0 0.734156)
(-0.0325065 0 0.59511)
(-0.00639818 0 0.544443)
(0.0213914 0 0.536224)
(0.0562303 0 0.610862)
(0.0992401 0 0.747147)
(0.230187 0 0.334763)
(0.202221 0 -1.18838)
(-0.150127 0 -1.30892)
(-0.149071 0 0.312221)
(-0.0150985 0 1.00104)
(-0.00642408 0 0.985928)
(0.0124047 0 0.98461)
(0.0104191 0 0.926769)
(0.0895392 0 0.22248)
(0.00120669 0 -0.960954)
(-0.134289 0 -0.681115)
(-0.0363673 0 0.455253)
(-0.00198524 0 0.923918)
(-0.00766617 0 0.901741)
(-0.00756886 0 0.824149)
(-0.000317663 0 0.792329)
(0.0089496 0 0.796509)
(0.0140917 0 0.842289)
(0.0223053 0 0.937223)
(0.00947844 0 0.894292)
(0.0879869 0 0.179313)
(-0.0151093 0 -0.921874)
(-0.143835 0 -0.539731)
(-0.0406616 0 0.505375)
(-0.0218751 0 0.889046)
(-0.0305351 0 0.83877)
(-0.035831 0 0.745408)
(-0.0367277 0 0.687659)
(-0.0375517 0 0.64722)
(-0.0398209 0 0.602314)
(-0.0409858 0 0.516088)
(-0.0369295 0 0.36129)
(-0.0279451 0 0.187981)
(-0.0182665 0 0.11311)
(-0.00996495 0 0.180566)
(-0.0046186 0 0.305922)
(-0.00391533 0 0.39301)
(-0.00650828 0 0.417968)
(-0.00978069 0 0.403583)
(-0.0123213 0 0.373471)
(-0.0138778 0 0.338133)
(-0.0145972 0 0.300116)
(-0.014664 0 0.259995)
(-0.0142413 0 0.218727)
(-0.0134873 0 0.177908)
(-0.0125572 0 0.139436)
(-0.0115853 0 0.105053)
(-0.0106687 0 0.0759833)
(-0.00986312 0 0.0527329)
(-0.00918972 0 0.035117)
(-0.00864795 0 0.022444)
(-0.00822757 0 0.0137643)
(-0.00791663 0 0.00808872)
(-0.00769522 0 0.00452382)
(-0.00754287 0 0.00231122)
(-0.00748492 0 0.000769167)
(-0.00250541 0 -0.00362597)
(-0.00244971 0 -0.00963769)
(-0.00242724 0 -0.0151623)
(-0.0023688 0 -0.0209265)
(-0.00227346 0 -0.0270435)
(-0.00214576 0 -0.0335792)
(-0.00197967 0 -0.0405881)
(-0.00177063 0 -0.0481264)
(-0.00151468 0 -0.0562431)
(-0.00120641 0 -0.0649765)
(-0.000838697 0 -0.0743608)
(-0.000402492 0 -0.0844328)
(0.000113681 0 -0.0952381)
(0.000724484 0 -0.106836)
(0.00144877 0 -0.119302)
(0.00231104 0 -0.132736)
(0.00334364 0 -0.147261)
(0.00458997 0 -0.163031)
(0.00610905 0 -0.180237)
(0.00798225 0 -0.199123)
(0.0103237 0 -0.219971)
(0.0132985 0 -0.243022)
(0.0171633 0 -0.268258)
(0.0224102 0 -0.2957)
(0.0301157 0 -0.328768)
(0.0418312 0 -0.384095)
(0.056528 0 -0.499198)
(0.0618796 0 -0.699547)
(0.0336338 0 -0.901599)
(-0.0226877 0 -0.882977)
(-0.0358795 0 -0.45834)
(0.0280076 0 0.209131)
(0.0868836 0 0.6889)
(0.195517 0 0.36733)
(0.151591 0 -1.01422)
(-0.159963 0 -1.09903)
(-0.174742 0 0.304757)
(-0.067187 0 0.843476)
(-0.0467289 0 0.717646)
(-0.0277633 0 0.580067)
(-0.00639041 0 0.527875)
(0.0169275 0 0.516861)
(0.0473702 0 0.583141)
(0.090767 0 0.698096)
(0.210365 0 0.292567)
(0.184721 0 -1.06356)
(-0.119619 0 -1.1949)
(-0.120481 0 0.257567)
(0.00450992 0 0.962534)
(0.0121272 0 0.977046)
(0.0253858 0 0.977318)
(0.0243699 0 0.908142)
(0.0871005 0 0.220307)
(0.0118182 0 -0.884117)
(-0.110348 0 -0.672698)
(-0.0355843 0 0.417011)
(-0.000772515 0 0.914183)
(-0.00571282 0 0.903821)
(-0.00656125 0 0.821883)
(0.00039113 0 0.786927)
(0.00972461 0 0.791116)
(0.0144235 0 0.839686)
(0.0215648 0 0.935243)
(0.0126081 0 0.879546)
(0.0757726 0 0.180742)
(-0.0096257 0 -0.843173)
(-0.123157 0 -0.536307)
(-0.0427057 0 0.471898)
(-0.0230798 0 0.884463)
(-0.0316595 0 0.844337)
(-0.0380082 0 0.747879)
(-0.0393228 0 0.688548)
(-0.0404462 0 0.648787)
(-0.0429192 0 0.603965)
(-0.0440316 0 0.51452)
(-0.0396466 0 0.354158)
(-0.030112 0 0.177427)
(-0.0198556 0 0.102636)
(-0.011326 0 0.172352)
(-0.00605923 0 0.302248)
(-0.00541055 0 0.394326)
(-0.00800515 0 0.422025)
(-0.0112976 0 0.407804)
(-0.0138582 0 0.376587)
(-0.015404 0 0.339925)
(-0.0160805 0 0.300727)
(-0.0160829 0 0.25962)
(-0.0155854 0 0.217573)
(-0.0147557 0 0.176211)
(-0.0137551 0 0.137444)
(-0.0127216 0 0.102989)
(-0.0117538 0 0.0740151)
(-0.0109073 0 0.0509638)
(-0.0102023 0 0.0335953)
(-0.009637 0 0.0211821)
(-0.00919936 0 0.0127564)
(-0.00887536 0 0.00732059)
(-0.00864362 0 0.00397755)
(-0.0084842 0 0.00197103)
(-0.00842006 0 0.000639764)
(-0.00397252 0 -0.00366655)
(-0.00391146 0 -0.00974226)
(-0.00388397 0 -0.0153258)
(-0.00381973 0 -0.0211563)
(-0.00371879 0 -0.0273479)
(-0.0035864 0 -0.0339636)
(-0.00341629 0 -0.0410546)
(-0.00320359 0 -0.0486762)
(-0.00294429 0 -0.056878)
(-0.00263315 0 -0.0657008)
(-0.00226333 0 -0.0751808)
(-0.00182625 0 -0.0853574)
(-0.00131105 0 -0.0962792)
(-0.000704036 0 -0.108009)
(1.22072e-05 0 -0.120628)
(0.000860029 0 -0.134242)
(0.00186855 0 -0.148981)
(0.00307629 0 -0.165012)
(0.00453481 0 -0.182543)
(0.00631395 0 -0.201838)
(0.00850927 0 -0.223212)
(0.0112556 0 -0.246962)
(0.0147637 0 -0.273214)
(0.0194433 0 -0.302327)
(0.0261838 0 -0.338079)
(0.0361518 0 -0.395859)
(0.0478569 0 -0.507184)
(0.0504301 0 -0.689569)
(0.0254021 0 -0.868877)
(-0.0229181 0 -0.855531)
(-0.0392534 0 -0.471789)
(0.011939 0 0.16898)
(0.066279 0 0.641671)
(0.167779 0 0.338793)
(0.128619 0 -0.900876)
(-0.139111 0 -0.99352)
(-0.154956 0 0.266575)
(-0.0527067 0 0.808378)
(-0.035509 0 0.703883)
(-0.0221465 0 0.568618)
(-0.00630905 0 0.514511)
(0.0118644 0 0.500737)
(0.0373931 0 0.557516)
(0.0795149 0 0.650447)
(0.193113 0 0.254306)
(0.171762 0 -0.956035)
(-0.0911073 0 -1.09646)
(-0.0927467 0 0.20787)
(0.0273354 0 0.925327)
(0.0331903 0 0.970568)
(0.0401345 0 0.972263)
(0.0377218 0 0.893417)
(0.0867741 0 0.22122)
(0.022439 0 -0.81784)
(-0.0895247 0 -0.659039)
(-0.0337928 0 0.384854)
(0.000223912 0 0.904563)
(-0.00400301 0 0.905826)
(-0.00551027 0 0.81996)
(0.00118712 0 0.781673)
(0.0105527 0 0.785913)
(0.0149009 0 0.83735)
(0.0207369 0 0.933261)
(0.0140838 0 0.866867)
(0.0655401 0 0.183115)
(-0.00434966 0 -0.777375)
(-0.105577 0 -0.528135)
(-0.0440391 0 0.44403)
(-0.0245551 0 0.880136)
(-0.0329393 0 0.85003)
(-0.0399514 0 0.750806)
(-0.0415523 0 0.689762)
(-0.0429543 0 0.650576)
(-0.045654 0 0.605692)
(-0.0467416 0 0.512753)
(-0.0419929 0 0.346567)
(-0.031897 0 0.166304)
(-0.0211708 0 0.0917719)
(-0.0125034 0 0.164124)
(-0.00734275 0 0.298696)
(-0.00678915 0 0.395705)
(-0.00943895 0 0.426111)
(-0.0127885 0 0.41205)
(-0.0153833 0 0.379696)
(-0.0169159 0 0.341657)
(-0.0175372 0 0.301231)
(-0.0174585 0 0.259107)
(-0.0168689 0 0.216267)
(-0.0159475 0 0.174363)
(-0.0148633 0 0.135311)
(-0.0137582 0 0.100802)
(-0.0127322 0 0.0719435)
(-0.01184 0 0.0491114)
(-0.0111006 0 0.0320087)
(-0.01051 0 0.019871)
(-0.0100541 0 0.011711)
(-0.00971698 0 0.00652315)
(-0.00947525 0 0.00340785)
(-0.00930884 0 0.00161383)
(-0.00924097 0 0.000502906)
(-0.00570651 0 -0.00371309)
(-0.00564198 0 -0.00985978)
(-0.00561066 0 -0.0155041)
(-0.00554254 0 -0.0213992)
(-0.00543863 0 -0.027662)
(-0.00530497 0 -0.034354)
(-0.00513532 0 -0.041524)
(-0.00492469 0 -0.0492261)
(-0.00466921 0 -0.0575105)
(-0.00436401 0 -0.0664193)
(-0.00400285 0 -0.0759909)
(-0.00357794 0 -0.0862668)
(-0.0030795 0 -0.0972985)
(-0.00249529 0 -0.109152)
(-0.00180993 0 -0.121912)
(-0.00100386 0 -0.13569)
(-5.18126e-05 0 -0.150624)
(0.00107917 0 -0.166888)
(0.00243245 0 -0.184704)
(0.00406592 0 -0.204351)
(0.00605792 0 -0.226171)
(0.00851711 0 -0.250503)
(0.0116143 0 -0.277596)
(0.0156918 0 -0.308093)
(0.0214794 0 -0.345991)
(0.0298216 0 -0.405411)
(0.0389755 0 -0.512776)
(0.0394342 0 -0.679724)
(0.0168493 0 -0.840257)
(-0.0252179 0 -0.830461)
(-0.0442933 0 -0.479676)
(-0.00481126 0 0.135217)
(0.0441419 0 0.59694)
(0.14127 0 0.311319)
(0.109936 0 -0.803861)
(-0.118644 0 -0.902475)
(-0.133817 0 0.231117)
(-0.0355015 0 0.775315)
(-0.0231728 0 0.693765)
(-0.0160512 0 0.561279)
(-0.00620256 0 0.504746)
(0.00653651 0 0.488229)
(0.0268668 0 0.534758)
(0.0665326 0 0.60372)
(0.176815 0 0.217285)
(0.162709 0 -0.864214)
(-0.062723 0 -1.01172)
(-0.0641162 0 0.161888)
(0.0531241 0 0.888618)
(0.0560685 0 0.966837)
(0.0559564 0 0.97076)
(0.0501058 0 0.882687)
(0.0880691 0 0.224494)
(0.0321787 0 -0.759423)
(-0.0720362 0 -0.641208)
(-0.0315624 0 0.358124)
(0.00107665 0 0.895295)
(-0.00261322 0 0.907699)
(-0.00454227 0 0.818266)
(0.0020151 0 0.776494)
(0.0114838 0 0.780846)
(0.0156201 0 0.835341)
(0.0200369 0 0.931732)
(0.014363 0 0.856002)
(0.0572381 0 0.185547)
(4.11748e-05 0 -0.721634)
(-0.0914466 0 -0.51627)
(-0.0451801 0 0.421124)
(-0.0262749 0 0.876194)
(-0.0344427 0 0.855695)
(-0.0417979 0 0.753991)
(-0.0435418 0 0.69119)
(-0.0451666 0 0.652559)
(-0.0480865 0 0.607505)
(-0.0491421 0 0.510774)
(-0.0439953 0 0.338508)
(-0.0333911 0 0.154693)
(-0.0223376 0 0.0806345)
(-0.0135998 0 0.155915)
(-0.00851934 0 0.29527)
(-0.00804863 0 0.397189)
(-0.0107836 0 0.430294)
(-0.0142291 0 0.416375)
(-0.0168821 0 0.382822)
(-0.0184072 0 0.343327)
(-0.0189666 0 0.301609)
(-0.0187949 0 0.258429)
(-0.0181008 0 0.21478)
(-0.0170769 0 0.172336)
(-0.0159007 0 0.133014)
(-0.0147181 0 0.098471)
(-0.0136294 0 0.0697526)
(-0.0126884 0 0.0471629)
(-0.0119119 0 0.030347)
(-0.0112938 0 0.0185025)
(-0.0108182 0 0.0106225)
(-0.010467 0 0.00569326)
(-0.0102149 0 0.00281431)
(-0.0100411 0 0.00124097)
(-0.00997096 0 0.000359755)
(-0.0076926 0 -0.00376397)
(-0.00762569 0 -0.00998629)
(-0.00759163 0 -0.0156918)
(-0.00752142 0 -0.0216488)
(-0.0074169 0 -0.0279779)
(-0.00728496 0 -0.0347408)
(-0.00711966 0 -0.0419847)
(-0.00691618 0 -0.0497623)
(-0.0066709 0 -0.0581239)
(-0.00637949 0 -0.0671128)
(-0.0060365 0 -0.076769)
(-0.00563514 0 -0.0871359)
(-0.00516701 0 -0.0982671)
(-0.00462163 0 -0.110231)
(-0.00398603 0 -0.123118)
(-0.00324383 0 -0.13704)
(-0.002374 0 -0.152142)
(-0.00134921 0 -0.168607)
(-0.00013409 0 -0.186664)
(0.00131776 0 -0.206607)
(0.00306847 0 -0.228793)
(0.00520387 0 -0.2536)
(0.00786128 0 -0.281382)
(0.0113259 0 -0.313014)
(0.016189 0 -0.352613)
(0.0230181 0 -0.413032)
(0.0299397 0 -0.516395)
(0.0287085 0 -0.670028)
(0.00807395 0 -0.814909)
(-0.0291165 0 -0.80689)
(-0.0506951 0 -0.482595)
(-0.0216793 0 0.107523)
(0.0224818 0 0.553834)
(0.117191 0 0.282876)
(0.0955685 0 -0.722485)
(-0.0983773 0 -0.82469)
(-0.111424 0 0.197531)
(-0.0171892 0 0.744435)
(-0.0104993 0 0.688012)
(-0.00989914 0 0.558294)
(-0.00624172 0 0.498795)
(0.00107459 0 0.479362)
(0.0163193 0 0.515083)
(0.0536239 0 0.557699)
(0.161835 0 0.179411)
(0.158075 0 -0.787631)
(-0.0332671 0 -0.939967)
(-0.0352101 0 0.117373)
(0.0798777 0 0.85295)
(0.0801395 0 0.966766)
(0.0722145 0 0.973632)
(0.0615155 0 0.876051)
(0.0905419 0 0.229662)
(0.0406118 0 -0.70682)
(-0.0576823 0 -0.620176)
(-0.0294145 0 0.336037)
(0.00178445 0 0.886468)
(-0.00155381 0 0.909475)
(-0.00371961 0 0.816722)
(0.00284055 0 0.771291)
(0.0125605 0 0.775824)
(0.0166729 0 0.833673)
(0.0197183 0 0.930928)
(0.0142042 0 0.846716)
(0.0507824 0 0.187624)
(0.0032801 0 -0.673684)
(-0.0806228 0 -0.501651)
(-0.046566 0 0.402385)
(-0.0281907 0 0.87263)
(-0.0361335 0 0.861265)
(-0.043585 0 0.7573)
(-0.0453404 0 0.692739)
(-0.0471065 0 0.654707)
(-0.0502079 0 0.609394)
(-0.0511981 0 0.508568)
(-0.0456475 0 0.330006)
(-0.0346461 0 0.142701)
(-0.0234155 0 0.0693197)
(-0.0146681 0 0.147721)
(-0.00964132 0 0.291927)
(-0.00922404 0 0.398783)
(-0.0120499 0 0.434625)
(-0.0156144 0 0.420833)
(-0.0183432 0 0.385997)
(-0.0198653 0 0.344941)
(-0.0203569 0 0.301849)
(-0.0200821 0 0.257567)
(-0.0192741 0 0.213093)
(-0.0181409 0 0.170113)
(-0.0168683 0 0.130539)
(-0.0156055 0 0.0959871)
(-0.0144526 0 0.0674341)
(-0.0134615 0 0.045111)
(-0.0126467 0 0.0286035)
(-0.0120001 0 0.0170708)
(-0.0115036 0 0.00948603)
(-0.0111376 0 0.00482796)
(-0.0108749 0 0.00219586)
(-0.0106936 0 0.000852735)
(-0.0106217 0 0.000210777)
(-0.00992563 0 -0.00381834)
(-0.0098566 0 -0.0101194)
(-0.00982055 0 -0.015885)
(-0.00974943 0 -0.0218998)
(-0.00964596 0 -0.0282893)
(-0.00951801 0 -0.035116)
(-0.00936018 0 -0.0424265)
(-0.00916796 0 -0.0502724)
(-0.00893821 0 -0.0587037)
(-0.00866721 0 -0.0677643)
(-0.00835043 0 -0.0774955)
(-0.00798227 0 -0.0879422)
(-0.00755584 0 -0.0991599)
(-0.00706265 0 -0.11122)
(-0.00649229 0 -0.124213)
(-0.00583174 0 -0.138257)
(-0.00506423 0 -0.1535)
(-0.00416811 0 -0.17013)
(-0.00311568 0 -0.188384)
(-0.00187115 0 -0.208564)
(-0.000387085 0 -0.231042)
(0.00140173 0 -0.256226)
(0.0036039 0 -0.28456)
(0.00645514 0 -0.317111)
(0.0104241 0 -0.358017)
(0.0158407 0 -0.418913)
(0.0207876 0 -0.518323)
(0.0181649 0 -0.660421)
(-0.00089372 0 -0.792027)
(-0.0343735 0 -0.784349)
(-0.0581706 0 -0.481248)
(-0.0382915 0 0.0847956)
(0.00276247 0 0.511582)
(0.0964104 0 0.252448)
(0.0847913 0 -0.655588)
(-0.0792295 0 -0.759054)
(-0.0896492 0 0.165614)
(-0.000185166 0 0.715851)
(0.0014434 0 0.686845)
(-0.00423647 0 0.559525)
(-0.00666376 0 0.496638)
(-0.0045901 0 0.4739)
(0.00615453 0 0.498081)
(0.0426139 0 0.511906)
(0.149879 0 0.139169)
(0.158609 0 -0.725919)
(-0.00246984 0 -0.880235)
(-0.00664252 0 0.0741209)
(0.105685 0 0.819678)
(0.10375 0 0.970696)
(0.0881409 0 0.981149)
(0.0721687 0 0.873416)
(0.0938498 0 0.236571)
(0.047531 0 -0.658399)
(-0.046257 0 -0.596577)
(-0.0278357 0 0.317843)
(0.0021931 0 0.877979)
(-0.000824264 0 0.911184)
(-0.00305155 0 0.815255)
(0.00365353 0 0.765949)
(0.0138101 0 0.770719)
(0.0181315 0 0.832264)
(0.020058 0 0.930856)
(0.0144694 0 0.838791)
(0.046168 0 0.189457)
(0.00532217 0 -0.631518)
(-0.0728502 0 -0.484916)
(-0.048532 0 0.387024)
(-0.0303107 0 0.86927)
(-0.0379208 0 0.866662)
(-0.0452632 0 0.760627)
(-0.0469252 0 0.694321)
(-0.0487377 0 0.656964)
(-0.05195 0 0.611316)
(-0.0528245 0 0.506118)
(-0.0469032 0 0.321136)
(-0.0356559 0 0.130478)
(-0.0243991 0 0.0579432)
(-0.0157218 0 0.139567)
(-0.0107622 0 0.28864)
(-0.010381 0 0.400464)
(-0.0132823 0 0.439104)
(-0.0169601 0 0.425441)
(-0.0197628 0 0.389232)
(-0.0212765 0 0.346496)
(-0.0216908 0 0.30194)
(-0.0213025 0 0.256506)
(-0.0203721 0 0.211194)
(-0.0191244 0 0.167687)
(-0.017753 0 0.127883)
(-0.0164092 0 0.0933489)
(-0.0151922 0 0.0649878)
(-0.0141512 0 0.0429554)
(-0.0132984 0 0.0267775)
(-0.0126231 0 0.0155748)
(-0.0121057 0 0.00830071)
(-0.0117251 0 0.00392674)
(-0.011452 0 0.0015526)
(-0.0112632 0 0.000449533)