/*--------------------------------*- C++ -*----------------------------------*\
  =========                 |
  \\      /  F ield         | OpenFOAM: The Open Source CFD Toolbox
   \\    /   O peration     | Website:  https://openfoam.org
    \\  /    A nd           | Version:  9
     \\/     M anipulation  |
\*---------------------------------------------------------------------------*/
FoamFile
{
    format      ascii;
    class       surfaceVectorField;
    location    "0.18";
    object      Uf;
}
// * * * * * * * * * * * * * * * * * * * * * * * * * * * * * * * * * * * * * //

dimensions      [0 1 -1 0 0 0 0];

internalField   nonuniform List<vector> 
39700
(
(8.684e-05 0 -0.00627503)
(0.000142847 0 -0.00341525)
(8.80681e-05 0 -0.011887)
(0.00018558 0 -0.00925087)
(8.8305e-05 0 -0.0172744)
(0.000178083 0 -0.0145794)
(9.49583e-05 0 -0.0228496)
(0.000181357 0 -0.0200234)
(0.000107194 0 -0.028772)
(0.000199797 0 -0.025755)
(0.000124251 0 -0.0351402)
(0.000226486 0 -0.0318918)
(0.000145544 0 -0.0420211)
(0.000261653 0 -0.0385127)
(0.000170751 0 -0.0494596)
(0.000305076 0 -0.045673)
(0.000199865 0 -0.0574856)
(0.000356745 0 -0.0534085)
(0.000233114 0 -0.0661216)
(0.000417131 0 -0.0617441)
(0.00027089 0 -0.0753893)
(0.000487119 0 -0.0707006)
(0.000313737 0 -0.0853141)
(0.000567942 0 -0.080301)
(0.000362381 0 -0.0959285)
(0.00066125 0 -0.0905737)
(0.000417782 0 -0.107273)
(0.000769247 0 -0.101555)
(0.000481181 0 -0.1194)
(0.000894896 0 -0.113292)
(0.000554153 0 -0.132367)
(0.0010422 0 -0.12584)
(0.000638671 0 -0.146241)
(0.00121666 0 -0.139262)
(0.00073722 0 -0.161078)
(0.00142605 0 -0.153625)
(0.000853071 0 -0.176915)
(0.00168203 0 -0.168979)
(0.000990854 0 -0.193719)
(0.00200354 0 -0.185346)
(0.00115853 0 -0.211211)
(0.0024242 0 -0.202639)
(0.00137886 0 -0.228335)
(0.00300965 0 -0.220394)
(0.00174998 0 -0.242235)
(0.0039133 0 -0.237008)
(0.00267772 0 -0.248358)
(0.005567 0 -0.248629)
(0.00553361 0 -0.249508)
(0.00913028 0 -0.250972)
(0.0140975 0 -0.291287)
(0.017419 0 -0.256813)
(0.0348883 0 -0.514315)
(0.0378137 0 -0.34958)
(0.0555667 0 -1.01718)
(0.0734292 0 -0.716921)
(-0.0110258 0 -1.27268)
(0.0438963 0 -1.29838)
(-0.0493048 0 -0.741302)
(-0.058052 0 -1.1695)
(-2.12714e-05 0 0.185574)
(-0.033174 0 -0.214277)
(0.0269378 0 0.794856)
(0.032 0 0.541424)
(0.0478812 0 0.967616)
(0.0546672 0 1.02086)
(0.22233 0 -0.709861)
(0.140007 0 0.815522)
(0.0203229 0 -2.33326)
(0.294076 0 -2.19578)
(-0.197733 0 -0.710302)
(-0.277268 0 -2.21138)
(-0.0399612 0 1.02971)
(-0.138234 0 0.837926)
(-0.0218688 0 0.995416)
(-0.045018 0 1.12564)
(-0.0119741 0 0.779207)
(-0.0311335 0 0.850765)
(-0.00431814 0 0.676696)
(-0.0151358 0 0.699741)
(0.00174845 0 0.654904)
(-0.00233517 0 0.646914)
(0.010049 0 0.718795)
(0.0109395 0 0.655463)
(0.023578 0 0.922285)
(0.0306759 0 0.770642)
(0.052931 0 1.00378)
(0.0530254 0 1.05081)
(0.248584 0 -0.778148)
(0.162991 0 0.842531)
(-0.040283 0 -2.4361)
(0.303721 0 -2.31294)
(-0.214415 0 -0.704361)
(-0.339184 0 -2.27168)
(-0.0327232 0 1.11406)
(-0.125337 0 0.869276)
(-0.0149535 0 1.16885)
(-0.0322188 0 1.25142)
(-0.00630453 0 1.05656)
(-0.0197295 0 1.07186)
(-0.00318387 0 1.05011)
(-0.00490425 0 1.03532)
(0.00250582 0 0.724276)
(-0.0167977 0 1.05986)
(0.0587391 0 -0.659824)
(0.061535 0 0.357307)
(-0.0717289 0 -1.13138)
(0.00458514 0 -1.62445)
(-0.0220229 0 0.0920936)
(-0.110326 0 -0.586661)
(0.00404622 0 0.84827)
(-0.00193116 0 0.724624)
(-0.00125639 0 0.923271)
(0.00230106 0 0.95671)
(-0.0027288 0 0.866005)
(-0.00488139 0 0.892537)
(-0.00135308 0 0.829649)
(-0.00357751 0 0.83925)
(0.000414682 0 0.821687)
(-0.000728053 0 0.817962)
(0.00233306 0 0.840925)
(0.00234069 0 0.822911)
(0.00392911 0 0.896555)
(0.00566134 0 0.856353)
(0.00168007 0 0.967021)
(0.0088954 0 0.936186)
(0.00618245 0 0.654634)
(-0.00929624 0 0.995904)
(0.0594585 0 -0.693914)
(0.0692905 0 0.284251)
(-0.0732469 0 -1.04247)
(-0.00101293 0 -1.61642)
(-0.0185775 0 0.184691)
(-0.10524 0 -0.41833)
(0.00231486 0 0.82835)
(-0.000374282 0 0.741656)
(-0.00330074 0 0.859071)
(-0.0020379 0 0.903302)
(-0.00488427 0 0.776148)
(-0.00866649 0 0.818004)
(-0.00448181 0 0.714819)
(-0.00871003 0 0.742228)
(-0.00416729 0 0.664502)
(-0.00811728 0 0.688054)
(-0.00445996 0 0.616819)
(-0.00812661 0 0.641929)
(-0.00545393 0 0.555083)
(-0.0090928 0 0.593799)
(-0.00620508 0 0.453287)
(-0.0103151 0 0.519657)
(-0.00505336 0 0.309517)
(-0.00968657 0 0.39023)
(-0.00253341 0 0.193025)
(-0.00660119 0 0.230638)
(-0.000248992 0 0.188003)
(-0.00308504 0 0.154218)
(0.00167944 0 0.272226)
(4.07935e-05 0 0.216706)
(0.00200066 0 0.354393)
(0.00207387 0 0.3224)
(0.000922753 0 0.390337)
(0.00182913 0 0.384843)
(-0.000346505 0 0.389251)
(0.000186792 0 0.39752)
(-0.00123958 0 0.370126)
(-0.00144114 0 0.383554)
(-0.00175418 0 0.343342)
(-0.00255141 0 0.358965)
(-0.00201487 0 0.312336)
(-0.00319829 0 0.329534)
(-0.00210194 0 0.278112)
(-0.00350795 0 0.296634)
(-0.00205351 0 0.241461)
(-0.0035637 0 0.260851)
(-0.00189691 0 0.203566)
(-0.00342086 0 0.223114)
(-0.00166571 0 0.166017)
(-0.00313362 0 0.184847)
(-0.00140036 0 0.130592)
(-0.0027634 0 0.147821)
(-0.00113943 0 0.0989265)
(-0.00237117 0 0.113843)
(-0.000910275 0 0.0721709)
(-0.00200486 0 0.0843786)
(-0.00072518 0 0.0507875)
(-0.00169186 0 0.0602508)
(-0.000584146 0 0.0345634)
(-0.00144022 0 0.0415469)
(-0.000480698 0 0.0227983)
(-0.00124578 0 0.0277448)
(-0.000407083 0 0.0145625)
(-0.00110019 0 0.0179666)
(-0.000357148 0 0.00892009)
(-0.00099634 0 0.0112361)
(-0.000327232 0 0.00506177)
(-0.000924563 0 0.00666432)
(-0.000315746 0 0.0022994)
(-0.000876513 0 0.00352584)
(-0.000884651 0 0.00116305)
(0.000247826 0 -0.00625301)
(0.000257492 0 -0.00346303)
(0.000258355 0 -0.0118173)
(0.00031393 0 -0.00928363)
(0.000266587 0 -0.0172002)
(0.000311883 0 -0.0146038)
(0.000285298 0 -0.0227955)
(0.000326082 0 -0.0200763)
(0.000316924 0 -0.0287341)
(0.000361916 0 -0.0258402)
(0.000361616 0 -0.0351146)
(0.000412218 0 -0.0320066)
(0.000418874 0 -0.0420045)
(0.000478425 0 -0.038653)
(0.000488546 0 -0.0494505)
(0.000561036 0 -0.0458356)
(0.000571164 0 -0.0574839)
(0.00066061 0 -0.0535925)
(0.000667892 0 -0.0661278)
(0.00077854 0 -0.0619494)
(0.000780434 0 -0.0754046)
(0.000917026 0 -0.0709283)
(0.000911091 0 -0.08534)
(0.00107903 0 -0.080553)
(0.00106293 0 -0.0959666)
(0.00126848 0 -0.0908529)
(0.00124008 0 -0.107326)
(0.00149065 0 -0.101866)
(0.00144814 0 -0.11947)
(0.0017527 0 -0.113639)
(0.00169481 0 -0.132458)
(0.00206453 0 -0.126233)
(0.00199102 0 -0.146356)
(0.00244007 0 -0.139712)
(0.00235296 0 -0.161224)
(0.00289969 0 -0.154149)
(0.00280629 0 -0.177103)
(0.00347453 0 -0.169605)
(0.00339527 0 -0.193968)
(0.00421539 0 -0.186121)
(0.00420358 0 -0.211568)
(0.00521026 0 -0.203653)
(0.00540853 0 -0.22893)
(0.00661867 0 -0.221835)
(0.00743581 0 -0.243479)
(0.00875952 0 -0.239319)
(0.011392 0 -0.251472)
(0.0123774 0 -0.252929)
(0.0200909 0 -0.257609)
(0.019165 0 -0.259986)
(0.0393317 0 -0.309314)
(0.0327228 0 -0.275819)
(0.0726095 0 -0.535136)
(0.06143 0 -0.380917)
(0.0855978 0 -0.989302)
(0.102437 0 -0.728581)
(-0.00719504 0 -1.2141)
(0.0594566 0 -1.21897)
(-0.0697111 0 -0.738721)
(-0.0671084 0 -1.1185)
(0.00347582 0 0.148936)
(-0.0441521 0 -0.263069)
(0.0652685 0 0.768609)
(0.0524106 0 0.500229)
(0.125386 0 0.895863)
(0.0921643 0 0.980786)
(0.30321 0 -0.655795)
(0.223453 0 0.696973)
(-0.00466844 0 -2.10732)
(0.314566 0 -1.99052)
(-0.307803 0 -0.662502)
(-0.334809 0 -2.00929)
(-0.115887 0 0.954931)
(-0.221304 0 0.709982)
(-0.0585988 0 0.981037)
(-0.0801549 0 1.08745)
(-0.033051 0 0.771396)
(-0.0540301 0 0.833733)
(-0.0123349 0 0.669577)
(-0.0270627 0 0.68593)
(0.0058944 0 0.647095)
(-0.00398148 0 0.634761)
(0.0289282 0 0.707542)
(0.0200364 0 0.640107)
(0.0631625 0 0.90019)
(0.0527356 0 0.74782)
(0.136183 0 0.920942)
(0.0887639 0 1.00213)
(0.342542 0 -0.689956)
(0.255358 0 0.704958)
(-0.0355347 0 -2.18671)
(0.336343 0 -2.06089)
(-0.314449 0 -0.683133)
(-0.361489 0 -2.08574)
(-0.098984 0 1.03109)
(-0.207131 0 0.725632)
(-0.0413438 0 1.15436)
(-0.0555639 0 1.213)
(-0.0196872 0 1.0504)
(-0.0336587 0 1.05742)
(-0.00871151 0 1.04299)
(-0.00894594 0 1.028)
(0.0185705 0 0.69909)
(-0.024436 0 1.04168)
(0.0820469 0 -0.612599)
(0.0950104 0 0.31499)
(-0.117202 0 -1.08405)
(0.000699859 0 -1.49162)
(-0.0628978 0 0.0552424)
(-0.171636 0 -0.622864)
(-0.00216725 0 0.832396)
(-0.0120723 0 0.684137)
(-0.00299839 0 0.924566)
(0.00013697 0 0.957264)
(-0.00584282 0 0.865558)
(-0.00838484 0 0.894434)
(-0.00311224 0 0.827501)
(-0.00592611 0 0.83743)
(0.00122292 0 0.819111)
(-0.00107966 0 0.815072)
(0.00583488 0 0.838403)
(0.00414628 0 0.819836)
(0.00836748 0 0.895728)
(0.0093753 0 0.854664)
(0.00561127 0 0.963254)
(0.0155623 0 0.938024)
(0.0274592 0 0.631701)
(-0.0104794 0 0.981339)
(0.0855803 0 -0.643575)
(0.10891 0 0.245504)
(-0.119804 0 -0.996328)
(-0.00636906 0 -1.4795)
(-0.0573831 0 0.147762)
(-0.166642 0 -0.459944)
(-0.00572377 0 0.81573)
(-0.00990956 0 0.707216)
(-0.00851919 0 0.861009)
(-0.00763416 0 0.905166)
(-0.0124648 0 0.776329)
(-0.0159662 0 0.820634)
(-0.0123303 0 0.714106)
(-0.0160373 0 0.742118)
(-0.0119647 0 0.664194)
(-0.015356 0 0.687741)
(-0.0126667 0 0.617314)
(-0.0154724 0 0.64256)
(-0.0141663 0 0.555866)
(-0.0168853 0 0.595211)
(-0.0143389 0 0.453049)
(-0.0182948 0 0.519827)
(-0.0112092 0 0.308089)
(-0.0165967 0 0.386988)
(-0.00681273 0 0.191253)
(-0.0115443 0 0.225859)
(-0.00302621 0 0.185376)
(-0.00639649 0 0.149901)
(0.000729559 0 0.26946)
(-0.00176748 0 0.212214)
(0.00232091 0 0.353649)
(0.00162431 0 0.320404)
(0.0011835 0 0.391551)
(0.00175217 0 0.386339)
(-0.000981964 0 0.390984)
(-0.000412737 0 0.400509)
(-0.00284619 0 0.371538)
(-0.00280426 0 0.386253)
(-0.0040702 0 0.344305)
(-0.00454212 0 0.360824)
(-0.00474515 0 0.312954)
(-0.00560221 0 0.330609)
(-0.00500714 0 0.278471)
(-0.00613131 0 0.297072)
(-0.00495441 0 0.241606)
(-0.00624791 0 0.260759)
(-0.00466793 0 0.203538)
(-0.00604377 0 0.222587)
(-0.00423068 0 0.165869)
(-0.00561108 0 0.184004)
(-0.00372605 0 0.130387)
(-0.00504892 0 0.1468)
(-0.00322489 0 0.0987181)
(-0.0044506 0 0.112779)
(-0.00277436 0 0.071991)
(-0.00388694 0 0.0833756)
(-0.00239606 0 0.0506449)
(-0.00339814 0 0.0593675)
(-0.00209266 0 0.0344525)
(-0.00299727 0 0.0408037)
(-0.00185731 0 0.0227113)
(-0.0026806 0 0.0271401)
(-0.00168116 0 0.0144964)
(-0.00243885 0 0.0174919)
(-0.00155734 0 0.00888032)
(-0.00226428 0 0.010886)
(-0.0014816 0 0.00505967)
(-0.00214158 0 0.00643971)
(-0.00144924 0 0.00233694)
(-0.00205555 0 0.00342517)
(-0.00206092 0 0.00115949)
(0.000326327 0 -0.00633575)
(0.000293326 0 -0.00351312)
(0.000345465 0 -0.0119087)
(0.000338043 0 -0.00934316)
(0.000367974 0 -0.0173075)
(0.000344766 0 -0.0146705)
(0.000402336 0 -0.0229362)
(0.000372048 0 -0.0201734)
(0.000454253 0 -0.0289134)
(0.000423321 0 -0.0259801)
(0.000525625 0 -0.0353301)
(0.00049467 0 -0.0321899)
(0.00061693 0 -0.0422528)
(0.000588852 0 -0.0388766)
(0.000728908 0 -0.0497295)
(0.000707201 0 -0.0460971)
(0.000863117 0 -0.057793)
(0.000851069 0 -0.0538912)
(0.00102202 0 -0.066468)
(0.00102299 0 -0.0622866)
(0.001209 0 -0.0757778)
(0.00122665 0 -0.0713066)
(0.00142859 0 -0.0857496)
(0.00146692 0 -0.0809765)
(0.00168679 0 -0.0964178)
(0.00175023 0 -0.0913277)
(0.00199176 0 -0.107826)
(0.0020852 0 -0.1024)
(0.00235468 0 -0.120029)
(0.00248351 0 -0.114246)
(0.00279123 0 -0.133091)
(0.00296132 0 -0.126928)
(0.00332409 0 -0.147084)
(0.00354138 0 -0.140522)
(0.00398729 0 -0.162081)
(0.00425675 0 -0.155109)
(0.00483455 0 -0.178144)
(0.00515717 0 -0.170775)
(0.00595511 0 -0.195289)
(0.00632089 0 -0.187596)
(0.00750491 0 -0.213351)
(0.00787637 0 -0.205597)
(0.00977354 0 -0.231564)
(0.01004 0 -0.224548)
(0.0133465 0 -0.247883)
(0.0132024 0 -0.243392)
(0.0195256 0 -0.259872)
(0.0182032 0 -0.259645)
(0.0313037 0 -0.274624)
(0.02688 0 -0.272189)
(0.0541306 0 -0.33913)
(0.0429119 0 -0.298366)
(0.08791 0 -0.560199)
(0.0732442 0 -0.412726)
(0.0925787 0 -0.951485)
(0.108665 0 -0.732772)
(0.000788095 0 -1.138)
(0.0625031 0 -1.14041)
(-0.0654333 0 -0.730066)
(-0.0588168 0 -1.06447)
(0.00941095 0 0.0967114)
(-0.0448395 0 -0.312965)
(0.0883298 0 0.720517)
(0.062302 0 0.447617)
(0.162753 0 0.80309)
(0.111159 0 0.93117)
(0.311536 0 -0.614745)
(0.262019 0 0.597785)
(-0.0178701 0 -1.88575)
(0.28571 0 -1.77092)
(-0.328518 0 -0.62172)
(-0.319051 0 -1.8022)
(-0.15513 0 0.860985)
(-0.253948 0 0.59439)
(-0.0822759 0 0.946585)
(-0.0968612 0 1.03888)
(-0.0473988 0 0.751814)
(-0.0664059 0 0.810482)
(-0.0180156 0 0.653186)
(-0.0343451 0 0.666341)
(0.00922509 0 0.629902)
(-0.00507276 0 0.616601)
(0.0418023 0 0.684346)
(0.025384 0 0.618389)
(0.0866756 0 0.857871)
(0.0642704 0 0.717904)
(0.173151 0 0.810794)
(0.104101 0 0.944482)
(0.353288 0 -0.642463)
(0.290717 0 0.584867)
(-0.0149569 0 -1.95272)
(0.313135 0 -1.81539)
(-0.322174 0 -0.65829)
(-0.313473 0 -1.88093)
(-0.130248 0 0.927031)
(-0.237757 0 0.597681)
(-0.0557377 0 1.12147)
(-0.0613316 0 1.16332)
(-0.027178 0 1.03725)
(-0.0390132 0 1.03838)
(-0.0120157 0 1.02798)
(-0.0101714 0 1.01789)
(0.0252401 0 0.662969)
(-0.0250496 0 1.01684)
(0.0806065 0 -0.562973)
(0.106181 0 0.278079)
(-0.131387 0 -1.028)
(-0.00653592 0 -1.35029)
(-0.0890187 0 0.0132272)
(-0.193794 0 -0.65111)
(-0.0118295 0 0.809138)
(-0.0223584 0 0.632678)
(-0.00589331 0 0.92548)
(-0.00293952 0 0.953306)
(-0.00818447 0 0.86548)
(-0.0106728 0 0.895961)
(-0.00420491 0 0.824651)
(-0.00750217 0 0.834777)
(0.00193345 0 0.815552)
(-0.00122843 0 0.81098)
(0.00842267 0 0.83562)
(0.00560305 0 0.81551)
(0.0121047 0 0.895991)
(0.0116932 0 0.85221)
(0.0104725 0 0.955978)
(0.0198253 0 0.939112)
(0.0390719 0 0.600331)
(-0.00785853 0 0.962272)
(0.0866127 0 -0.588773)
(0.123004 0 0.21381)
(-0.134771 0 -0.940373)
(-0.0136501 0 -1.33191)
(-0.0842903 0 0.106145)
(-0.191395 0 -0.493598)
(-0.0168111 0 0.796574)
(-0.0205282 0 0.66223)
(-0.0146863 0 0.863271)
(-0.0136978 0 0.90375)
(-0.0191937 0 0.777635)
(-0.0218956 0 0.823639)
(-0.0191821 0 0.71388)
(-0.022292 0 0.742108)
(-0.0188265 0 0.664435)
(-0.0217087 0 0.687437)
(-0.0196956 0 0.618567)
(-0.0218956 0 0.64334)
(-0.021292 0 0.556717)
(-0.0235711 0 0.596714)
(-0.0210001 0 0.450787)
(-0.0250054 0 0.519539)
(-0.0166556 0 0.302416)
(-0.0224767 0 0.382486)
(-0.0106518 0 0.184834)
(-0.015994 0 0.219334)
(-0.005419 0 0.179734)
(-0.00947285 0 0.143935)
(-0.000708382 0 0.26593)
(-0.0036393 0 0.20658)
(0.0013767 0 0.353844)
(0.000581842 0 0.317788)
(0.000226909 0 0.394521)
(0.000890807 0 0.387852)
(-0.0022841 0 0.394495)
(-0.00157275 0 0.403975)
(-0.00456751 0 0.37429)
(-0.00438377 0 0.389559)
(-0.0061354 0 0.346041)
(-0.00646773 0 0.363205)
(-0.00703495 0 0.31379)
(-0.00775622 0 0.332042)
(-0.0074028 0 0.278547)
(-0.00840454 0 0.297687)
(-0.00735304 0 0.241041)
(-0.00854732 0 0.260671)
(-0.00698981 0 0.202467)
(-0.00829522 0 0.221919)
(-0.00642278 0 0.164462)
(-0.00776235 0 0.18291)
(-0.00576158 0 0.128831)
(-0.00707029 0 0.145462)
(-0.00509899 0 0.0971787)
(-0.00633197 0 0.111373)
(-0.00449755 0 0.0705852)
(-0.00563267 0 0.0820367)
(-0.00398758 0 0.0494333)
(-0.0050216 0 0.0581766)
(-0.00357514 0 0.0334521)
(-0.00451631 0 0.0397935)
(-0.00325343 0 0.0219148)
(-0.00411437 0 0.0263135)
(-0.00301185 0 0.0138906)
(-0.00380607 0 0.0168408)
(-0.00284101 0 0.0084548)
(-0.00358287 0 0.010403)
(-0.0027333 0 0.0048038)
(-0.00342655 0 0.00612027)
(-0.002679 0 0.0022259)
(-0.00331647 0 0.00325624)
(-0.00330554 0 0.0011093)
(0.000301507 0 -0.00638177)
(0.000169072 0 -0.00353924)
(0.000319481 0 -0.0119789)
(0.000204452 0 -0.00939907)
(0.000347768 0 -0.0174058)
(0.000214438 0 -0.0147544)
(0.000392676 0 -0.0230781)
(0.000250377 0 -0.0203003)
(0.000460451 0 -0.0291063)
(0.000313001 0 -0.0261627)
(0.000554037 0 -0.0355734)
(0.000401195 0 -0.0324304)
(0.000674762 0 -0.0425438)
(0.00051872 0 -0.0391723)
(0.000824168 0 -0.0500668)
(0.000667433 0 -0.046446)
(0.0010048 0 -0.0581772)
(0.00084948 0 -0.0542933)
(0.0012204 0 -0.0669015)
(0.00106847 0 -0.0627441)
(0.00147605 0 -0.0762648)
(0.00132945 0 -0.0718238)
(0.00177844 0 -0.0862966)
(0.00163903 0 -0.0815598)
(0.00213647 0 -0.0970336)
(0.00200586 0 -0.0919861)
(0.0025621 0 -0.108524)
(0.00244147 0 -0.103147)
(0.00307167 0 -0.120826)
(0.00296135 0 -0.115098)
(0.003688 0 -0.134015)
(0.00358664 0 -0.12791)
(0.00444361 0 -0.148173)
(0.00434679 0 -0.141669)
(0.00538634 0 -0.163393)
(0.00528376 0 -0.156474)
(0.00658891 0 -0.179772)
(0.00645905 0 -0.172435)
(0.00816563 0 -0.197385)
(0.00796558 0 -0.189671)
(0.0103023 0 -0.216182)
(0.00994892 0 -0.208278)
(0.0133184 0 -0.235632)
(0.0126421 0 -0.228155)
(0.017821 0 -0.254233)
(0.0164413 0 -0.248526)
(0.02512 0 -0.270764)
(0.022166 0 -0.267578)
(0.0381325 0 -0.294)
(0.0316299 0 -0.285672)
(0.0614102 0 -0.36787)
(0.0482813 0 -0.32136)
(0.0914072 0 -0.577277)
(0.0766948 0 -0.440973)
(0.0887235 0 -0.91341)
(0.103414 0 -0.730363)
(0.00656888 0 -1.07054)
(0.0592544 0 -1.0701)
(-0.0554534 0 -0.722594)
(-0.0469142 0 -1.01387)
(0.0122834 0 0.0412952)
(-0.0419628 0 -0.358123)
(0.0972342 0 0.662339)
(0.0636725 0 0.390983)
(0.179397 0 0.726918)
(0.118374 0 0.876395)
(0.295424 0 -0.558095)
(0.269314 0 0.520433)
(-0.0162413 0 -1.68437)
(0.253299 0 -1.56314)
(-0.306032 0 -0.582444)
(-0.277791 0 -1.609)
(-0.164645 0 0.776015)
(-0.251168 0 0.500131)
(-0.0899575 0 0.906213)
(-0.0985938 0 0.989092)
(-0.0535505 0 0.72759)
(-0.0695964 0 0.78621)
(-0.0209849 0 0.631759)
(-0.037249 0 0.644631)
(0.0105489 0 0.607256)
(-0.0057915 0 0.595578)
(0.0467698 0 0.655148)
(0.0269607 0 0.594242)
(0.0940452 0 0.808527)
(0.0674938 0 0.686387)
(0.184061 0 0.719389)
(0.107739 0 0.884472)
(0.328503 0 -0.590161)
(0.288172 0 0.488572)
(0.00242989 0 -1.74317)
(0.277521 0 -1.59801)
(-0.289395 0 -0.623831)
(-0.257649 0 -1.68638)
(-0.131756 0 0.835404)
(-0.227775 0 0.492588)
(-0.0549125 0 1.08321)
(-0.0538636 0 1.11209)
(-0.0273175 0 1.02124)
(-0.0362625 0 1.01999)
(-0.0115641 0 1.00869)
(-0.00773786 0 1.00739)
(0.0293814 0 0.632516)
(-0.019566 0 0.989543)
(0.0693314 0 -0.510859)
(0.104345 0 0.251445)
(-0.128579 0 -0.973224)
(-0.0111942 0 -1.21835)
(-0.0995292 0 -0.0286533)
(-0.189919 0 -0.670476)
(-0.0177187 0 0.778846)
(-0.0296812 0 0.578137)
(-0.00764623 0 0.923965)
(-0.00429251 0 0.946591)
(-0.0096932 0 0.865098)
(-0.0112866 0 0.897326)
(-0.00491855 0 0.821077)
(-0.00836438 0 0.831594)
(0.00250841 0 0.811002)
(-0.00123322 0 0.806029)
(0.0102099 0 0.832094)
(0.00677988 0 0.810376)
(0.0144341 0 0.895348)
(0.0129677 0 0.849394)
(0.0137355 0 0.946146)
(0.0220258 0 0.939578)
(0.0449625 0 0.576074)
(-0.00333244 0 0.941454)
(0.0755301 0 -0.530515)
(0.119973 0 0.193432)
(-0.133111 0 -0.884839)
(-0.0190452 0 -1.19281)
(-0.0967559 0 0.0651317)
(-0.190869 0 -0.517835)
(-0.0245312 0 0.771149)
(-0.028899 0 0.61408)
(-0.0196117 0 0.864159)
(-0.0178248 0 0.90047)
(-0.0248218 0 0.779574)
(-0.0259882 0 0.827113)
(-0.0250617 0 0.714087)
(-0.0274456 0 0.742304)
(-0.024751 0 0.665044)
(-0.0271359 0 0.687171)
(-0.025764 0 0.620154)
(-0.0274039 0 0.644249)
(-0.0274635 0 0.557583)
(-0.0292757 0 0.598314)
(-0.0268667 0 0.44805)
(-0.0307 0 0.518949)
(-0.0216828 0 0.295795)
(-0.027607 0 0.377114)
(-0.0143668 0 0.177025)
(-0.0201171 0 0.211382)
(-0.00769485 0 0.172628)
(-0.0123841 0 0.136328)
(-0.00211261 0 0.261304)
(-0.00548564 0 0.199904)
(0.000268826 0 0.353501)
(-0.000676765 0 0.3148)
(-0.00095536 0 0.397568)
(-0.000247282 0 0.389463)
(-0.00375407 0 0.398493)
(-0.00289454 0 0.407838)
(-0.00634323 0 0.377638)
(-0.00598319 0 0.393308)
(-0.00813313 0 0.348296)
(-0.00829949 0 0.365923)
(-0.00915765 0 0.315008)
(-0.00973108 0 0.333674)
(-0.00956855 0 0.278869)
(-0.0104406 0 0.298373)
(-0.00949719 0 0.240606)
(-0.0105807 0 0.260546)
(-0.00906489 0 0.20144)
(-0.01028 0 0.221124)
(-0.00839882 0 0.163042)
(-0.00966945 0 0.181625)
(-0.00762469 0 0.127224)
(-0.00888523 0 0.143896)
(-0.0068479 0 0.0955667)
(-0.0080514 0 0.109725)
(-0.00613959 0 0.069094)
(-0.0072606 0 0.0804599)
(-0.00553516 0 0.0481311)
(-0.00656645 0 0.0567652)
(-0.00504314 0 0.0323626)
(-0.00598902 0 0.0385882)
(-0.00465736 0 0.021038)
(-0.00552705 0 0.0253222)
(-0.00436676 0 0.0132188)
(-0.00517093 0 0.0160575)
(-0.00416048 0 0.00797963)
(-0.00491156 0 0.00981979)
(-0.00402814 0 0.00451161)
(-0.00472999 0 0.00572775)
(-0.00395709 0 0.00209066)
(-0.00460389 0 0.00303518)
(-0.00457651 0 0.00103436)
(6.76229e-05 0 -0.00641811)
(-0.000210986 0 -0.00355923)
(8.52041e-05 0 -0.0120487)
(-0.000174635 0 -0.00945375)
(0.000116671 0 -0.0175183)
(-0.000162905 0 -0.0148477)
(0.000169701 0 -0.0232471)
(-0.000120681 0 -0.0204502)
(0.000250187 0 -0.029339)
(-4.81172e-05 0 -0.0263796)
(0.000361726 0 -0.0358699)
(5.41294e-05 0 -0.0327169)
(0.000506498 0 -0.0429021)
(0.0001905 0 -0.0395269)
(0.000686805 0 -0.050486)
(0.000363591 0 -0.046867)
(0.000906062 0 -0.0586589)
(0.000576303 0 -0.0547814)
(0.00116913 0 -0.0674495)
(0.000833112 0 -0.0633024)
(0.0014825 0 -0.0768853)
(0.00114014 0 -0.0724579)
(0.00185466 0 -0.0869982)
(0.00150534 0 -0.0822776)
(0.00229675 0 -0.0978289)
(0.00193901 0 -0.092799)
(0.00282363 0 -0.10943)
(0.00245473 0 -0.10407)
(0.00345531 0 -0.121867)
(0.0030705 0 -0.116153)
(0.00421932 0 -0.135224)
(0.00381054 0 -0.129127)
(0.00515411 0 -0.149599)
(0.00470803 0 -0.143089)
(0.00631477 0 -0.165107)
(0.00580935 0 -0.158155)
(0.00778224 0 -0.18188)
(0.00718083 0 -0.17446)
(0.00967867 0 -0.200053)
(0.00891964 0 -0.192166)
(0.0121942 0 -0.219677)
(0.0111726 0 -0.211433)
(0.0156425 0 -0.240426)
(0.0141674 0 -0.232279)
(0.0206071 0 -0.261259)
(0.0182771 0 -0.254186)
(0.0283322 0 -0.281948)
(0.0242498 0 -0.275974)
(0.0414255 0 -0.31225)
(0.0337388 0 -0.299239)
(0.0630547 0 -0.391933)
(0.0496765 0 -0.342724)
(0.0871461 0 -0.587566)
(0.0742909 0 -0.463659)
(0.0793975 0 -0.879122)
(0.0926486 0 -0.723407)
(0.0101485 0 -1.0145)
(0.052938 0 -1.01084)
(-0.0444277 0 -0.715294)
(-0.0359846 0 -0.969343)
(0.0120531 0 -0.00870393)
(-0.0382227 0 -0.395777)
(0.0966969 0 0.604604)
(0.0585204 0 0.334553)
(0.181012 0 0.666437)
(0.117434 0 0.820184)
(0.267527 0 -0.492473)
(0.257269 0 0.462757)
(-0.00919863 0 -1.49716)
(0.221961 0 -1.37866)
(-0.265781 0 -0.533893)
(-0.234246 0 -1.43795)
(-0.157316 0 0.709903)
(-0.230871 0 0.427821)
(-0.0874428 0 0.868887)
(-0.0926124 0 0.94251)
(-0.0535885 0 0.703954)
(-0.066727 0 0.763641)
(-0.0217607 0 0.609366)
(-0.0368603 0 0.623412)
(0.0103359 0 0.583485)
(-0.00618833 0 0.574181)
(0.0466383 0 0.626159)
(0.0259053 0 0.570041)
(0.0932103 0 0.761942)
(0.0653449 0 0.655339)
(0.180029 0 0.648767)
(0.106292 0 0.826593)
(0.289632 0 -0.530926)
(0.26711 0 0.415503)
(0.0135603 0 -1.5534)
(0.242493 0 -1.41396)
(-0.240782 0 -0.578774)
(-0.208118 0 -1.51681)
(-0.116673 0 0.764754)
(-0.198181 0 0.409849)
(-0.0450035 0 1.0486)
(-0.0401468 0 1.06431)
(-0.0215467 0 1.0067)
(-0.0274528 0 1.00435)
(-0.00712057 0 0.988964)
(-0.00181656 0 0.997773)
(0.0333407 0 0.607972)
(-0.00938177 0 0.962568)
(0.0584806 0 -0.459419)
(0.0979339 0 0.234685)
(-0.114258 0 -0.91886)
(-0.00989528 0 -1.10319)
(-0.0990989 0 -0.0638222)
(-0.171426 0 -0.680583)
(-0.020115 0 0.746916)
(-0.0340361 0 0.525481)
(-0.00752054 0 0.920557)
(-0.00389147 0 0.938195)
(-0.00991139 0 0.864179)
(-0.0103896 0 0.89892)
(-0.00510358 0 0.816811)
(-0.00846786 0 0.828388)
(0.00301261 0 0.805654)
(-0.00102928 0 0.800618)
(0.0112834 0 0.827949)
(0.00773727 0 0.804862)
(0.0156013 0 0.893884)
(0.0135965 0 0.846515)
(0.016069 0 0.93534)
(0.0227028 0 0.939266)
(0.0463795 0 0.558229)
(0.0020067 0 0.921248)
(0.0618607 0 -0.472409)
(0.108589 0 0.183111)
(-0.120771 0 -0.829292)
(-0.0200982 0 -1.07106)
(-0.098881 0 0.0308497)
(-0.175858 0 -0.532428)
(-0.0289364 0 0.74432)
(-0.0349083 0 0.567451)
(-0.0225665 0 0.863913)
(-0.020048 0 0.896223)
(-0.0288916 0 0.781578)
(-0.028439 0 0.831329)
(-0.0298077 0 0.714257)
(-0.0314534 0 0.743052)
(-0.0297536 0 0.665507)
(-0.031587 0 0.687124)
(-0.0309469 0 0.621488)
(-0.0320218 0 0.645321)
(-0.0326699 0 0.557958)
(-0.0340527 0 0.599937)
(-0.0317262 0 0.444684)
(-0.0353862 0 0.518017)
(-0.0259171 0 0.288603)
(-0.0318555 0 0.371095)
(-0.0177136 0 0.168638)
(-0.0236722 0 0.202465)
(-0.0100217 0 0.164948)
(-0.0150262 0 0.127558)
(-0.00380063 0 0.256158)
(-0.00737746 0 0.192464)
(-0.00110412 0 0.3527)
(-0.00220034 0 0.311417)
(-0.00226749 0 0.400357)
(-0.00162133 0 0.390994)
(-0.00520655 0 0.402453)
(-0.0042914 0 0.411894)
(-0.00799744 0 0.381035)
(-0.00751754 0 0.397349)
(-0.00994059 0 0.350585)
(-0.00997554 0 0.368875)
(-0.0110422 0 0.316218)
(-0.0114925 0 0.335429)
(-0.0114666 0 0.279145)
(-0.0122276 0 0.299083)
(-0.0113649 0 0.240102)
(-0.0123496 0 0.260368)
(-0.0108757 0 0.200332)
(-0.0120035 0 0.220225)
(-0.0101398 0 0.161537)
(-0.0113337 0 0.180206)
(-0.00929216 0 0.125535)
(-0.010486 0 0.142181)
(-0.00844369 0 0.0938742)
(-0.00958986 0 0.107924)
(-0.00766853 0 0.0675245)
(-0.00874069 0 0.0787342)
(-0.00700392 0 0.0467534)
(-0.00799347 0 0.0552131)
(-0.0064597 0 0.0312029)
(-0.00736927 0 0.0372551)
(-0.00603057 0 0.0200987)
(-0.00686762 0 0.0242195)
(-0.00570565 0 0.0124938)
(-0.00647916 0 0.0151817)
(-0.00547324 0 0.00745952)
(-0.00619408 0 0.00916262)
(-0.00532117 0 0.00418055)
(-0.00599328 0 0.00527669)
(-0.00523594 0 0.00192819)
(-0.00585475 0 0.00276998)
(-0.00581304 0 0.000939736)
(-0.000458508 0 -0.00645416)
(-0.00090268 0 -0.00358084)
(-0.000438609 0 -0.0121247)
(-0.000858649 0 -0.00951564)
(-0.000401069 0 -0.0176467)
(-0.000843876 0 -0.014959)
(-0.000339575 0 -0.0234412)
(-0.000796018 0 -0.0206241)
(-0.000247818 0 -0.0296059)
(-0.000713579 0 -0.0266269)
(-0.000121492 0 -0.0362106)
(-0.000599337 0 -0.0330415)
(4.23308e-05 0 -0.0433154)
(-0.00044821 0 -0.0399281)
(0.000246663 0 -0.0509718)
(-0.000256628 0 -0.0473441)
(0.000495645 0 -0.0592193)
(-2.11124e-05 0 -0.0553356)
(0.000794974 0 -0.0680893)
(0.00026339 0 -0.0639377)
(0.00115215 0 -0.077612)
(0.0006037 0 -0.0731805)
(0.00157687 0 -0.0878224)
(0.00100859 0 -0.0830969)
(0.00208171 0 -0.0987648)
(0.00148932 0 -0.0937274)
(0.00268322 0 -0.110497)
(0.00206054 0 -0.105125)
(0.00340338 0 -0.123093)
(0.00274142 0 -0.117357)
(0.00427194 0 -0.136644)
(0.00355739 0 -0.130511)
(0.0053297 0 -0.151266)
(0.00454272 0 -0.144696)
(0.00663388 0 -0.167093)
(0.00574451 0 -0.160043)
(0.00826649 0 -0.184291)
(0.00722877 0 -0.176714)
(0.0103477 0 -0.203045)
(0.00908984 0 -0.194905)
(0.013059 0 -0.223489)
(0.011466 0 -0.214834)
(0.0166907 0 -0.245469)
(0.0145656 0 -0.236622)
(0.0217707 0 -0.268349)
(0.0187206 0 -0.259978)
(0.029398 0 -0.292708)
(0.0245789 0 -0.284264)
(0.0417032 0 -0.328708)
(0.0335609 0 -0.311989)
(0.0605303 0 -0.411604)
(0.0479915 0 -0.361321)
(0.0788097 0 -0.593361)
(0.0683458 0 -0.480873)
(0.0686448 0 -0.848674)
(0.0801941 0 -0.714282)
(0.0111441 0 -0.967294)
(0.0454694 0 -0.96163)
(-0.0356068 0 -0.707896)
(-0.0281402 0 -0.931201)
(0.00930163 0 -0.052921)
(-0.035603 0 -0.425715)
(0.0895477 0 0.549394)
(0.0485724 0 0.281056)
(0.171353 0 0.615098)
(0.109482 0 0.765647)
(0.237091 0 -0.429081)
(0.235379 0 0.418931)
(-0.00359608 0 -1.32917)
(0.192306 0 -1.2182)
(-0.227347 0 -0.483167)
(-0.19875 0 -1.28878)
(-0.143338 0 0.657943)
(-0.206857 0 0.371815)
(-0.0802196 0 0.836484)
(-0.0836799 0 0.900431)
(-0.0500436 0 0.682997)
(-0.0602956 0 0.743523)
(-0.0210732 0 0.588417)
(-0.0342538 0 0.604099)
(0.00919703 0 0.5609)
(-0.00635769 0 0.554001)
(0.0435779 0 0.599006)
(0.0231296 0 0.54712)
(0.0884842 0 0.719208)
(0.0597356 0 0.625402)
(0.169091 0 0.591196)
(0.102023 0 0.772855)
(0.253257 0 -0.475086)
(0.242236 0 0.359393)
(0.0201788 0 -1.3885)
(0.21425 0 -1.25857)
(-0.195619 0 -0.534979)
(-0.167978 0 -1.37295)
(-0.0949231 0 0.707272)
(-0.165086 0 0.342719)
(-0.030563 0 1.01933)
(-0.0237515 0 1.02141)
(-0.0113542 0 0.995012)
(-0.0141031 0 0.991543)
(0.00184288 0 0.971156)
(0.00718405 0 0.988975)
(0.0384817 0 0.589019)
(0.00354622 0 0.938142)
(0.0524707 0 -0.411562)
(0.0919966 0 0.225359)
(-0.0944869 0 -0.867612)
(-0.00322028 0 -1.00522)
(-0.0919243 0 -0.0917638)
(-0.147055 0 -0.682291)
(-0.0202977 0 0.716742)
(-0.0359512 0 0.47773)
(-0.00627475 0 0.916678)
(-0.002671 0 0.928846)
(-0.00908392 0 0.863356)
(-0.00865163 0 0.900793)
(-0.00475261 0 0.8124)
(-0.00795218 0 0.825501)
(0.00354172 0 0.800003)
(-0.000592487 0 0.795089)
(0.0119083 0 0.823612)
(0.00855968 0 0.799285)
(0.0161471 0 0.891945)
(0.0139469 0 0.84369)
(0.0179087 0 0.925079)
(0.0225327 0 0.938092)
(0.0453439 0 0.545757)
(0.0071241 0 0.902957)
(0.0505846 0 -0.418366)
(0.0948803 0 0.179617)
(-0.103916 0 -0.777199)
(-0.0172863 0 -0.968057)
(-0.094636 0 0.00363034)
(-0.154913 0 -0.538614)
(-0.0313119 0 0.71929)
(-0.0390208 0 0.525235)
(-0.0243079 0 0.863709)
(-0.0213338 0 0.891554)
(-0.0316676 0 0.784108)
(-0.0299327 0 0.836236)
(-0.0334739 0 0.71475)
(-0.0345055 0 0.744525)
(-0.0338357 0 0.666069)
(-0.0351481 0 0.687434)
(-0.0352283 0 0.622789)
(-0.0358316 0 0.646571)
(-0.0369272 0 0.558108)
(-0.0380179 0 0.601537)
(-0.0356706 0 0.440931)
(-0.0392355 0 0.516776)
(-0.029408 0 0.280887)
(-0.0353449 0 0.364606)
(-0.0205819 0 0.159536)
(-0.0266188 0 0.192872)
(-0.0121963 0 0.156593)
(-0.0172642 0 0.117998)
(-0.00558688 0 0.250574)
(-0.00914301 0 0.18456)
(-0.00268156 0 0.351644)
(-0.00381756 0 0.307773)
(-0.00372566 0 0.403071)
(-0.00313848 0 0.392367)
(-0.00667394 0 0.406486)
(-0.0057586 0 0.415964)
(-0.00954845 0 0.384546)
(-0.00902536 0 0.401511)
(-0.0115672 0 0.352948)
(-0.0115486 0 0.371941)
(-0.0127018 0 0.317442)
(-0.0130995 0 0.337237)
(-0.0131194 0 0.279386)
(-0.0138293 0 0.29978)
(-0.0129844 0 0.23953)
(-0.0139177 0 0.260132)
(-0.0124481 0 0.199137)
(-0.0135224 0 0.219239)
(-0.0116605 0 0.159935)
(-0.0127976 0 0.178687)
(-0.0107618 0 0.123745)
(-0.0118954 0 0.140363)
(-0.00986539 0 0.0920812)
(-0.0109489 0 0.106021)
(-0.00904625 0 0.0658565)
(-0.0100544 0 0.0769105)
(-0.00834226 0 0.0452823)
(-0.00926753 0 0.053569)
(-0.00776384 0 0.0299576)
(-0.00860948 0 0.0358381)
(-0.00730607 0 0.0190845)
(-0.00807991 0 0.0230431)
(-0.0069579 0 0.0117053)
(-0.00766903 0 0.0142431)
(-0.00670674 0 0.00688594)
(-0.00736574 0 0.00845243)
(-0.00653934 0 0.00380552)
(-0.00715051 0 0.00478017)
(-0.00644253 0 0.00173738)
(-0.00700233 0 0.00246874)
(-0.0069492 0 0.000828346)
(-0.00131022 0 -0.00650039)
(-0.00191794 0 -0.00360961)
(-0.001285 0 -0.012219)
(-0.00186592 0 -0.0095941)
(-0.0012405 0 -0.0177994)