/*--------------------------------*- C++ -*----------------------------------*\
  =========                 |
  \\      /  F ield         | OpenFOAM: The Open Source CFD Toolbox
   \\    /   O peration     | Website:  https://openfoam.org
    \\  /    A nd           | Version:  9
     \\/     M anipulation  |
\*---------------------------------------------------------------------------*/
FoamFile
{
    format      ascii;
    class       surfaceScalarField;
    location    "0.08";
    object      alphaPhi0.water;
}
// * * * * * * * * * * * * * * * * * * * * * * * * * * * * * * * * * * * * * //

dimensions      [0 3 -1 0 0 0 0];

internalField   nonuniform List<scalar> 
9850
(
-5.35989e-296
8.94951e-296
-2.64281e-295
4.93475e-295
-1.20951e-294
2.45198e-294
-5.03559e-294
1.13383e-293
-1.76095e-293
4.73805e-293
-4.59051e-293
1.65072e-292
-8.64213e-293
4.27685e-292
-3.51974e-292
8.0657e-292
-4.26659e-291
3.33323e-291
-5.57947e-290
4.11523e-290
-7.14713e-289
5.46677e-289
-8.87283e-288
7.10186e-288
-1.06544e-286
8.94891e-287
-1.25379e-285
1.09352e-285
-1.45046e-284
1.29372e-284
-1.21567e-283
1.32041e-283
-1.13933e-284
8.03014e-283
-8.18054e-286
1.01086e-283
-6.2322e-287
8.44124e-285
-5.34625e-288
6.35715e-286
-4.52054e-289
4.36597e-287
-3.80547e-290
3.47954e-288
-3.22343e-291
2.7688e-289
-2.77174e-292
2.21977e-290
-2.44253e-293
1.8068e-291
-2.2358e-294
1.50416e-292
-2.16053e-295
1.29326e-293
-2.20888e-296
1.16396e-294
-2.32061e-297
1.10593e-295
-2.43357e-298
1.09619e-296
-2.56573e-299
1.10895e-297
-2.77687e-300
1.13718e-298
-3.11839e-301
1.1901e-299
-3.63753e-302
1.28134e-300
-4.39882e-303
1.42506e-301
-5.50486e-304
1.6385e-302
-7.12239e-305
1.947e-303
-9.5243e-306
2.39022e-304
-1.31636e-306
3.03142e-305
-1.88065e-307
3.97265e-306
-2.77788e-308
5.38121e-307
-4.24272e-309
7.53686e-308
-6.70108e-310
1.09178e-308
-1.09457e-310
1.63607e-309
-1.84913e-311
2.53663e-310
-3.23096e-312
4.06945e-311
-5.83877e-313
6.75537e-312
-1.08938e-313
1.16029e-312
-2.00645e-314
2.0583e-313
3.6055e-314
-2.95175e-294
4.96008e-294
-1.44565e-293
2.71564e-293
-6.57399e-293
1.3413e-292
-2.71857e-292
6.16665e-292
-9.41713e-292
2.5597e-291
-2.38957e-291
8.83118e-291
-3.71295e-291
2.22762e-290
-6.53734e-291
3.47072e-290
-6.28832e-290
6.20868e-290
-7.93429e-289
6.09215e-289
-9.85894e-288
7.81736e-288
-1.18577e-286
9.85821e-287
-1.37435e-285
1.20428e-285
-1.54493e-284
1.41917e-284
-1.67454e-283
1.59566e-283
-1.29365e-282
1.53669e-282
-1.37346e-283
8.9558e-282
-1.0287e-284
1.18838e-282
-8.14504e-286
1.0475e-283
-7.25175e-287
8.28282e-285
-6.34131e-288
5.88848e-286
-5.51814e-289
4.84916e-287
-4.83302e-290
3.99082e-288
-4.29587e-291
3.30996e-289
-3.91006e-292
2.78545e-290
-3.69426e-293
2.39464e-291
-3.68515e-294
2.12475e-292
-3.89063e-295
1.97551e-293
-4.22169e-296
1.94204e-294
-4.57243e-297
1.99088e-295
-4.97484e-298
2.08049e-296
-5.54897e-299
2.20279e-297
-6.41065e-300
2.378e-298
-7.6759e-301
2.63515e-299
-9.5065e-302
3.00777e-300
-1.21602e-302
3.54012e-301
-1.60567e-303
4.29766e-302
-2.18872e-304
5.38236e-303
-3.08081e-305
6.95656e-304
-4.47951e-306
9.28336e-305
-6.73001e-307
1.27973e-305
-1.045e-307
1.82317e-306
-1.67722e-308
2.6852e-307
-2.78278e-309
4.08947e-308
-4.77312e-310
6.44111e-309
-8.46398e-311
1.04927e-309
-1.55156e-311
1.76788e-310
-2.93475e-312
3.08044e-311
-5.47047e-313
5.54026e-312
9.82239e-313
-8.16514e-293
1.38119e-292
-3.97217e-292
7.50713e-292
-1.79515e-291
3.68529e-291
-7.38063e-291
1.68462e-290
-2.54115e-290
6.95328e-290
-6.37973e-290
2.38434e-289
-9.28932e-290
5.95236e-289
-8.45457e-290
8.69712e-289
-4.94122e-289
8.05057e-289
-5.92225e-288
4.80511e-288
-7.12238e-287
5.86222e-287
-8.2767e-286
7.15941e-286
-9.23301e-285
8.45576e-285
-9.9148e-284
9.59343e-284
-1.00669e-282
1.02614e-282
-7.06689e-282
9.28158e-282
-8.52331e-283
5.07444e-281
-6.74851e-284
7.27683e-282
-5.56151e-285
6.78646e-283
-5.14441e-286
5.62651e-284
-4.6628e-287
4.15385e-285
-4.20187e-288
3.54564e-286
-3.80935e-289
3.02319e-287
-3.50275e-290
2.59643e-288
-3.29585e-291
2.26087e-289
-3.21724e-292
2.0094e-290
-3.31296e-293
1.84201e-291
-3.60477e-294
1.76867e-292
-4.02883e-295
1.79431e-293
-4.49834e-296
1.89696e-294
-5.0445e-297
2.04413e-295
-5.79049e-298
2.23114e-296
-6.87084e-299
2.47988e-297
-8.43301e-300
2.82341e-298
-1.06862e-300
3.30352e-299
-1.39638e-301
3.97769e-300
-1.88104e-302
4.93182e-301
-2.61298e-303
6.29998e-302
-3.7448e-304
8.29659e-303
-5.53975e-305
1.12716e-303
-8.46243e-306
1.58081e-304
-1.33527e-306
2.28986e-305
-2.17669e-307
3.42728e-306
-3.66624e-308
5.30173e-307
-6.38072e-309
8.47772e-308
-1.14751e-309
1.4014e-308
-2.13226e-310
2.39482e-309
-4.08567e-311
4.23011e-310
-7.70223e-312
7.70756e-311
1.38207e-311
-1.51372e-291
2.57776e-291
-7.31414e-291
1.39071e-290
-3.28588e-290
6.78544e-290
-1.34408e-289
3.08488e-289
-4.60651e-289
1.267e-288
-1.15024e-288
4.32462e-288
-1.64044e-288
1.07395e-287
-1.05588e-288
1.53792e-287
-2.85203e-288
1.00775e-287
-3.10339e-287
2.78271e-287
-3.60494e-286
3.08455e-286
-4.04158e-285
3.64048e-285
-4.33299e-284
4.1513e-284
-4.44136e-283
4.52898e-283
-4.2336e-282
4.61391e-282
-2.70149e-281
3.9226e-281
-3.67498e-282
1.99236e-280
-3.09318e-283
3.11474e-281
-2.65827e-284
3.07652e-282
-2.55643e-285
2.67412e-283
-2.40479e-286
2.0537e-284
-2.24618e-287
1.81954e-285
-2.10897e-288
1.60885e-286
-2.00664e-289
1.43162e-287
-1.95189e-290
1.29031e-288
-1.96782e-291
1.18559e-289
-2.0898e-292
1.1223e-290
-2.33997e-293
1.11143e-291
-2.68906e-294
1.16126e-292
-3.09052e-295
1.26373e-293
-3.56755e-296
1.4026e-294
-4.20877e-297
1.57647e-295
-5.12231e-298
1.80153e-296
-6.43649e-299
2.10436e-297
-8.33662e-300
2.52084e-298
-1.11187e-300
3.102e-299
-1.52694e-301
3.92491e-300
-2.16025e-302
5.11053e-301
-3.1505e-303
6.85359e-302
-4.73927e-304
9.47443e-303
-7.35721e-305
1.35114e-303
-1.17906e-305
1.98895e-304
-1.95108e-306
3.02359e-305
-3.33417e-307
4.74811e-306
-5.88444e-308
7.70359e-307
-1.07259e-308
1.29143e-307
-2.01901e-309
2.23691e-308
-3.91663e-310
4.00284e-309
-7.4631e-311
7.38424e-310
1.33842e-310
-2.11683e-290
3.62879e-290
-1.01587e-289
1.94323e-289
-4.53707e-289
9.42275e-289
-1.84708e-288
4.26112e-288
-6.30628e-288
1.74219e-287
-1.56922e-287
5.92362e-287
-2.22309e-287
1.46603e-286
-1.25473e-287
2.0864e-286
-1.46826e-287
1.19985e-286
-1.29037e-286
1.43672e-286
-1.4427e-285
1.28719e-285
-1.55959e-284
1.46295e-284
-1.606e-283
1.60968e-283
-1.57048e-282
1.68788e-282
-1.40781e-281
1.63894e-281
-8.20177e-281
1.31137e-280
-1.24702e-281
6.16968e-280
-1.11976e-282
1.05362e-280
-1.00452e-283
1.10297e-281
-1.00437e-284
1.00501e-282
-9.81076e-286
8.03424e-284
-9.5014e-287
7.39218e-285
-9.23922e-288
6.77957e-286
-9.09368e-289
6.25036e-287
-9.13876e-290
5.82907e-288
-9.50722e-291
5.53395e-289
-1.0402e-291
5.40473e-290
-1.19733e-292
5.51394e-291
-1.41306e-293
5.92505e-292
-1.66892e-294
6.62702e-293
-1.9796e-295
7.56328e-294
-2.39631e-296
8.73908e-295
-2.98716e-297
1.0252e-295
-3.83832e-298
1.227e-296
-5.07643e-299
1.50319e-297
-6.9049e-300
1.88868e-298
-9.66039e-301
2.43679e-299
-1.39107e-301
3.23191e-300
-2.06326e-302
4.41096e-301
-3.15438e-303
6.20099e-302
-4.97359e-304
8.98696e-303
-8.09078e-305
1.34363e-303
-1.35827e-305
2.07337e-304
-2.35353e-306
3.30322e-305
-4.20949e-307
5.43431e-306
-7.77185e-308
9.23267e-307
-1.48103e-308
1.61989e-307
-2.90677e-309
2.93466e-308
-5.59525e-310
5.47751e-309
1.00297e-309
-2.38217e-289
4.11062e-289
-1.13543e-288
2.18495e-288
-5.04152e-288
1.05288e-287
-2.04316e-287
4.7362e-287
-6.95214e-287
1.92818e-286
-1.72542e-286
6.5337e-286
-2.43904e-286
1.6128e-285
-1.32336e-286
2.29106e-285
-8.03625e-287
1.26748e-285
-4.57558e-286
7.88293e-286
-4.87736e-285
4.57877e-285
-5.083e-284
4.96376e-284
-5.02777e-283
5.26847e-283
-4.69182e-282
5.31006e-282
-3.95897e-281
4.91772e-281
-2.11355e-280
3.70655e-280
-3.56601e-281
1.61691e-279
-3.42075e-282
3.01108e-280
-3.20494e-283
3.34306e-281
-3.33169e-284
3.19174e-282
-3.38011e-285
2.65607e-283
-3.39428e-286
2.5383e-284
-3.41731e-287
2.41439e-285
-3.47711e-288
2.30535e-286
-3.60698e-289
2.2232e-287
-3.8681e-290
2.17882e-288
-4.35538e-291
2.19318e-289
-5.14812e-292
2.30231e-290
-6.23219e-293
2.54116e-291
-7.55288e-294
2.91708e-292
-9.19039e-295
3.41776e-293
-1.1397e-295
4.0529e-294
-1.45313e-296
4.87331e-295
-1.9071e-297
5.96817e-296
-2.573e-298
7.46932e-297
-3.56624e-299
9.57349e-298
-5.07924e-300
1.25852e-298
-7.43932e-301
1.69902e-299
-1.12148e-301
2.35833e-300
-1.74143e-302
3.36936e-301
-2.78703e-303
4.95937e-302
-4.5992e-304
7.52589e-303
-7.828e-305
1.17806e-303
-1.37442e-305
1.90284e-304
-2.48961e-306
3.17211e-305
-4.65267e-307
5.45812e-306
-8.97001e-308
9.69367e-307
-1.78007e-308
1.77674e-307
-3.45945e-309
3.35319e-308
6.19922e-309
-2.24722e-288
3.90329e-288
-1.06383e-287
2.05939e-287
-4.69643e-287
9.86146e-287
-1.895e-286
4.41289e-286
-6.42799e-286
1.78922e-285
-1.5918e-285
6.04387e-285
-2.24847e-285
1.48852e-284
-1.21091e-285
2.11347e-284
-5.06569e-286
1.16129e-284
-1.46701e-285
4.97939e-285
-1.4516e-284
1.47205e-284
-1.45802e-283
1.48198e-283
-1.38596e-282
1.51678e-282
-1.23542e-281
1.46999e-281
-9.82204e-281
1.2994e-280
-4.82121e-280
9.23508e-280
-8.96299e-281
3.74494e-279
-9.18637e-282
7.57814e-280
-8.99122e-283
8.9255e-281
-9.7197e-284
8.92289e-282
-1.02423e-284
7.72872e-283
-1.06628e-285
7.67159e-284
-1.1109e-286
7.56605e-285
-1.1676e-287
7.47802e-286
-1.24899e-288
7.45091e-287
-1.37913e-289
7.53022e-288
-1.59617e-290
7.80296e-289
-1.93523e-291
8.41792e-290
-2.40044e-292
9.53191e-291
-2.98128e-293
1.12164e-291
-3.71618e-294
1.34727e-292
-4.71466e-295
1.63728e-293
-6.1406e-296
2.01509e-294
-8.22178e-297
2.522e-295
-1.13043e-297
3.22084e-296
-1.59511e-298
4.20706e-297
-2.31084e-299
5.63006e-298
-3.43992e-300
7.73035e-299
-5.26666e-301
1.09045e-299
-8.30023e-302
1.58213e-300
-1.34739e-302
2.36338e-301
-2.25398e-303
3.63762e-302
-3.88676e-304
5.77207e-303
-6.91025e-305
9.44572e-304
-1.26682e-305
1.59449e-304
-2.39485e-306
2.77673e-305
-4.66822e-307
4.98863e-306
-9.36139e-308
9.24504e-307
-1.83594e-308
1.76319e-307
3.28954e-308
-1.82788e-287
3.19577e-287
-8.5946e-287
1.67362e-286
-3.7727e-286
7.9639e-286
-1.51584e-285
3.54541e-285
-5.12669e-285
1.4318e-284
-1.26693e-284
4.82206e-284
-1.78897e-284
1.18505e-283
-9.66349e-285
1.68234e-283
-3.44224e-285
9.27692e-284
-4.55699e-285
3.38951e-284
-3.91296e-284
4.58336e-284
-3.78365e-283
4.00579e-283
-3.45874e-282
3.94855e-282
-2.94819e-281
3.68141e-281
-2.21131e-280
3.10873e-280
-1.00155e-279
2.08625e-279
-2.03692e-280
7.88841e-279
-2.22936e-281
1.72715e-279
-2.27979e-282
2.15717e-280
-2.56308e-283
2.25678e-281
-2.80509e-284
2.0344e-282
-3.0264e-285
2.0971e-283
-3.26077e-286
2.14361e-284
-3.53694e-287
2.19156e-285
-3.89737e-288
2.25397e-286
-4.42594e-289
2.34644e-287
-5.25903e-290
2.49994e-288
-6.53321e-291
2.76821e-289
-8.29498e-292
3.21217e-290
-1.05459e-292
3.8705e-291
-1.34502e-293
4.76072e-292
-1.74365e-294
5.9217e-293
-2.31721e-295
7.45066e-294
-3.16181e-296
9.51862e-295
-4.42566e-297
1.23911e-295
-6.35174e-298
1.64779e-296
-9.35134e-299
2.24271e-297
-1.41359e-299
3.1291e-298
-2.19626e-300
4.48185e-299
-3.5102e-301
6.59829e-300
-5.77527e-302
9.99525e-301
-9.78628e-303
1.55918e-301
-1.7085e-303
2.50607e-302
-3.07368e-304
4.15198e-303
-5.69913e-305
7.09225e-304
-1.08918e-305
1.2492e-304
-2.1454e-306
2.26892e-305
-4.3453e-307
4.24906e-306
-8.59621e-308
8.18493e-307
1.54039e-307
-1.30874e-286
2.30311e-286
-6.11213e-286
1.1972e-285
-2.66797e-285
5.66119e-285
-1.06753e-284
2.50743e-284
-3.60006e-284
1.00867e-283
-8.87837e-284
3.38699e-283
-1.25328e-283
8.30565e-283
-6.8125e-284
1.1789e-282
-2.29182e-284
6.54506e-283
-1.50371e-284
2.25997e-283
-9.7672e-284
1.51541e-283
-9.05748e-283
1.00223e-282
-7.96742e-282
9.47747e-282
-6.50114e-281
8.50465e-281
-4.60757e-280
6.86706e-280
-1.9328e-279
4.35881e-279
-4.27132e-280
1.54176e-278
-4.98665e-281
3.636e-279
-5.32846e-282
4.81158e-280
-6.22941e-283
5.26528e-281
-7.07867e-284
4.93905e-282
-7.9109e-285
5.28565e-283
-8.80815e-286
5.59677e-284
-9.85078e-287
5.91414e-285
-1.11694e-287
6.27225e-286
-1.30307e-288
6.71837e-287
-1.58791e-289
7.35108e-288
-2.01928e-290
8.34573e-289
-2.62193e-291
9.91432e-290
-3.40884e-292
1.22214e-290
-4.44355e-293
1.53769e-291
-5.8798e-294
1.95547e-292
-7.96435e-295
2.51237e-293
-1.10633e-295
3.27278e-294
-1.57493e-296
4.33825e-295
-2.29683e-297
5.86758e-296
-3.43334e-298
8.11442e-297
-5.26574e-299
1.1494e-297
-8.29512e-300
1.67017e-298
-1.34343e-300
2.49292e-299
-2.23848e-301
3.8264e-300
-3.83945e-302
6.04474e-301
-6.78144e-303
9.8342e-302
-1.23373e-303
1.64838e-302
-2.31227e-304
2.8474e-303
-4.46497e-305
5.0696e-304
-8.88281e-306
9.30379e-305
-1.81633e-306
1.75982e-305
-3.62336e-307
3.42244e-306
6.49514e-307
-8.37945e-286
1.48424e-285
-3.88711e-285
7.65822e-285
-1.68732e-284
3.59865e-284
-6.72374e-284
1.58581e-283
-2.2609e-283
6.35445e-283
-5.56392e-283
2.12736e-282
-7.8506e-283
5.20491e-282
-4.29812e-283
7.3854e-282
-1.42284e-283
4.13166e-282
-5.70791e-284
1.4047e-282
-2.30601e-283
5.76186e-283
-2.02886e-282
2.3709e-282
-1.71831e-281
2.12765e-281
-1.34357e-280
1.83829e-280
-9.0132e-280
1.4207e-279
-3.51527e-279
8.54541e-279
-8.39013e-280
2.83694e-278
-1.04324e-280
7.17441e-279
-1.16475e-281
1.00472e-279
-1.41554e-282
1.14957e-280
-1.66936e-283
1.12178e-281
-1.93131e-284
1.24577e-282
-2.22037e-285
1.36555e-283
-2.55787e-286
1.4902e-284
-2.9814e-287
1.62812e-285
-3.56971e-288
1.79247e-286
-4.45696e-289
2.01215e-287
-5.79679e-290
2.33992e-288
-7.69098e-291
2.84329e-289
-1.02157e-291
3.58249e-290
-1.35965e-292
4.6062e-291
-1.83451e-293
5.98236e-292
-2.5302e-294
7.84026e-293
-3.5746e-295
1.04033e-293
-5.17038e-296
1.40282e-294
-7.65492e-297
1.92791e-295
-1.16077e-297
2.70652e-296
-1.80472e-298
3.88869e-297
-2.88021e-299
5.72766e-298
-4.72303e-300
8.66053e-299
-7.96412e-301
1.34589e-299
-1.38174e-301
2.15161e-300
-2.46751e-302
3.54074e-301
-4.53692e-303
6.0006e-302
-8.5905e-304
1.0476e-302
-1.67529e-304
1.88439e-303
-3.3649e-305
3.4927e-304
-6.94399e-306
6.67011e-305
-1.39655e-306
1.30919e-305
2.50494e-306
-4.85792e-285
8.66078e-285
-2.23836e-284
4.43554e-284
-9.66249e-284
2.07119e-283
-3.83451e-283
9.08063e-283
-1.28557e-282
3.62439e-282
-3.15659e-282
1.20965e-281
-4.45104e-282
2.95242e-281
-2.45464e-282
4.18694e-281
-8.11746e-283
2.36036e-281
-2.48375e-283
8.02128e-282
-5.29119e-283
2.51064e-282
-4.29946e-282
5.44897e-282
-3.50656e-281
4.51704e-281
-2.63014e-280
3.75776e-280
-1.67304e-279
2.78252e-279
-6.09043e-279
1.58917e-278
-1.56153e-279
4.96824e-278
-2.06406e-280
1.34162e-278
-2.40717e-281
1.98554e-279
-3.03977e-282
2.37428e-280
-3.71824e-283
2.40913e-281
-4.45005e-284
2.77469e-282
-5.27836e-285
3.14634e-283
-6.25805e-286
3.54291e-284
-7.49167e-287
3.98395e-285
-9.19802e-288
4.50407e-286
-1.17569e-288
5.1826e-287
-1.56272e-289
6.16811e-288
-2.11691e-290
7.66034e-289
-2.87013e-291
9.85733e-290
-3.89655e-292
1.29398e-290
-5.35578e-293
1.71465e-291
-7.5144e-294
2.29e-292
-1.0787e-294
3.0922e-293
-1.58386e-295
4.23762e-294
-2.37851e-296
5.91219e-295
-3.65565e-297
8.41821e-296
-5.75705e-298
1.22582e-296
-9.30113e-299
1.82867e-297
-1.54322e-299
2.79895e-298
-2.63173e-300
4.40085e-299
-4.61572e-301
7.11499e-300
-8.32951e-302
1.18362e-300
-1.5471e-302
2.02704e-301
-2.95828e-303
3.57494e-302
-5.82442e-304
6.49409e-303
-1.18078e-304
1.21524e-303
-2.45871e-305
2.3425e-304
-4.98465e-306
4.63942e-305
8.94847e-306
-2.57594e-284
4.62224e-284
-1.17888e-283
2.34959e-283
-5.06062e-283
1.09021e-282
-1.99991e-282
4.75526e-282
-6.68449e-282
1.8904e-281
-1.63737e-281
6.28906e-281
-2.30684e-281
1.53099e-280
-1.28116e-281
2.16939e-280
-4.25523e-282
1.2321e-280
-1.15072e-282
4.20765e-281
-1.22941e-282
1.16444e-281
-8.6986e-282
1.26775e-281
-6.8266e-281
9.15222e-281
-4.91664e-280
7.3247e-280
-2.97083e-279
5.20202e-279
-1.01338e-278
2.82683e-278
-2.77765e-279
8.34994e-278
-3.89508e-280
2.39815e-278
-4.74261e-281
3.74493e-279
-6.21946e-282
4.67754e-280
-7.8855e-283
4.93225e-281
-9.75593e-284
5.88752e-282
-1.19295e-284
6.9012e-283
-1.45445e-285
8.01211e-284
-1.78693e-286
9.26521e-285
-2.24807e-287
1.0748e-285
-2.93959e-288
1.26671e-286
-3.99047e-289
1.54178e-287
-5.51515e-290
1.95559e-288
-7.62624e-291
2.56806e-289
-1.05517e-291
3.43884e-290
-1.47613e-292
4.64509e-291
-2.105e-293
6.31626e-292
-3.06768e-294
8.67156e-293
-4.5686e-295
1.20669e-293
-6.95324e-296
1.70764e-294
-1.08235e-296
2.46411e-295
-1.7253e-297
3.6337e-296
-2.8199e-298
5.48631e-297
-4.73109e-299
8.49459e-298
-8.15513e-300
1.35051e-298
-1.44522e-300
2.20689e-299
-2.63439e-301
3.70952e-300
-4.94115e-302
6.4171e-301
-9.53878e-303
1.14288e-301
-1.89566e-303
2.09607e-302
-3.87836e-304
3.95929e-303
-8.1481e-305
7.70228e-304
-1.66521e-305
1.53916e-304
2.9927e-305
-1.25975e-283
2.27512e-283
-5.72591e-283
1.14782e-282
-2.44415e-282
5.29184e-282
-9.61804e-282
2.29621e-281
-3.20453e-281
9.09099e-281
-7.82936e-281
3.01429e-280
-1.10184e-280
7.31727e-280
-6.16065e-281
1.03573e-279
-2.05881e-281
5.92433e-280
-5.29881e-282
2.03672e-280
-3.06031e-282
5.36653e-281
-1.69472e-281
3.15913e-281
-1.27609e-280
1.78517e-280
-8.8325e-280
1.37042e-279
-5.07856e-279
9.34437e-279
-1.62943e-278
4.84126e-278
-4.75381e-279
1.3555e-277
-7.05748e-280
4.12521e-278
-8.96535e-281
6.78587e-279
-1.22016e-281
8.84668e-280
-1.60238e-282
9.68749e-281
-2.04788e-283
1.19763e-281
-2.57964e-284
1.4501e-282
-3.23201e-285
1.73446e-283
-4.07253e-286
2.06117e-284
-5.2466e-287
2.45174e-285
-7.01408e-288
2.95768e-286
-9.71846e-289
3.67926e-287
-1.36953e-289
4.76317e-288
-1.92999e-290
6.37882e-289
-2.71923e-291
8.70674e-290
-3.86855e-292
1.19788e-290
-5.6024e-293
1.65702e-291
-8.28211e-294
2.31107e-292
-1.25008e-294
3.26295e-293
-1.92685e-295
4.6801e-294
-3.03572e-296
6.8391e-295
-4.89504e-297
1.02065e-295
-8.08953e-298
1.55872e-296
-1.37175e-298
2.44003e-297
-2.38906e-299
3.9206e-298
-4.27647e-300
6.47298e-299
-7.87197e-301
1.09899e-299
-1.49071e-301
1.91986e-300
-2.90502e-302
3.45224e-301
-5.82697e-303
6.39156e-302
-1.2031e-303
1.21859e-302
-2.55037e-304
2.39245e-303
-5.25473e-305
4.82406e-304
9.45662e-305
-5.7217e-283
1.04003e-282
-2.58271e-282
5.20726e-282
-1.09615e-281
2.38521e-281
-4.29474e-281
1.02953e-280
-1.42618e-280
4.05887e-280
-3.47486e-280
1.34106e-279
-4.88372e-280
3.24559e-279
-2.74808e-280
4.58786e-279
-9.2447e-281
2.64198e-279
-2.33916e-281
9.14793e-280
-8.56553e-282
2.37057e-280
-3.21118e-281
8.84949e-281
-2.30259e-280
3.38566e-280
-1.5327e-279
2.47435e-279
-8.40068e-279
1.62136e-278
-2.54447e-278
8.0245e-278
-7.8689e-279
2.13633e-277
-1.23425e-279
6.86498e-278
-1.63454e-280
1.18749e-278
-2.30694e-281
1.61447e-279
-3.13572e-282
1.8346e-280
-4.13691e-283
2.34726e-281
-5.36468e-284
2.93369e-282
-6.90275e-285
3.61269e-283
-8.91563e-286
4.40911e-284
-1.17556e-286
5.37466e-285
-1.60594e-287
6.63307e-286
-2.27004e-288
8.42851e-287
-3.25997e-289
1.11309e-287
-4.6789e-290
1.51928e-288
-6.70797e-291
2.11235e-289
-9.69772e-292
2.95787e-290
-1.42521e-292
4.15925e-291
-2.13575e-293
5.88888e-292
-3.26503e-294
8.42998e-293
-5.09381e-295
1.22471e-293
-8.11816e-296
1.81133e-294
-1.32357e-296
2.73422e-295
-2.21074e-297
4.22157e-296
-3.78768e-298
6.67867e-297
-6.66332e-299
1.08419e-297
-1.20455e-299
1.80806e-298
-2.23883e-300
3.10007e-299
-4.28029e-301
5.46824e-300
-8.42016e-302
9.92723e-301
-1.70479e-302
1.8554e-301
-3.55267e-303
3.57072e-302
-7.60006e-304
7.07584e-303
-1.57902e-304
1.43986e-303
2.84628e-304
-2.42792e-282
4.44175e-282
-1.08825e-281
2.20688e-281
-4.59191e-281
1.00424e-280
-1.79108e-280
4.31133e-280
-5.92712e-280
1.69235e-279
-1.43988e-279
5.57086e-279
-2.02046e-279
1.34385e-278
-1.1438e-279
1.89657e-278
-3.87326e-280
1.09917e-278
-9.76611e-281
3.83312e-279
-2.69939e-281
9.90193e-280
-6.00071e-281
2.79071e-280
-4.02864e-280
6.33133e-280
-2.58024e-279
4.33107e-279
-1.35037e-278
2.72926e-278
-3.87455e-278
1.29276e-277
-1.26515e-278
3.28223e-277
-2.09231e-279
1.10994e-277
-2.88624e-280
2.01532e-278
-4.22101e-281
2.85471e-279
-5.93394e-282
3.36365e-280
-8.07595e-283
4.45068e-281
-1.07748e-283
5.73812e-282
-1.42304e-284
7.27062e-283
-1.88309e-285
9.108e-284
-2.54007e-286
1.13723e-284
-3.54434e-287
1.43515e-285
-5.10911e-288
1.86195e-286
-7.47381e-289
2.50727e-287
-1.09188e-289
3.48628e-288
-1.59185e-290
4.93456e-289
-2.3371e-291
7.02803e-290
-3.48339e-292
1.00395e-290
-5.2885e-293
1.44209e-291
-8.18432e-294
2.09187e-292
-1.29177e-294
3.07664e-293
-2.08176e-295
4.60324e-294
-3.43064e-296
7.02565e-295
-5.79001e-297
1.09632e-295
-1.00212e-297
1.7524e-296
-1.78055e-298
2.87361e-297
-3.25043e-299
4.83991e-298
-6.10022e-300
8.38002e-299
-1.17752e-300
1.49256e-299
-2.33866e-301
2.73585e-300
-4.78022e-302
5.16251e-301
-1.00564e-302
1.00305e-301
-2.17153e-303
2.00664e-302
-4.55063e-304
4.12178e-303
8.21841e-304
-9.67454e-282
1.78138e-281
-4.30543e-281
8.78205e-281
-1.80594e-280
3.96963e-280
-7.01172e-280
1.69488e-279
-2.31192e-279
6.62317e-279
-5.59863e-279
2.17172e-278
-7.84167e-279
5.22058e-278
-4.46461e-279
7.35405e-278
-1.52156e-279
4.28801e-278
-3.84431e-280
1.50574e-278
-9.15105e-281
3.89909e-279
-1.1299e-280
9.46554e-280
-6.86212e-280
1.19284e-279
-4.22929e-279
7.37928e-279
-2.11698e-278
4.4729e-278
-5.77273e-278
2.03121e-277
-1.98275e-278
4.93224e-277
-3.45026e-279
1.74957e-277
-4.95332e-280
3.3285e-278
-7.5001e-281
4.9075e-279
-1.08967e-281
5.99104e-280
-1.52889e-282
8.1923e-281
-2.09749e-283
1.08885e-281
-2.84199e-284
1.41877e-282
-3.85142e-285
1.82342e-283
-5.3127e-286
2.33105e-284
-7.56947e-287
3.00695e-285
-1.11236e-287
3.98181e-286
-1.65694e-288
5.46544e-287
-2.46289e-289
7.73869e-288
-3.64949e-290
1.11456e-288
-5.43854e-291
1.61372e-289
-8.21707e-292
2.34055e-290
-1.26333e-292
3.40922e-291
-1.97843e-293
5.00913e-292
-3.15817e-294
7.45556e-293
-5.14525e-295
1.12812e-293
-8.56896e-296
1.74044e-294
-1.46116e-296
2.74438e-295
-2.55459e-297
4.43169e-296
-4.58439e-298
7.34049e-297
-8.45191e-299
1.24867e-297
-1.60185e-299
2.18341e-298
-3.12244e-300
3.92724e-299
-6.26225e-301
7.26949e-300
-1.29254e-301
1.38524e-300
-2.74575e-302
2.71788e-301
-5.98629e-303
5.4905e-302
-1.26566e-303
1.13871e-302
2.29076e-303
-3.63617e-281
6.73887e-281
-1.60645e-280
3.29605e-280
-6.69763e-280
1.47976e-279
-2.58811e-279
6.2826e-279
-8.50108e-279
2.44371e-278
-2.05172e-278
7.9801e-278
-2.86775e-278
1.91121e-277
-1.64155e-278
2.68657e-277
-5.62896e-279
1.57553e-277
-1.42827e-279
5.56962e-278
-3.16491e-280
1.44896e-278
-2.21116e-280
3.27503e-279
-1.14243e-279
2.3354e-279
-6.76993e-279
1.22867e-278
-3.24639e-278
7.15772e-278
-8.43921e-278
3.12144e-277
-3.03819e-278
7.26889e-277
-5.55117e-279
2.69637e-277
-8.28655e-280
5.36543e-278
-1.298e-280
8.22601e-279
-1.94752e-281
1.03962e-279
-2.81528e-282
1.46813e-280
-3.96936e-283
2.01042e-281
-5.51537e-284
2.69251e-282
-7.65191e-285
3.54871e-283
-1.0791e-285
4.64336e-284
-1.56952e-286
6.1208e-285
-2.35084e-287
8.27066e-286
-3.56479e-288
1.15688e-286
-5.38937e-289
1.66758e-287
-8.11378e-290
2.44293e-288
-1.22685e-290
3.59422e-289
-1.87842e-291
5.29107e-290
-2.92376e-292
7.81253e-291
-4.63229e-293
1.16236e-291
-7.47741e-294
1.7504e-292
-1.2314e-294
2.67812e-293
-2.07244e-295
4.1761e-294
-3.57046e-296
6.65381e-295
-6.3061e-297
1.08551e-295
-1.14314e-297
1.81626e-296
-2.12879e-298
3.1208e-297
-4.07521e-299
5.51203e-298
-8.02366e-300
1.00142e-298
-1.62539e-300
1.87237e-299
-3.38858e-301
3.6039e-300
-7.27054e-302
7.1423e-301
-1.60082e-302
1.45736e-301
-3.41554e-303
3.05252e-302
6.19717e-303
-1.29412e-280
2.41407e-280
-5.67515e-280
1.1713e-279
-2.35148e-279
5.22217e-279
-9.04231e-279
2.20447e-278
-2.95825e-278
8.53349e-278
-7.11413e-278
2.77473e-277
-9.92058e-278
6.61926e-277
-5.70768e-278
9.28276e-277
-1.96874e-278
5.47366e-277
-5.02104e-279
1.94748e-277
-1.07792e-279
5.09445e-278
-4.655e-280
1.11578e-278
-1.86742e-279
4.91834e-279
-1.06088e-278
2.00831e-278
-4.88137e-278
1.1211e-277
-1.21332e-277
4.70252e-277
-4.56349e-278
1.05297e-276
-8.73665e-279
4.07295e-277
-1.35476e-279
8.46235e-278
-2.19353e-280
1.34783e-278
-3.39627e-281
1.76206e-279
-5.05515e-282
2.568e-280
-7.32154e-283
3.62102e-281
-1.04288e-283
4.98226e-282
-1.48086e-284
6.73179e-283
-2.13463e-285
9.01325e-284
-3.16897e-286
1.2139e-284
-4.83725e-287
1.67351e-285
-7.46626e-288
2.38516e-286
-1.14784e-288
3.49936e-287
-1.75534e-289
5.2131e-288
-2.69244e-290
7.79194e-289
-4.1767e-291
1.16394e-289
-6.5806e-292
1.74182e-290
-1.0547e-292
2.62381e-291
-1.72149e-293
3.99733e-292
-2.86574e-294
6.18389e-293
-4.8742e-295
9.74639e-294
-8.4853e-296
1.56923e-294
-1.51421e-296
2.58665e-295
-2.77325e-297
4.37263e-296
-5.2177e-298
7.59068e-297
-1.00915e-298
1.35451e-297
-2.00742e-299
2.48628e-298
-4.10851e-300
4.69672e-299
-8.65358e-301
9.13371e-300
-1.87575e-301
1.82885e-300
-4.1717e-302
3.77005e-301
-8.98392e-303
7.97655e-302
1.63454e-302
-4.37659e-280
8.21777e-280
-1.9048e-279
3.95479e-279
-7.84264e-279
1.75078e-278
-3.0006e-278
7.34732e-278
-9.77574e-278
2.83006e-277
-2.342e-277
9.16089e-277
-3.25759e-277
2.17629e-276
-1.88325e-277
3.04413e-276
-6.53261e-278
1.80435e-276
-1.67505e-278
6.45972e-277
-3.55165e-279
1.69962e-277
-1.076e-279
3.67734e-278
-3.01543e-279
1.13719e-278
-1.63077e-278
3.24247e-278
-7.21037e-278
1.72231e-277
-1.71865e-277
6.95878e-277
-6.73356e-278
1.50212e-276
-1.348e-278
6.0427e-277
-2.16923e-279
1.30871e-277
-3.62752e-280
2.16339e-278
-5.79171e-281
2.92332e-279
-8.87117e-282
4.39383e-280
-1.31927e-282
6.37618e-281
-1.92582e-283
9.00966e-282
-2.79842e-284
1.24764e-282
-4.12286e-285
1.7091e-283
-6.24695e-286
2.35157e-284
-9.7178e-287
3.30747e-285
-1.5267e-287
4.80292e-286
-2.38657e-288
7.17158e-287
-3.70678e-289
1.08631e-287
-5.76704e-290
1.6493e-288
-9.06335e-291
2.49963e-289
-1.44539e-291
3.7909e-290
-2.34347e-292
5.78143e-291
-3.8679e-293
8.91079e-292
-6.50929e-294
1.3939e-292
-1.11905e-294
2.22076e-293
-1.96884e-295
3.61369e-294
-3.55064e-296
6.0196e-295
-6.57167e-297
1.02831e-295
-1.24949e-297
1.80393e-296
-2.44217e-298
3.25299e-297
-4.90937e-299
6.03425e-298
-1.01538e-299
1.15198e-298
-2.1611e-300
2.26395e-299
-4.73313e-301
4.58084e-300
-1.0634e-301
9.54164e-301
-2.31169e-302
2.03945e-301
4.21875e-302
-1.41081e-279
2.66653e-279
-6.09294e-279
1.27264e-278
-2.49243e-278
5.59338e-278
-9.48653e-278
2.33321e-277
-3.07719e-277
8.9411e-277
-7.34269e-277
2.88069e-276
-1.0185e-276
6.81351e-276
-5.91492e-277
9.50383e-276
-2.0629e-277
5.66115e-276
-5.31819e-278
2.03895e-276
-1.12395e-278
5.39603e-277
-2.70693e-279
1.16394e-277
-4.8546e-279
2.86149e-278
-2.46348e-278
5.21909e-278
-1.04789e-277
2.60027e-277
-2.40197e-277
1.01321e-276
-9.77731e-278
2.11359e-276
-2.04286e-278
8.82124e-277
-3.40808e-279
1.98829e-277
-5.88144e-280
3.408e-278
-9.67655e-281
4.75621e-279
-1.52443e-281
7.36777e-280
-2.32699e-282
1.09982e-280
-3.48052e-283
1.59545e-281
-5.17518e-284
2.26398e-282
-7.79272e-285
3.17287e-283
-1.2052e-285
4.4601e-284
-1.91081e-286
6.40028e-285
-3.05576e-287
9.46999e-286
-4.85726e-288
1.43915e-286
-7.66206e-289
2.21648e-287
-1.20909e-289
3.41806e-288
-1.92505e-290
5.25574e-289
-3.10753e-291
8.07773e-290
-5.09719e-292
1.24728e-290
-8.50819e-293
1.94503e-291
-1.44773e-293
3.07696e-292
-2.51614e-294
4.95619e-293
-4.47501e-295
8.15246e-294
-8.15771e-296
1.37267e-294
-1.5262e-296
2.37019e-295
-2.93318e-297
4.20279e-296
-5.79496e-298
7.66072e-297
-1.17748e-298
1.43642e-297
-2.46141e-299
2.77182e-298
-5.29437e-300
5.50588e-299
-1.17168e-300
1.12591e-299
-2.65934e-301
2.36983e-300
-5.83563e-302
5.11721e-301
1.06856e-301
-4.34701e-279
8.27059e-279
-1.86259e-278
3.91398e-278
-7.5688e-278
1.70759e-277
-2.86537e-277
7.07917e-277
-9.2524e-277
2.69848e-276
-2.19852e-276
8.65167e-276
-3.0405e-276
2.03693e-275
-1.77337e-276
2.83265e-275
-6.2171e-277
1.69531e-275
-1.61133e-277
6.14153e-276
-3.40904e-278
1.63475e-276
-7.18301e-279
3.53075e-277
-7.90062e-279
7.59446e-278
-3.66407e-278
8.49226e-278
-1.50042e-277
3.86594e-277
-3.31619e-277
1.4537e-276
-1.3991e-277
2.93732e-276
-3.04562e-278
1.26905e-276
-5.26222e-279
2.97234e-277
-9.36419e-280
5.27751e-278
-1.58662e-280
7.60115e-279
-2.56966e-281
1.21285e-279
-4.0251e-282
1.86154e-280
-6.16823e-283
2.77176e-281
-9.38494e-284
4.03013e-282
-1.44448e-284
5.77865e-283
-2.28056e-285
8.29984e-284
-3.68585e-286
1.21534e-284
-6.00096e-287
1.83251e-285
-9.70016e-288
2.83457e-286
-1.55409e-288
4.43891e-287
-2.48745e-289
6.95283e-288
-4.01235e-290
1.08465e-288
-6.55665e-291
1.68948e-289
-1.08815e-291
2.64147e-290
-1.83718e-292
4.16815e-291
-3.1614e-293
6.66946e-292
-5.55585e-294
1.08632e-292
-9.99096e-295
1.8067e-293
-1.84147e-295
3.0756e-294
-3.48321e-296
5.36915e-295
-6.76813e-297
9.62548e-296
-1.35183e-297
1.77384e-296
-2.77676e-298
3.3626e-297
-5.86718e-299
6.55962e-298
-1.27543e-299
1.31709e-298
-2.85206e-300
2.72207e-299
-6.53884e-301
5.78942e-300
-1.44832e-301
1.26282e-300
2.66173e-301
-1.28349e-278
2.45823e-278
-5.45521e-278
1.15334e-277
-2.20175e-277
4.99405e-277
-8.28936e-277
2.05734e-276
-2.66404e-276
7.79953e-276
-6.3024e-276
2.48794e-275
-8.68829e-276
5.82942e-275
-5.08806e-276
8.08056e-275
-1.79275e-276
4.85794e-275
-4.67064e-277
1.76985e-275
-9.91267e-278
4.73777e-276
-1.94317e-278
1.02674e-276
-1.32454e-278
2.05477e-277
-5.37807e-278
1.42353e-277
-2.11939e-277
5.67328e-277
-4.52752e-277
2.05807e-276
-1.97546e-277
4.03649e-276
-4.47286e-278
1.80159e-276
-7.99628e-279
4.37834e-277
-1.46622e-279
8.04511e-278
-2.55656e-280
1.19492e-278
-4.25586e-281
1.96303e-279
-6.83999e-282
3.09695e-280
-1.07387e-282
4.73227e-281
-1.67206e-283
7.05047e-282
-2.63096e-284
1.03445e-282
-4.24116e-285
1.51838e-283
-6.98894e-286
2.26918e-284
-1.15865e-286
3.48732e-285
-1.90476e-287
5.49119e-286
-3.09957e-288
8.74386e-287
-5.03223e-289
1.39109e-287
-8.22418e-290
2.20175e-288
-1.36058e-290
3.47584e-289
-2.28496e-291
5.50321e-290
-3.9028e-292
8.7885e-291
-6.79308e-293
1.42264e-291
-1.20742e-293
2.34368e-292
-2.19588e-294
3.94194e-293
-4.09299e-295
6.78605e-294
-7.82909e-296
1.19797e-294
-1.53826e-296
2.17175e-295
-3.10653e-297
4.04697e-296
-6.45098e-298
7.75686e-297
-1.37778e-298
1.5298e-297
-3.02673e-299
3.10489e-298
-6.83807e-300
6.48507e-299
-1.58336e-300
1.39354e-299
-3.53939e-301
3.07005e-300
6.53075e-301
-3.63974e-278
7.01777e-278
-1.53428e-277
3.26377e-277
-6.1495e-277
1.40241e-276
-2.30209e-276
5.74005e-276
-7.36225e-276
2.16388e-275
-1.7337e-275
6.86609e-275
-2.3819e-275