/*--------------------------------*- C++ -*----------------------------------*\
  =========                 |
  \\      /  F ield         | OpenFOAM: The Open Source CFD Toolbox
   \\    /   O peration     | Website:  https://openfoam.org
    \\  /    A nd           | Version:  9
     \\/     M anipulation  |
\*---------------------------------------------------------------------------*/
FoamFile
{
    format      ascii;
    class       volScalarField;
    location    "0.08";
    object      alpha.water;
}
// * * * * * * * * * * * * * * * * * * * * * * * * * * * * * * * * * * * * * //

dimensions      [0 0 0 0 0 0 0];

internalField   nonuniform List<scalar> 
5000
(
6.58315e-291
3.65168e-290
1.80198e-289
8.2504e-289
3.43398e-288
1.20027e-287
3.12884e-287
5.89445e-287
2.40351e-286
2.91652e-285
3.81589e-284
4.8896e-283
6.0728e-282
7.29146e-281
8.5538e-280
9.90073e-279
8.57463e-278
7.52616e-279
5.57079e-280
4.2432e-281
3.62888e-282
3.06904e-283
2.58515e-284
2.19065e-285
1.88383e-286
1.65957e-287
1.51837e-288
1.46743e-289
1.50215e-290
1.58024e-291
1.65845e-292
1.75004e-293
1.895e-294
2.12756e-295
2.48026e-296
2.99756e-297
3.7496e-298
4.84999e-299
6.48458e-300
8.96191e-301
1.28041e-301
1.89142e-302
2.88913e-303
4.56375e-304
7.45547e-305
1.25964e-305
2.20115e-306
3.97805e-307
7.42244e-308
1.36711e-308
3.64919e-289
2.00988e-288
9.85829e-288
4.48707e-287
1.85505e-286
6.42156e-286
1.62998e-285
2.53709e-285
4.4781e-285
4.31829e-284
5.45721e-283
6.78793e-282
8.17114e-281
9.45689e-280
1.0562e-278
1.15821e-277
9.3941e-277
8.88672e-278
6.9188e-279
5.52568e-280
4.89407e-281
4.2777e-282
3.72654e-283
3.26662e-284
2.90399e-285
2.64188e-286
2.49513e-287
2.49201e-288
2.63909e-289
2.87062e-290
3.11232e-291
3.39081e-292
3.78649e-293
4.37453e-294
5.23353e-295
6.47494e-296
8.27515e-297
1.09202e-297
1.48803e-298
2.09426e-299
3.04516e-300
4.5757e-301
7.10639e-302
1.14085e-302
1.89329e-303
3.24812e-304
5.76078e-305
1.05617e-305
1.99789e-306
3.72419e-307
1.01641e-287
5.55734e-287
2.70897e-286
1.22577e-285
5.03884e-285
1.73391e-284
4.35662e-284
6.35995e-284
5.80873e-284
3.40684e-283
4.09301e-282
4.93025e-281
5.73633e-280
6.38775e-279
6.80406e-278
7.03528e-277
5.21143e-276
5.46461e-277
4.48873e-278
3.75165e-279
3.45229e-280
3.12841e-281
2.82343e-282
2.56254e-283
2.35694e-284
2.21684e-285
2.16387e-286
2.23287e-287
2.43994e-288
2.73598e-289
3.05894e-290
3.43548e-291
3.94881e-292
4.68606e-293
5.74641e-294
7.27326e-295
9.49427e-296
1.27803e-296
1.77458e-297
2.54283e-298
3.76181e-299
5.74754e-300
9.0714e-301
1.47922e-301
2.49222e-302
4.33864e-303
7.80434e-304
1.45043e-304
2.77952e-305
5.24011e-306
1.89752e-286
1.02979e-285
4.98866e-285
2.24462e-284
9.18119e-284
3.14531e-283
7.86318e-283
1.12517e-282
7.27453e-283
1.97357e-282
2.15408e-281
2.50739e-280
2.81573e-279
3.01345e-278
3.06587e-277
2.98846e-276
2.00176e-275
2.34751e-276
2.03839e-277
1.78231e-278
1.70687e-279
1.60584e-280
1.50284e-281
1.41303e-282
1.34508e-283
1.30804e-284
1.31901e-285
1.40444e-286
1.58037e-287
1.82343e-288
2.09975e-289
2.42822e-290
2.86874e-291
3.49183e-292
4.38352e-293
5.67034e-294
7.55416e-295
1.03659e-295
1.46586e-296
2.13743e-297
3.21552e-298
4.99284e-299
8.00397e-300
1.32494e-300
2.26495e-301
3.99862e-302
7.29042e-303
1.37259e-303
2.66301e-304
5.07467e-305
2.67211e-285
1.4394e-284
6.92903e-284
3.10052e-283
1.26242e-282
4.30896e-282
1.07384e-281
1.5273e-281
8.66593e-282
1.01934e-281
8.9913e-281
1.00781e-279
1.09165e-278
1.12247e-277
1.0916e-276
1.00304e-275
6.06808e-275
7.96296e-276
7.32207e-277
6.69664e-278
6.67779e-279
6.52593e-280
6.33432e-281
6.16976e-282
6.07643e-283
6.10601e-284
6.3554e-285
6.97453e-286
8.07072e-287
9.56719e-288
1.13279e-288
1.34655e-289
1.63259e-290
2.03553e-291
2.61304e-292
3.45133e-293
4.68889e-294
6.5545e-295
9.4337e-296
1.39898e-296
2.13895e-297
3.37332e-298
5.48937e-299
9.21888e-300
1.59798e-300
2.85905e-301
5.28e-302
1.00638e-302
1.97546e-303
3.80286e-304
3.02808e-284
1.61908e-283
7.74422e-283
3.44633e-282
1.39718e-281
4.75365e-281
1.18191e-280
1.67819e-280
9.16002e-281
5.59527e-281
3.1993e-280
3.42024e-279
3.57262e-278
3.53018e-277
3.28336e-276
2.84298e-275
1.55844e-274
2.28013e-275
2.22387e-276
2.12647e-277
2.20784e-278
2.24157e-279
2.2564e-280
2.27589e-281
2.31757e-282
2.40437e-283
2.58046e-284
2.91517e-285
3.46467e-286
4.21388e-287
5.12172e-288
6.24738e-289
7.76113e-290
9.89875e-291
1.29797e-291
1.74887e-292
2.42105e-293
3.44519e-294
5.04346e-295
7.60162e-296
1.18046e-296
1.88968e-297
3.11944e-298
5.31139e-299
9.32904e-300
1.69041e-300
3.15994e-301
6.09337e-302
1.20938e-302
2.35054e-303
2.87653e-283
1.52668e-282
7.25541e-282
3.21128e-281
1.2965e-280
4.39823e-280
1.0914e-279
1.54918e-279
8.39817e-280
3.53605e-280
1.02889e-279
1.0214e-278
1.02849e-277
9.77124e-277
8.6967e-276
7.09591e-275
3.54168e-274
5.74549e-275
5.94988e-276
5.9447e-277
6.4252e-278
6.77703e-279
7.07294e-280
7.38348e-281
7.76752e-282
8.31114e-283
9.18656e-284
1.067e-284
1.30087e-285
1.62138e-286
2.02016e-287
2.52491e-288
3.20953e-289
4.18216e-290
5.59513e-291
7.6829e-292
1.0828e-292
1.56728e-293
2.33187e-294
3.56952e-295
5.62592e-296
9.13488e-297
1.52864e-297
2.63698e-298
4.68998e-299
8.60071e-300
1.62635e-300
3.17083e-301
6.35947e-302
1.24731e-302
2.35617e-282
1.24127e-281
5.86113e-281
2.58023e-280
1.03754e-279
3.50995e-279
8.69382e-279
1.23409e-278
6.71374e-279
2.40827e-279
3.20467e-279
2.76155e-278
2.67738e-277
2.44706e-276
2.08556e-275
1.60446e-274
7.32976e-274
1.31022e-274
1.44098e-275
1.50363e-276
1.6915e-277
1.85319e-278
2.00449e-279
2.16418e-280
2.34988e-281
2.5903e-282
2.94516e-283
3.51253e-284
4.3882e-285
5.5991e-286
7.14298e-287
9.13634e-288
1.18686e-288
1.57817e-289
2.15184e-290
3.00821e-291
4.31222e-292
6.34309e-293
9.58364e-294
1.48871e-294
2.37953e-295
3.91595e-296
6.63791e-297
1.15929e-297
2.08639e-298
3.86978e-299
7.39762e-300
1.45743e-300
2.95227e-301
5.84088e-302
1.69882e-281
8.88366e-281
4.16783e-280
1.82501e-279
7.30953e-279
2.46602e-278
6.09687e-278
8.65485e-278
4.74034e-278
1.60662e-278
1.05997e-278
6.91109e-278
6.42641e-277
5.65358e-276
4.61739e-275
3.35292e-274
1.40938e-273
2.75829e-274
3.2205e-275
3.50857e-276
4.10718e-277
4.67248e-278
5.23508e-279
5.84119e-280
6.5396e-281
7.41824e-282
8.66612e-283
1.06012e-283
1.3558e-284
1.76932e-285
2.30867e-286
3.01848e-287
4.00272e-288
5.42534e-289
7.53148e-290
1.07085e-290
1.55983e-291
2.32963e-292
3.57117e-293
5.62469e-294
9.11016e-295
1.51836e-295
2.6052e-296
4.60321e-297
8.37762e-298
1.57065e-298
3.03371e-299
6.03658e-300
1.23451e-300
2.46289e-301
1.09535e-280
5.68569e-280
2.65033e-279
1.15435e-278
4.60514e-278
1.54935e-277
3.82315e-277
5.42654e-277
2.99483e-277
9.99193e-278
4.03177e-278
1.63534e-277
1.44274e-276
1.22222e-275
9.57326e-275
6.57112e-274
2.55453e-273
5.44003e-274
6.73751e-275
7.66178e-276
9.32983e-277
1.10162e-277
1.27769e-278
1.47205e-279
1.69764e-280
1.97967e-281
2.37376e-282
2.97552e-283
3.89229e-284
5.19063e-285
6.92043e-286
9.23904e-287
1.24932e-287
1.72433e-288
2.43465e-289
3.51736e-290
5.20147e-291
7.88055e-292
1.22463e-292
1.95411e-293
3.20469e-294
5.40528e-295
9.38127e-296
1.67596e-296
3.08269e-297
5.83888e-298
1.13898e-298
2.28815e-299
4.7226e-300
9.49868e-301
6.3949e-280
3.29492e-279
1.52598e-278
6.61093e-278
2.62681e-277
8.81251e-277
2.17008e-276
3.07915e-276
1.71235e-276
5.7092e-277
1.75749e-277
3.75944e-277
3.06305e-276
2.49896e-275
1.87874e-274
1.22105e-273
4.41178e-273
1.01643e-273
1.33386e-274
1.58286e-275
2.004e-276
2.45444e-277
2.94478e-278
3.50033e-279
4.15439e-280
4.97573e-281
6.11838e-282
7.85219e-283
1.04976e-283
1.42939e-284
1.94543e-285
2.64941e-286
3.64969e-287
5.12459e-288
7.35239e-289
1.07831e-289
1.61744e-290
2.48381e-291
3.9097e-292
6.31561e-293
1.04799e-293
1.78767e-294
3.13651e-295
5.66239e-296
1.05212e-296
2.01247e-297
3.96333e-298
8.03641e-299
1.67364e-299
3.39332e-300
3.41483e-279
1.74641e-278
8.03554e-278
3.46245e-277
1.3702e-276
4.58318e-276
1.12608e-275
1.59688e-275
8.94629e-276
2.99671e-276
8.15465e-277
8.74889e-277
6.2064e-276
4.8723e-275
3.51898e-274
2.1695e-273
7.31974e-273
1.81481e-273
2.52007e-274
3.11935e-275
4.10351e-276
5.20968e-277
6.46101e-278
7.91699e-279
9.6623e-280
1.18766e-280
1.49651e-281
1.96489e-282
2.68273e-283
3.72701e-284
5.17375e-285
7.18105e-286
1.00685e-286
1.43693e-287
2.09304e-288
3.11358e-289
4.73332e-290
7.36171e-291
1.17292e-291
1.91681e-292
3.21632e-293
5.54568e-294
9.83154e-295
1.79285e-295
3.36403e-296
6.49638e-297
1.29139e-297
2.6426e-298
5.55265e-299
1.13487e-299
1.68178e-278
8.53675e-278
3.90208e-277
1.6722e-276
6.58989e-276
2.19742e-275
5.38594e-275
7.63129e-275
4.30554e-275
1.4515e-275
3.75979e-276
2.18067e-276
1.21061e-275
9.11865e-275
6.33227e-274
3.71011e-273
1.17414e-272
3.11748e-273
4.57377e-274
5.9018e-275
8.06114e-276
1.06008e-276
1.35799e-277
1.71411e-278
2.14966e-279
2.70993e-280
3.4968e-281
4.69403e-282
6.54107e-283
9.26535e-284
1.31086e-284
1.85281e-285
2.64189e-286
3.82915e-287
5.65809e-288
8.53072e-289
1.31341e-289
2.06751e-290
3.33226e-291
5.50618e-292
9.33815e-293
1.62682e-293
2.91318e-294
5.36469e-295
1.01631e-295
1.98119e-296
3.97501e-297
8.20892e-298
1.74039e-298
3.58617e-299
7.69256e-278
3.87533e-277
1.75958e-276
7.49868e-276
2.94247e-275
9.77978e-275
2.39074e-274
3.38368e-274
1.92186e-274
6.52371e-275
1.66152e-275
6.11001e-276
2.29607e-275
1.647e-274
1.10054e-273
6.13925e-273
1.83009e-272
5.1799e-273
8.01613e-274
1.07749e-274
1.52687e-275
2.0783e-276
2.74812e-277
3.57079e-278
4.59871e-279
5.94223e-280
7.84777e-281
1.07646e-281
1.53015e-282
2.20865e-283
3.18255e-284
4.57741e-285
6.63271e-286
9.75614e-287
1.46139e-287
2.23168e-288
3.47772e-289
5.53786e-290
9.02462e-291
1.50718e-291
2.58263e-292
4.54477e-293
8.21892e-294
1.52825e-294
2.92291e-295
5.75189e-296
1.16488e-296
2.42802e-297
5.19488e-298
1.0794e-298
3.28739e-277
1.6435e-276
7.41172e-276
3.14074e-275
1.22698e-274
4.06406e-274
9.90661e-274
1.40021e-273
8.00341e-274
2.73537e-274
6.94308e-275
1.92723e-275
4.29393e-275
2.88408e-274
1.85542e-273
9.87201e-273
2.78291e-272
8.36074e-273
1.36242e-273
1.90606e-274
2.79995e-275
3.94186e-276
5.37661e-277
7.1872e-278
9.50024e-279
1.25765e-279
1.69917e-280
2.38048e-281
3.45022e-282
5.07246e-283
7.43991e-284
1.08818e-284
1.60132e-285
2.38889e-286
3.62542e-287
5.60461e-288
8.83605e-289
1.42277e-289
2.34356e-290
3.95484e-291
6.84588e-292
1.21675e-292
2.22208e-293
4.17202e-294
8.05643e-295
1.60062e-295
3.27257e-296
6.8861e-297
1.48716e-297
3.11675e-298
1.31928e-276
6.54471e-276
2.93115e-275
1.2349e-274
4.80238e-274
1.58491e-273
3.85157e-273
5.43508e-273
3.1253e-273
1.07525e-273
2.73511e-274
6.53814e-275
8.0903e-275
4.91618e-274
3.0452e-273
1.54802e-272
4.14203e-272
1.3155e-272
2.25326e-273
3.27829e-274
4.98796e-275
7.25779e-276
1.02052e-276
1.40266e-277
1.90205e-278
2.57858e-279
3.56258e-280
5.09583e-281
7.52839e-282
1.12691e-282
1.68163e-283
2.4999e-284
3.73405e-285
5.64707e-286
8.67902e-287
1.35775e-287
2.16494e-288
3.5241e-289
5.86635e-290
1.0002e-290
1.74894e-291
3.13959e-292
5.79058e-293
1.09793e-293
2.14101e-294
4.29542e-295
8.8683e-296
1.88429e-296
4.10872e-297
8.68765e-298
4.99415e-276
2.45812e-275
1.09318e-274
4.57836e-274
1.77208e-273
5.82606e-273
1.41119e-272
1.98769e-272
1.14947e-272
3.98001e-273
1.01683e-273
2.26262e-274
1.58406e-274
8.18972e-274
4.87966e-273
2.37395e-272
6.0502e-272
2.0236e-272
3.63689e-273
5.49801e-274
8.65732e-275
1.30103e-275
1.88474e-276
2.66223e-277
3.70194e-278
5.13773e-279
7.25667e-280
1.05949e-280
1.59509e-281
2.43033e-282
3.68848e-283
5.57093e-284
8.44313e-285
1.29398e-285
2.01343e-286
3.18675e-287
5.13829e-288
8.45473e-289
1.42226e-289
2.45004e-290
4.3279e-291
7.84799e-292
1.46207e-292
2.80011e-293
5.51534e-294
1.11766e-294
2.33073e-295
5.00188e-296
1.10147e-296
2.35031e-297
1.79032e-275
8.74185e-275
3.85985e-274
1.60676e-273
6.18875e-273
2.02656e-272
4.89164e-272
6.87563e-272
3.99757e-272
1.39263e-272
3.57655e-273
7.7101e-274
3.33625e-274
1.33935e-273
7.6526e-273
3.56879e-272
8.69204e-272
3.05089e-272
5.74318e-273
9.01356e-274
1.46765e-274
2.27635e-275
3.39551e-276
4.92677e-277
7.02281e-278
9.97535e-279
1.4401e-279
2.1458e-280
3.29167e-281
5.10406e-282
7.87654e-283
1.20836e-283
1.85776e-284
2.88476e-285
4.54382e-286
7.27534e-287
1.18617e-287
1.97294e-288
3.35414e-289
5.83849e-290
1.04206e-290
1.90915e-291
3.59345e-292
6.95311e-293
1.38369e-293
2.83296e-294
5.96864e-295
1.29403e-295
2.87838e-296
6.19924e-297
6.09892e-275
2.95391e-274
1.29472e-273
5.35614e-273
2.05264e-272
6.69348e-272
1.60969e-271
2.25734e-271
1.31916e-271
4.6226e-272
1.1937e-272
2.54152e-273
7.71445e-274
2.1636e-273
1.17702e-272
5.26969e-272
1.23045e-271
4.51774e-272
8.89242e-273
1.44763e-273
2.43547e-274
3.89596e-275
5.9806e-276
8.91026e-277
1.30164e-277
1.89198e-278
2.79149e-279
4.24466e-280
6.63421e-281
1.04684e-281
1.64245e-282
2.55902e-283
3.99061e-284
6.27803e-285
1.00097e-285
1.62135e-286
2.67312e-287
4.49485e-288
7.72384e-289
1.3588e-289
2.45091e-290
4.53781e-291
8.63153e-292
1.68782e-292
3.39435e-293
7.02288e-294
1.49516e-294
3.27531e-295
7.35979e-296
1.60006e-296
1.9805e-274
9.51321e-274
4.13854e-273
1.70119e-272
6.48561e-272
2.10567e-271
5.04414e-271
7.05579e-271
4.14333e-271
1.46013e-271
3.79135e-272
8.04575e-273
1.94133e-273
3.48451e-273
1.77898e-272
7.65611e-272
1.71894e-271
6.58273e-272
1.35255e-272
2.28193e-273
3.96351e-274
6.53487e-275
1.03186e-275
1.57802e-276
2.36207e-277
3.5132e-278
5.29759e-279
8.22069e-280
1.30917e-280
2.1023e-281
3.35346e-282
5.30618e-283
8.39274e-284
1.33768e-284
2.15898e-285
3.53805e-286
5.89942e-287
1.00301e-287
1.74244e-288
3.09872e-289
5.64984e-290
1.05739e-290
2.03306e-291
4.01845e-292
8.16855e-293
1.70817e-293
3.67527e-294
8.13538e-295
1.84674e-295
4.05283e-296
6.14766e-274
2.92821e-273
1.26413e-272
5.16246e-272
1.95758e-271
6.32675e-271
1.50937e-270
2.10557e-270
1.24215e-270
4.40131e-271
1.14907e-271
2.44107e-272
5.1528e-273
5.67312e-273
2.6476e-272
1.09609e-271
2.37294e-271
9.45283e-272
2.02422e-272
3.53614e-273
6.33613e-274
1.07608e-274
1.74697e-275
2.74179e-276
4.20494e-277
6.39989e-278
9.86375e-279
1.56222e-279
2.53529e-280
4.14365e-281
6.72032e-282
1.07991e-282
1.7325e-283
2.79772e-284
4.57126e-285
7.57993e-286
1.27845e-286
2.19817e-287
3.86142e-288
6.94341e-289
1.28001e-289
2.42208e-290
4.70838e-291
9.40862e-292
1.93342e-292
4.08674e-293
8.88649e-294
1.9876e-294
4.55757e-295
1.00956e-295
1.82874e-273
8.63603e-273
3.69913e-272
1.50057e-271
5.65861e-271
1.82017e-270
4.32376e-270
6.01397e-270
3.56345e-270
1.26931e-270
3.33155e-271
7.09983e-272
1.39431e-272
9.51546e-273
3.88914e-272
1.54847e-271
3.2406e-271
1.33959e-271
2.98501e-272
5.39444e-273
9.96395e-274
1.7422e-274
2.90715e-275
4.68171e-276
7.35673e-277
1.1459e-277
1.8054e-278
2.91889e-279
4.82812e-280
8.03243e-281
1.32462e-281
2.16175e-282
3.51775e-283
5.7558e-284
9.52183e-285
1.59781e-285
2.72643e-286
4.74186e-287
8.42487e-288
1.53211e-288
2.85635e-289
5.46571e-290
1.07439e-290
2.17076e-291
4.50973e-292
9.6353e-293
2.11733e-293
4.78458e-294
1.10804e-294
2.47709e-295
5.22515e-273
2.44602e-272
1.03936e-271
4.18735e-271
1.57005e-270
5.02547e-270
1.18844e-269
1.64785e-269
9.80484e-270
3.51037e-270
9.26187e-271
1.98203e-271
3.75229e-272
1.6787e-272
5.65532e-272
2.16135e-271
4.38235e-271
1.87561e-271
4.34252e-272
8.11141e-273
1.54344e-273
2.77709e-274
4.76223e-275
7.86921e-276
1.26709e-276
2.02015e-277
3.25422e-278
5.37174e-279
9.05783e-280
1.53411e-280
2.57247e-281
4.26373e-282
7.03781e-283
1.16686e-283
1.95464e-284
3.31985e-285
5.73219e-286
1.00865e-286
1.81291e-287
3.33496e-288
6.28885e-289
1.21711e-289
2.41948e-290
4.94294e-291
1.03814e-291
2.24183e-292
4.97783e-293
1.13625e-293
2.65703e-294
5.99362e-295
1.43702e-272
6.6673e-272
2.80994e-271
1.12414e-270
4.19026e-270
1.3344e-269
3.14089e-269
4.34063e-269
2.59297e-269
9.32956e-270
2.47415e-270
5.31934e-271
9.89873e-272
3.16129e-272
8.17341e-272
2.98436e-271
5.87357e-271
2.59719e-271
6.23892e-272
1.20359e-272
2.35804e-273
4.36466e-274
7.69079e-275
1.30404e-275
2.15187e-276
3.51224e-277
5.78576e-278
9.75258e-279
1.67659e-279
2.89097e-280
4.92937e-281
8.29759e-282
1.38932e-282
2.33434e-283
3.96009e-284
6.80885e-285
1.18985e-285
2.11868e-286
3.85305e-287
7.17101e-288
1.36798e-288
2.67793e-289
5.38377e-290
1.11213e-290
2.36116e-291
5.15288e-292
1.15591e-292
2.66468e-293
6.29037e-294
1.43151e-294
3.81138e-272
1.75235e-271
7.32369e-271
2.9089e-270
1.07777e-269
3.41409e-269
7.99696e-269
1.10128e-268
6.60361e-269
2.38744e-269
6.36313e-270
1.37475e-270
2.54117e-271
6.35858e-272
1.18068e-271
4.08137e-271
7.80806e-271
3.5601e-271
8.86093e-272
1.76423e-272
3.55742e-273
6.7726e-274
1.22621e-274
2.13361e-275
3.60868e-276
6.0308e-277
1.01606e-277
1.74908e-278
3.0657e-279
5.38173e-280
9.33047e-281
1.59507e-281
2.70931e-282
4.61368e-283
7.92769e-284
1.38011e-284
2.44136e-285
4.39983e-286
8.09754e-287
1.52493e-287
2.94312e-288
5.82791e-289
1.18492e-289
2.4748e-290
5.31088e-291
1.17112e-291
2.6536e-292
6.17656e-293
1.4716e-293
3.37806e-294
9.76628e-272
4.44879e-271
1.84347e-270
7.26837e-270
2.67631e-269
8.43167e-269
1.965e-268
2.69605e-268
1.62242e-268
5.89309e-269
1.57837e-269
3.42711e-270
6.32813e-271
1.34676e-271
1.71805e-271
5.53554e-271
1.03023e-270
4.83489e-271
1.24528e-271
2.5574e-272
5.306e-273
1.03889e-273
1.93274e-274
3.45129e-275
5.98362e-276
1.02397e-276
1.76453e-277
3.10205e-278
5.54316e-279
9.90569e-280
1.7461e-280
3.03154e-281
5.22399e-282
9.01745e-283
1.56972e-283
2.7674e-284
4.95652e-285
9.04259e-286
1.68443e-286
3.21014e-287
6.2686e-288
1.25565e-288
2.58181e-289
5.45161e-290
1.18238e-290
2.63415e-291
6.0278e-292
1.4164e-292
3.40538e-293
7.88412e-294
2.42168e-271
1.09277e-270
4.48879e-270
1.75655e-269
6.42673e-269
2.01333e-268
4.66746e-268
6.37902e-268
3.8517e-268
1.40541e-268
3.78228e-269
8.25376e-270
1.52712e-270
2.94019e-271
2.54402e-271
7.45709e-271
1.3501e-270
6.51075e-271
1.73335e-271
3.67012e-272
7.83363e-273
1.57733e-273
3.0152e-274
5.52569e-275
9.8203e-276
1.72089e-276
3.03301e-277
5.4448e-278
9.91785e-279
1.80394e-279
3.23281e-280
5.70035e-281
9.96678e-282
1.74426e-282
3.07669e-283
5.49437e-284
9.96556e-285
1.84083e-285
3.47125e-286
6.69541e-287
1.32294e-287
2.68065e-288
5.574e-289
1.18985e-289
2.6079e-290
5.8692e-291
1.35622e-291
3.2168e-292
7.8036e-293
1.82214e-293
5.8198e-271
2.60105e-270
1.05895e-269
4.11208e-269
1.49468e-268
4.65525e-268
1.07335e-267
1.46095e-267
8.8494e-268
3.24323e-268
8.76937e-269
1.92327e-269
3.57167e-270
6.48508e-271
3.87811e-271
9.9967e-271
1.75843e-270
8.70024e-271
2.3919e-271
5.2199e-272
1.14607e-272
2.37298e-273
4.66057e-274
8.76456e-275
1.59656e-275
2.86468e-276
5.16323e-277
9.46322e-278
1.75677e-278
3.25188e-279
5.92441e-280
1.06102e-280
1.88264e-281
3.34119e-282
5.97347e-283
1.08083e-283
1.98578e-284
3.71477e-285
7.09241e-286
1.38473e-286
2.76877e-287
5.67555e-288
1.19347e-288
2.57546e-289
5.70438e-290
1.29683e-290
3.02591e-291
7.2444e-292
1.77322e-292
4.17618e-293
1.35744e-270
6.00784e-270
2.42379e-269
9.33819e-269
3.37156e-268
1.04379e-267
2.39307e-267
3.24332e-267
1.97042e-267
7.25234e-268
1.96999e-268
4.34204e-269
8.10124e-270
1.42396e-270
6.14986e-271
1.33689e-270
2.27778e-270
1.15454e-270
3.27514e-271
7.36503e-272
1.66321e-272
3.54068e-273
7.14312e-274
1.37816e-274
2.57266e-275
4.72552e-276
8.70806e-277
1.62907e-277
3.0815e-278
5.80421e-279
1.075e-279
1.95571e-280
3.52239e-281
6.34126e-282
1.14945e-282
2.10795e-283
3.92417e-284
7.43621e-285
1.4378e-285
2.84202e-286
5.75134e-287
1.19278e-287
2.53674e-288
5.53434e-289
1.2388e-289
2.84504e-290
6.70358e-291
1.6201e-291
4.00161e-292
9.50735e-293
3.07706e-270
1.34839e-269
5.38975e-269
2.05989e-268
7.38616e-268
2.27251e-267
5.17968e-267
6.98858e-267
4.25759e-267
1.57354e-267
4.29356e-268
9.51007e-269
1.78361e-269
3.08353e-270
1.02022e-270
1.78942e-270
2.93671e-270
1.52254e-270
4.45351e-271
1.03179e-271
2.39618e-272
5.24315e-273
1.08617e-273
2.14919e-274
4.11001e-275
7.72602e-276
1.45521e-276
2.77793e-277
5.35306e-278
1.02592e-278
1.93183e-279
3.57085e-280
6.53018e-281
1.19295e-281
2.19326e-282
4.07806e-283
7.69499e-284
1.47759e-284
2.89408e-285
5.79302e-286
1.18675e-286
2.4906e-287
5.35803e-288
1.18199e-288
2.67423e-289
6.20546e-290
1.4768e-290
3.60357e-291
8.9838e-292
2.15388e-292
6.78724e-270
2.94436e-269
1.16585e-268
4.4193e-268
1.57346e-267
4.8102e-267
1.08974e-266
1.46343e-266
8.93844e-267
3.31678e-267
9.08999e-268
2.02322e-268
3.8155e-269
6.54972e-270
1.76744e-270
2.40741e-270
3.77192e-270
1.99664e-270
6.01827e-271
1.43619e-271
3.42909e-272
7.70897e-273
1.63901e-273
3.32443e-274
6.51016e-275
1.25197e-275
2.40942e-276
4.69206e-277
9.20947e-278
1.79591e-278
3.43879e-279
6.46017e-280
1.2e-280
2.22545e-281
4.15165e-282
7.83006e-283
1.49817e-283
2.91619e-284
5.78809e-285
1.17365e-285
2.43466e-286
5.17202e-287
1.12583e-287
2.51201e-288
5.74621e-289
1.34764e-289
3.24032e-290
7.9859e-291
2.01023e-291
4.86551e-292
1.4585e-269
6.26258e-269
2.456e-268
9.23213e-268
3.26328e-267
9.91043e-267
2.23112e-266
2.98154e-266
1.8254e-266
6.79979e-267
1.87158e-267
4.1858e-268
7.9388e-269
1.36084e-269
3.17018e-270
3.27247e-270
4.83156e-270
2.60541e-270
8.08706e-271
1.98724e-271
4.87607e-272
1.12557e-272
2.45452e-273
5.10048e-274
1.02232e-274
2.01051e-275
3.95211e-276
7.84938e-277
1.56916e-277
3.1139e-278
6.06477e-279
1.15839e-279
2.18661e-280
4.1186e-281
7.80008e-282
1.49289e-282
2.8978e-283
5.72034e-284
1.15104e-284
2.36527e-285
4.97051e-286
1.06923e-286
2.35594e-287
5.31903e-288
1.2307e-288
2.91846e-289
7.09308e-290
1.76647e-290
4.49205e-291
1.09823e-291
3.05678e-269
1.29895e-268
5.04447e-268
1.88008e-267
6.59628e-267
1.98965e-266
4.45022e-266
5.91662e-266
3.63015e-266
1.35735e-266
3.75174e-267
8.43088e-268
1.60829e-268
2.76228e-269
5.81614e-270
4.52104e-270
6.18056e-270
3.38507e-270
1.08107e-270
2.73415e-271
6.89027e-272
1.63194e-272
3.64744e-273
7.76031e-274
1.59129e-274
3.19906e-275
6.42142e-276
1.30056e-276
2.64817e-277
5.34909e-278
1.06009e-278
2.05965e-279
3.9528e-280
7.56576e-281
1.45537e-281
2.82819e-282
5.57201e-283
1.11605e-283
2.27779e-284
4.74576e-285
1.01079e-285
2.20295e-286
4.91592e-287
1.12363e-287
2.63117e-288
6.3127e-289
1.55179e-289
3.90769e-290
1.00454e-290
2.48248e-291
6.25496e-269
2.63009e-268
1.01126e-267
3.73624e-267
1.30091e-266
3.89648e-266
8.65666e-266
1.14477e-265
7.03735e-266
2.64089e-266
7.32974e-267
1.65495e-267
3.17558e-268
5.47612e-269
1.07831e-269
6.3846e-270
7.90908e-270
4.38181e-270
1.43815e-270
3.74086e-271
9.67476e-272
2.34909e-272
5.37707e-273
1.17064e-273
2.45471e-274
5.04314e-275
1.03354e-275
2.13464e-276
4.42801e-277
9.10744e-278
1.83749e-278
3.6334e-279
7.09352e-280
1.38044e-280
2.69864e-281
5.32752e-282
1.06593e-282
2.16749e-283
4.48948e-284
9.48946e-285
2.04972e-285
4.52874e-286
1.02417e-286
2.37159e-287
5.62446e-288
1.36628e-288
3.39963e-289
8.66342e-290
2.25324e-290
5.63345e-291
1.25092e-268
5.20389e-268
1.98069e-267
7.25296e-267
2.50571e-266
7.45093e-266
1.64383e-265
2.1617e-265
1.33117e-265
5.01303e-266
1.39704e-266
3.16925e-267
6.11747e-268
1.06053e-268
2.0004e-269
9.25763e-270
1.01463e-269
5.65514e-270
1.90436e-270
5.08958e-271
1.34956e-271
3.35617e-272
7.86183e-273
1.7505e-273
3.75241e-274
7.87725e-275
1.64824e-275
3.47217e-276
7.34021e-277
1.53799e-277
3.16067e-278
6.36439e-279
1.26472e-279
2.50384e-280
4.97724e-281
9.98759e-282
2.03058e-282
4.19443e-283
8.82276e-284
1.89322e-284
4.15017e-285
9.30303e-286
2.13383e-286
5.01013e-287
1.20446e-287
2.96513e-288
7.47533e-289
1.92968e-289
5.08285e-290
1.28692e-290
2.44732e-268
1.00714e-267
3.79396e-267
1.37669e-266
4.7181e-266
1.39252e-265
3.05007e-265
3.98759e-265
2.45922e-265
9.29268e-266
2.60014e-266
5.92653e-267
1.15088e-267
2.00745e-268
3.68697e-269
1.38102e-269
1.30829e-269
7.28277e-270
2.51062e-270
6.88508e-271
1.86975e-271
4.75794e-272
1.13983e-272
2.5946e-273
5.68494e-274
1.21945e-274
2.60559e-275
5.60031e-276
1.20714e-276
2.57823e-277
5.40026e-278
1.10802e-278
2.24251e-279
4.51926e-280
9.14052e-281
1.86559e-281
3.85678e-282
8.09876e-283
1.7313e-283
3.77464e-284
8.40474e-285
1.91315e-285
4.45492e-286
1.06164e-286
2.58979e-287
6.46794e-288
1.6539e-288
4.32943e-289
1.15618e-289
2.9676e-290
4.68827e-268
1.90835e-267
7.11376e-267
2.5574e-266
8.69265e-266
2.54587e-265
5.5347e-265
7.19192e-265
4.44099e-265
1.68365e-265
4.72976e-266
1.08321e-266
2.11642e-267
3.71653e-268
6.72014e-269
2.11706e-269
1.70063e-269
9.36802e-270
3.29615e-270
9.26005e-271
2.57234e-271
6.69198e-272
1.63864e-272
3.8125e-273
8.53841e-274
1.8718e-274
4.08526e-275
8.96272e-276
1.97097e-276
4.29399e-277
9.17351e-278
1.91924e-278
3.95881e-279
8.12666e-280
1.67355e-280
3.4767e-281
7.31406e-282
1.56258e-282
3.39774e-283
7.53336e-284
1.70543e-284
3.94598e-285
9.33779e-286
2.26093e-286
5.60263e-287
1.42109e-287
3.68981e-288
9.80559e-289
2.65781e-289
6.92335e-290
8.8018e-268
3.54341e-267
1.30685e-266
4.65361e-266
1.56843e-265
4.55714e-265
9.83062e-265
1.26929e-264
7.84583e-265
2.98392e-265
8.41582e-266
1.93671e-266
3.80774e-267
6.73474e-268
1.20784e-268
3.32168e-269
2.23579e-269
1.20511e-269
4.31099e-270
1.2382e-270
3.51387e-271
9.33795e-272
2.33626e-272
5.55545e-273
1.27191e-273
2.85034e-274
6.35682e-275
1.42427e-275
3.19742e-276
7.11077e-277
1.55065e-277
3.31063e-278
6.96513e-279
1.45754e-279
3.05845e-280
6.47223e-281
1.38669e-281
3.01661e-282
6.67809e-283
1.50715e-283
3.47236e-284
8.17503e-285
1.96807e-285
4.84691e-286
1.22144e-286
3.15007e-287
8.31468e-288
2.24589e-288
6.18678e-289
1.63793e-289
1.6208e-267
6.45288e-267
2.35423e-266
8.30197e-266
2.7738e-265
7.99335e-265
1.7105e-264
2.19385e-264
1.35711e-264
5.1771e-265
1.4659e-265
3.38993e-266
6.70772e-267
1.1954e-267
2.13727e-268
5.30286e-269
2.98206e-269
1.55261e-269
5.61962e-270
1.64625e-270
4.76652e-271
1.29302e-271
3.30456e-272
8.03179e-273
1.8803e-273
4.3091e-274
9.82503e-275
2.24952e-275
5.15899e-276
1.172e-276
2.61073e-277
5.69239e-278
1.22247e-278
2.60986e-279
5.58467e-280
1.20483e-280
2.63117e-281
5.83351e-282
1.31598e-282
3.0261e-283
7.10269e-284
1.70332e-284
4.17629e-285
1.04735e-285
2.68732e-286
7.05599e-287
1.89636e-287
5.21865e-288
1.46682e-288
3.97046e-289
2.92976e-267
1.15349e-266
4.1623e-266
1.45324e-265
4.8121e-265
1.37497e-264
2.91784e-264
3.7163e-264
2.30002e-264
8.79962e-265
2.50135e-265
5.81312e-266
1.15782e-266
2.07976e-267
3.72011e-268
8.55759e-269
4.04528e-269
2.00671e-269
7.30623e-270
2.1771e-270
6.42269e-271
1.77748e-271
4.63987e-272
1.15287e-272
2.76077e-273
6.47354e-274
1.51001e-274
3.53567e-275
8.28992e-276
1.92518e-276
4.38363e-277
9.76748e-278
2.14263e-278
4.67027e-279
1.01994e-279
2.24525e-280
5.00265e-281
1.13153e-281
2.604e-282
6.10797e-283
1.46223e-283
3.57621e-284
8.94159e-285
2.28677e-285
5.98587e-286
1.60587e-286
4.43031e-287
1.26664e-287
3.79169e-288
1.12379e-288
5.2025e-267
2.02556e-266
7.22826e-266
2.49808e-265
8.19578e-265
2.32126e-264
4.88338e-264
6.17434e-264
3.82202e-264
1.46628e-264
4.18402e-265
9.77239e-266
1.95952e-266
3.54887e-267
6.36684e-268
1.38738e-268
5.58873e-269
2.60656e-269
9.48252e-270
2.86533e-270
8.60149e-271
2.42736e-271
6.47175e-272
1.64438e-272
4.03011e-273
9.67533e-274
2.31059e-274
5.53728e-275
1.32841e-275
3.15603e-276
7.35077e-277
1.67491e-277
3.75563e-278
8.36427e-279
1.86593e-279
4.19534e-280
9.54722e-281
2.20557e-281
5.1841e-282
1.24192e-282
3.03644e-283
7.58517e-284
1.93834e-284
5.07945e-285
1.37403e-285
3.90633e-286
1.21717e-286
4.44708e-287
1.96039e-287
8.7084e-288
9.08211e-267
3.4969e-266
1.23394e-265
4.2202e-265
1.37144e-264
3.84895e-264
8.02445e-264
1.00681e-263
6.23148e-264
2.39674e-264
6.86485e-265
1.61148e-265
3.25347e-266
5.94256e-267
1.07126e-267
2.24774e-268
7.8621e-269
3.40869e-269
1.2299e-269
3.75609e-270
1.14582e-270
3.29585e-271
8.97602e-272
2.33325e-272
5.8562e-273
1.4405e-273
3.52456e-274
8.65127e-275
2.12516e-275
5.16914e-276
1.23247e-276
2.87401e-277
6.59288e-278
1.50164e-278
3.42522e-279
7.87402e-280
1.83216e-280
4.32804e-281
1.04031e-281
2.54901e-282
6.37913e-283
1.63619e-283
4.34317e-284
1.22835e-284
3.98116e-285
1.65659e-285
9.25058e-286
6.23861e-286
4.32712e-286
2.45606e-286
1.55977e-266
5.93951e-266
2.07225e-265
7.01212e-265
2.2564e-264
6.27289e-264
1.29554e-263
1.6124e-263
9.97481e-264
3.84539e-264
1.10544e-264
2.60803e-265
5.30218e-266
9.76937e-267
1.77196e-267
3.62392e-268
1.12424e-268
4.49482e-269
1.59612e-269
4.90909e-270
1.51977e-270
4.45412e-271
1.23937e-271
3.29771e-272
8.48198e-273
2.13911e-273
5.36584e-274
1.34983e-274
3.39732e-275
8.46593e-276
2.06794e-276
4.93963e-277
1.16038e-277
2.70575e-278
6.31734e-279
1.48648e-279
3.54065e-280
8.56392e-281
2.10926e-281
5.31182e-282
1.38303e-282
3.86038e-283
1.27615e-283
5.83074e-284
3.78171e-284
2.97643e-284
2.46856e-284
2.01139e-284
1.5188e-284
9.00164e-285
2.63706e-266
9.93238e-266
3.42612e-265
1.14677e-264
3.65283e-264
1.00555e-263
2.05645e-263
2.53774e-263
1.56855e-263
6.05934e-264
1.74797e-264
4.14457e-265
8.48535e-266
1.57741e-266
2.88156e-267
5.79572e-268
1.62907e-268
5.98306e-269
2.07528e-269
6.40448e-270
2.00939e-270
5.99865e-271
1.70589e-271
4.64886e-272
1.22611e-272
3.17215e-273
8.16193e-274
2.10525e-274
5.43144e-275
1.38744e-275
3.47461e-276
8.50947e-277
2.04919e-277
4.89723e-278
1.17175e-278
2.82586e-279
6.90338e-280
1.7171e-280
4.39636e-281
1.20105e-281
3.9094e-282
1.84028e-282
1.3049e-282
1.14364e-282
1.05364e-282
9.59128e-283
8.45773e-283
7.12301e-283
5.51062e-283
3.33929e-283
4.39185e-266
1.63639e-265
5.58062e-265
1.84726e-264
5.82269e-264
1.58655e-263
3.21148e-263
3.92773e-263
2.42452e-263
9.38238e-264
2.71551e-264
6.4704e-265
1.33406e-265
2.50245e-266
4.60749e-267
9.17352e-268
2.38292e-268
8.04323e-269
2.70682e-269
8.35101e-270
2.65176e-270
8.06176e-271
2.34389e-271
6.54557e-272
1.77115e-272
4.70283e-273
1.24165e-273
3.28493e-274
8.69056e-275
2.27676e-275
5.8496e-276
1.47011e-276
3.63313e-277
8.91094e-278
2.18943e-278
5.43567e-279
1.38027e-279
3.70335e-280
1.1631e-280
5.28023e-281
3.80719e-281
3.5692e-281
3.58739e-281
3.58147e-281
3.47231e-281
3.24967e-281
2.92735e-281
2.51486e-281
1.98511e-281
1.22898e-281
7.2095e-266
2.65788e-265
8.9615e-265
2.93299e-264
9.1453e-264
2.46549e-263
4.93728e-263
5.98163e-263
3.68587e-263
1.42835e-263
4.14671e-264
9.92798e-265
2.06134e-265
3.90204e-266
7.24511e-267
1.43476e-267
3.50442e-268
1.09179e-268
3.54584e-269
1.08977e-269
3.49756e-270
1.08266e-270
3.2192e-271