/*--------------------------------*- C++ -*----------------------------------*\
  =========                 |
  \\      /  F ield         | OpenFOAM: The Open Source CFD Toolbox
   \\    /   O peration     | Website:  https://openfoam.org
    \\  /    A nd           | Version:  9
     \\/     M anipulation  |
\*---------------------------------------------------------------------------*/
FoamFile
{
    format      ascii;
    class       volScalarField;
    location    "0.08";
    object      p;
}
// * * * * * * * * * * * * * * * * * * * * * * * * * * * * * * * * * * * * * //

dimensions      [1 -1 -2 0 0 0 0];

internalField   nonuniform List<scalar> 
5000
(
1.47395
1.47373
1.47231
1.47097
1.47067
1.4712
1.47095
1.46851
1.46399
1.45807
1.45145
1.44413
1.43604
1.42875
1.42978
1.47917
1.33031
1.44057
1.41101
1.42989
1.43877
1.4454
1.45071
1.45524
1.45964
1.46454
1.47
1.4744
1.4754
1.47386
1.47237
1.47143
1.47103
1.47116
1.47169
1.47248
1.47341
1.47438
1.47533
1.47619
1.47692
1.47751
1.47796
1.47827
1.47847
1.47856
1.47858
1.47852
1.4784
1.47816
1.4762
1.47512
1.47404
1.47366
1.47381
1.47368
1.472
1.46852
1.46433
1.45974
1.45471
1.4491
1.44398
1.44277
1.44175
1.48305
1.35986
1.43429
1.41335
1.44022
1.4456
1.45092
1.45548
1.45965
1.46378
1.46805
1.47203
1.47422
1.47339
1.47102
1.46962
1.4697
1.4706
1.47171
1.47275
1.47367
1.4745
1.47524
1.47588
1.47641
1.47682
1.47711
1.47729
1.47738
1.47737
1.47729
1.47715
1.47695
1.4767
1.4763
1.4772
1.47668
1.476
1.4755
1.47522
1.47469
1.47312
1.47032
1.46683
1.46282
1.45859
1.45398
1.44993
1.4505
1.44092
1.47474
1.38632
1.44966
1.42037
1.44505
1.44798
1.45313
1.45715
1.46071
1.46404
1.46716
1.46989
1.47155
1.4716
1.47085
1.47037
1.4703
1.4706
1.47115
1.47178
1.47241
1.473
1.47351
1.47395
1.47431
1.47458
1.47478
1.47489
1.47493
1.47492
1.47485
1.47474
1.4746
1.47444
1.4742
1.47843
1.47831
1.47783
1.4772
1.47666
1.47599
1.4747
1.4725
1.46956
1.46601
1.46239
1.45847
1.45465
1.45596
1.443
1.47152
1.40967
1.45902
1.42875
1.44996
1.45051
1.45531
1.45866
1.46157
1.46419
1.46654
1.4686
1.47007
1.47062
1.47061
1.47049
1.47034
1.47031
1.4705
1.4708
1.47116
1.47152
1.47186
1.47214
1.47238
1.47255
1.47267
1.47273
1.47275
1.47272
1.47266
1.47257
1.47246
1.47235
1.47219
1.48006
1.48009
1.47979
1.47924
1.47864
1.47789
1.47668
1.47481
1.47236
1.46935
1.46634
1.4631
1.45951
1.4615
1.44843
1.47146
1.42856
1.46389
1.43776
1.45555
1.45406
1.45817
1.46069
1.46295
1.465
1.46679
1.46829
1.46936
1.46983
1.46996
1.46999
1.46994
1.46995
1.47002
1.47014
1.47029
1.47045
1.4706
1.47071
1.4708
1.47085
1.47087
1.47086
1.47082
1.47075
1.47067
1.47057
1.47046
1.47036
1.47021
1.48195
1.48204
1.48189
1.48147
1.48091
1.48012
1.47895
1.47732
1.47528
1.47277
1.4703
1.46774
1.46442
1.4668
1.45478
1.47323
1.44289
1.46805
1.44633
1.46082
1.45797
1.46133
1.46298
1.46462
1.46613
1.46739
1.4684
1.46907
1.46935
1.46944
1.46948
1.46947
1.46947
1.46948
1.46948
1.46948
1.46948
1.46946
1.46943
1.46939
1.46932
1.46924
1.46915
1.46904
1.46893
1.4688
1.46867
1.46854
1.46841
1.46825
1.48399
1.48412
1.48406
1.48374
1.48323
1.48248
1.48141
1.47999
1.47829
1.47618
1.47413
1.47213
1.46902
1.47149
1.46098
1.47595
1.45416
1.4722
1.4539
1.46537
1.46174
1.4644
1.46525
1.46632
1.4673
1.4681
1.46871
1.46909
1.46921
1.4692
1.46915
1.46905
1.46895
1.46883
1.46871
1.46859
1.46846
1.46832
1.46817
1.46802
1.46786
1.4677
1.46753
1.46735
1.46718
1.467
1.46683
1.46665
1.46649
1.4663
1.48613
1.48631
1.48631
1.48606
1.48561
1.48494
1.484
1.4828
1.48137
1.47957
1.47782
1.47628
1.47335
1.47577
1.46684
1.479
1.4633
1.47606
1.46056
1.46938
1.46528
1.46729
1.46745
1.46801
1.46851
1.46889
1.46917
1.46929
1.46925
1.46911
1.46893
1.4687
1.46845
1.4682
1.46795
1.4677
1.46745
1.46719
1.46694
1.46669
1.46644
1.46619
1.46595
1.46571
1.46547
1.46524
1.46501
1.46479
1.46458
1.46435
1.48836
1.48859
1.48865
1.48846
1.48809
1.48751
1.48672
1.4857
1.48449
1.48296
1.48144
1.48026
1.47754
1.47984
1.47236
1.48217
1.47078
1.4796
1.46648
1.47305
1.46865
1.47003
1.46961
1.46972
1.46978
1.46979
1.46975
1.46962
1.46938
1.46909
1.46877
1.4684
1.46801
1.46763
1.46724
1.46686
1.46648
1.46612
1.46576
1.46541
1.46506
1.46473
1.46441
1.46409
1.46379
1.4635
1.46321
1.46294
1.46268
1.46241
1.49069
1.49097
1.49108
1.49097
1.49068
1.49019
1.48953
1.48866
1.48765
1.48636
1.48502
1.48413
1.48161
1.48377
1.47753
1.48538
1.477
1.48292
1.47177
1.47645
1.47185
1.47266
1.47174
1.47143
1.47111
1.47077
1.47042
1.47003
1.46959
1.46914
1.46866
1.46815
1.46763
1.4671
1.46658
1.46607
1.46557
1.46508
1.46461
1.46416
1.46372
1.4633
1.4629
1.46251
1.46214
1.46178
1.46143
1.4611
1.46079
1.46047
1.49311
1.49343
1.4936
1.49357
1.49337
1.49297
1.49242
1.49169
1.49084
1.48975
1.48855
1.4879
1.48557
1.48755
1.48232
1.48855
1.48227
1.48608
1.47649
1.47958
1.47489
1.47517
1.47381
1.47314
1.47244
1.47178
1.47114
1.47051
1.46987
1.46925
1.46862
1.46795
1.46728
1.46661
1.46595
1.46531
1.46468
1.46408
1.4635
1.46295
1.46241
1.4619
1.46142
1.46095
1.4605
1.46007
1.45966
1.45927
1.4589
1.45853
1.49559
1.49597
1.49621
1.49626
1.49614
1.49583
1.49539
1.49478
1.49406
1.49313
1.49205
1.49157
1.48941
1.49116
1.48676
1.49164
1.48686
1.48913
1.48075
1.4825
1.47776
1.47755
1.47582
1.47481
1.47377
1.4728
1.4719
1.47103
1.4702
1.46941
1.46862
1.46781
1.46698
1.46616
1.46536
1.46458
1.46383
1.46311
1.46242
1.46176
1.46113
1.46053
1.45995
1.4594
1.45888
1.45838
1.45791
1.45745
1.45702
1.4566
1.49815
1.49858
1.49888
1.49901
1.49898
1.49877
1.49842
1.49792
1.49731
1.49652
1.49553
1.49516
1.49315
1.49466
1.49091
1.49465
1.49095
1.49208
1.48464
1.48525
1.48048
1.47983
1.47778
1.47645
1.4751
1.47384
1.47268
1.47159
1.47057
1.46962
1.46867
1.4677
1.46671
1.46574
1.4648
1.46388
1.463
1.46216
1.46136
1.46059
1.45986
1.45917
1.45851
1.45788
1.45728
1.4567
1.45616
1.45564
1.45514
1.45466
1.50077
1.50126
1.50163
1.50184
1.50189
1.50178
1.50152
1.50111
1.50059
1.49992
1.49899
1.49869
1.49682
1.49807
1.49482
1.49761
1.49469
1.49495
1.48824
1.48788
1.48309
1.48202
1.47968
1.47806
1.47641
1.47489
1.47348
1.47217
1.47098
1.46986
1.46875
1.46762
1.46648
1.46536
1.46427
1.46321
1.4622
1.46124
1.46032
1.45945
1.45862
1.45783
1.45708
1.45636
1.45568
1.45503
1.45441
1.45382
1.45326
1.45272
1.50345
1.504
1.50444
1.50473
1.50488
1.50485
1.50468
1.50435
1.5039
1.50332
1.50245
1.50219
1.50044
1.50142
1.49857
1.50055
1.49816
1.49776
1.4916
1.49041
1.48561
1.48415
1.48155
1.47965
1.47773
1.47595
1.4743
1.47279
1.47141
1.47013
1.46886
1.46758
1.46629
1.46501
1.46377
1.46257
1.46143
1.46034
1.45931
1.45832
1.45739
1.4565
1.45566
1.45486
1.4541
1.45337
1.45268
1.45202
1.45139
1.45079
1.50619
1.50681
1.50732
1.50769
1.50792
1.50798
1.5079
1.50765
1.50726
1.50676
1.50593
1.50567
1.50401
1.50474
1.5022
1.5035
1.50145
1.50052
1.49478
1.49289
1.48806
1.48623
1.4834
1.48123
1.47905
1.47702
1.47514
1.47343
1.47188
1.47043
1.46901
1.46757
1.46612
1.46469
1.4633
1.46196
1.46068
1.45947
1.45831
1.45722
1.45618
1.45519
1.45426
1.45337
1.45252
1.45171
1.45095
1.45022
1.44952
1.44885
1.50899
1.50969
1.51027
1.51072
1.51104
1.51118
1.51118
1.51099
1.51066
1.51022
1.50942
1.50915
1.50757
1.50804
1.50574
1.50647
1.5046
1.50325
1.49782
1.49532
1.49046
1.48829
1.48524
1.48281
1.48038
1.47811
1.47601
1.4741
1.47237
1.47077
1.46919
1.4676
1.46599
1.4644
1.46285
1.46137
1.45996
1.45862
1.45734
1.45613
1.45498
1.45389
1.45286
1.45188
1.45095
1.45006
1.44922
1.44841
1.44765
1.44692
1.51184
1.51263
1.51329
1.51382
1.51423
1.51446
1.51452
1.5144
1.51412
1.51372
1.51295
1.51265
1.51113
1.51136
1.50923
1.50947
1.50768
1.50597
1.50077
1.49774
1.49283
1.49034
1.48708
1.48441
1.48173
1.47923
1.4769
1.4748
1.47291
1.47114
1.46941
1.46765
1.46589
1.46414
1.46244
1.46082
1.45926
1.45779
1.45639
1.45506
1.4538
1.45261
1.45148
1.45041
1.44939
1.44842
1.4475
1.44662
1.44578
1.44499
1.51475
1.51563
1.51638
1.517
1.51749
1.5178
1.51794
1.51788
1.51764
1.51728
1.51652
1.51618
1.5147
1.5147
1.51268
1.51249
1.51073
1.50873
1.50368
1.50018
1.4952
1.49241
1.48894
1.48603
1.48311
1.48038
1.47783
1.47554
1.47347
1.47156
1.46967
1.46775
1.46582
1.46392
1.46206
1.46029
1.45859
1.45698
1.45545
1.45401
1.45264
1.45134
1.45011
1.44894
1.44783
1.44678
1.44578
1.44482
1.44391
1.44305
1.51772
1.51869
1.51953
1.52024
1.52082
1.52122
1.52143
1.52143
1.52123
1.5209
1.52015
1.51977
1.51832
1.51808
1.51612
1.51555
1.51378
1.51153
1.50657
1.50266
1.49758
1.49451
1.49084
1.48769
1.48453
1.48157
1.47881
1.47632
1.47409
1.47201
1.46996
1.46789
1.4658
1.46373
1.46172
1.45979
1.45795
1.4562
1.45454
1.45297
1.45149
1.45008
1.44875
1.44749
1.44629
1.44515
1.44406
1.44303
1.44204
1.44111
1.52074
1.52182
1.52276
1.52356
1.52424
1.52473
1.52501
1.52507
1.5249
1.52459
1.52386
1.52341
1.52198
1.52153
1.51957
1.51867
1.51686
1.51442
1.50948
1.50521
1.5
1.49666
1.49278
1.4894
1.486
1.48281
1.47983
1.47715
1.47475
1.47252
1.47031
1.46808
1.46582
1.46359
1.46141
1.45933
1.45734
1.45545
1.45366
1.45196
1.45036
1.44884
1.44741
1.44604
1.44475
1.44352
1.44235
1.44124
1.44018
1.43917
1.52383
1.52501
1.52605
1.52696
1.52774
1.52832
1.52867
1.52879
1.52865
1.52837
1.52765
1.52715
1.52572
1.52506
1.52308
1.52188
1.52001
1.5174
1.51244
1.50784
1.50248
1.49887
1.49479
1.49116
1.48754
1.48412
1.48092
1.47805
1.47548
1.47308
1.47071
1.46831
1.46589
1.46349
1.46115
1.4589
1.45676
1.45473
1.4528
1.45098
1.44925
1.44762
1.44608
1.44461
1.44322
1.4419
1.44065
1.43945
1.43831
1.43723
1.52697
1.52827
1.52942
1.53044
1.53133
1.532
1.53243
1.53261
1.53251
1.53225
1.53154
1.53098
1.52955
1.5287
1.52668
1.5252
1.52326
1.52048
1.51547
1.51055
1.5051
1.50114
1.49688
1.49302
1.48916
1.4855
1.48209
1.47902
1.47627
1.47371
1.47118
1.46861
1.46601
1.46344
1.46093
1.45852
1.45622
1.45404
1.45197
1.45002
1.44817
1.44642
1.44476
1.4432
1.44171
1.44029
1.43895
1.43766
1.43644
1.43529
1.53019
1.5316
1.53287
1.53401
1.53501
1.53578
1.5363
1.53653
1.53648
1.53624
1.53554
1.53493
1.53349
1.53247
1.53039
1.52867
1.52663
1.52366
1.51859
1.51334
1.50781
1.50355
1.4991
1.49498
1.49089
1.48699
1.48335
1.48008
1.47715
1.47441
1.47171
1.46897
1.4662
1.46345
1.46076
1.45819
1.45572
1.45339
1.45118
1.44909
1.44711
1.44524
1.44347
1.44179
1.4402
1.43869
1.43725
1.43588
1.43458
1.43335
1.53347
1.53501
1.5364
1.53767
1.53879
1.53967
1.54027
1.54058
1.54057
1.54035
1.53967
1.53901
1.53756
1.53639
1.53424
1.5323
1.53014
1.52698
1.52185
1.51629
1.5106
1.50611
1.50143
1.49707
1.49272
1.48858
1.4847
1.48123
1.47811
1.4752
1.47233
1.46941
1.46645
1.46352
1.46066
1.4579
1.45528
1.45278
1.45042
1.44819
1.44608
1.44409
1.4422
1.44041
1.43871
1.4371
1.43556
1.4341
1.43271
1.4314
1.53682
1.5385
1.54002
1.54142
1.54267
1.54368
1.54437
1.54474
1.54478
1.54459
1.54393
1.54323
1.54178
1.54047
1.53825
1.53611
1.5338
1.53047
1.52525
1.51942
1.51354
1.5088
1.50391
1.49928
1.49469
1.49029
1.48618
1.48249
1.47918
1.47609
1.47303
1.46993
1.46679
1.46366
1.46061
1.45768
1.45488
1.45222
1.44971
1.44733
1.44508
1.44296
1.44094
1.43904
1.43723
1.43551
1.43388
1.43232
1.43084
1.42945
1.54025
1.54207
1.54373
1.54528
1.54667
1.5478
1.54859
1.54904
1.54914
1.54898
1.54835
1.54762
1.54617
1.54473
1.54244
1.54012
1.53764
1.53414
1.52882
1.52274
1.51666
1.51165
1.50653
1.50165
1.4968
1.49214
1.48778
1.48387
1.48037
1.47708
1.47384
1.47055
1.46721
1.46389
1.46064
1.45752
1.45454
1.45171
1.44903
1.4465
1.44411
1.44185
1.43971
1.43769
1.43576
1.43394
1.4322
1.43055
1.42897
1.42749
1.54375
1.54573
1.54754
1.54924
1.55078
1.55205
1.55295
1.55348
1.55364
1.55353
1.55293
1.55218
1.55073
1.5492
1.54684
1.54435
1.54171
1.53802
1.53259
1.52626
1.51997
1.5147
1.50934
1.50419
1.49907
1.49414
1.48953
1.48539
1.48168
1.4782
1.47476
1.47127
1.46773
1.4642
1.46075
1.45743
1.45426
1.45125
1.4484
1.44572
1.44318
1.44078
1.4385
1.43635
1.43431
1.43237
1.43053
1.42877
1.4271
1.42553
1.54733
1.54947
1.55145
1.55332
1.55502
1.55643
1.55745
1.55807
1.5583
1.55824
1.55769
1.55693
1.55549
1.55388
1.55145
1.54882
1.54601
1.54215
1.53658
1.53
1.52349
1.51795
1.51235
1.50692
1.50153
1.49631
1.49143
1.48705
1.48313
1.47945
1.47581
1.47211
1.46836
1.46461
1.46095
1.45741
1.45405
1.45085
1.44783
1.44497
1.44228
1.43973
1.43732
1.43504
1.43287
1.43081
1.42886
1.42699
1.42522
1.42356
1.551
1.55331
1.55546
1.5575
1.55938
1.56095
1.5621
1.56282
1.56313
1.56313
1.56263
1.56189
1.56046
1.55879
1.55631
1.55355
1.55058
1.54655
1.54083
1.53398
1.52723
1.52143
1.51557
1.50986
1.50418
1.49867
1.49352
1.48889
1.48473
1.48084
1.47699
1.47307
1.4691
1.46513
1.46124
1.45748
1.45391
1.45051
1.4473
1.44428
1.44142
1.43872
1.43616
1.43374
1.43145
1.42927
1.42719
1.42522
1.42333
1.42158
1.55475
1.55724
1.55957
1.56181
1.56387
1.56561
1.5669
1.56774
1.56814
1.56821
1.56777
1.56705
1.56565
1.56394
1.56143
1.55854
1.55542
1.55124
1.54536
1.53824
1.53124
1.52515
1.51903
1.51304
1.50706
1.50125
1.49581
1.49091
1.48652
1.4824
1.47832
1.47418
1.46997
1.46576
1.46163
1.45764
1.45385
1.45024
1.44684
1.44363
1.4406
1.43774
1.43503
1.43247
1.43003
1.42772
1.42553
1.42344
1.42144
1.41958
1.55858
1.56127
1.5638
1.56623
1.5685
1.57043
1.57187
1.57283
1.57333
1.57348
1.57312
1.57244
1.57108
1.56935
1.56682
1.56382
1.56055
1.55623
1.55018
1.54278
1.53551
1.52915
1.52276
1.51647
1.51018
1.50406
1.49832
1.49314
1.48849
1.48413
1.47982
1.47544
1.47098
1.46651
1.46213
1.45791
1.45387
1.45005
1.44644
1.44304
1.43983
1.4368
1.43393
1.43121
1.42864
1.42619
1.42387
1.42165
1.41954
1.41758
1.56251
1.5654
1.56813
1.57078
1.57327
1.57539
1.577
1.57809
1.57871
1.57895
1.57869
1.57805
1.57675
1.57503
1.57249
1.56939
1.56598
1.56153
1.55531
1.54763
1.54008
1.53344
1.52677
1.52018
1.51358
1.50714
1.50108
1.4956
1.49067
1.48606
1.4815
1.47686
1.47214
1.46741
1.46276
1.45828
1.454
1.44995
1.44612
1.44251
1.43911
1.4359
1.43286
1.42998
1.42726
1.42467
1.42221
1.41987
1.41763
1.41557
1.56652
1.56963
1.57258
1.57546
1.57818
1.58052
1.58231
1.58354
1.58428
1.58464
1.58448
1.58391
1.58267
1.58097
1.57845
1.57524
1.5717
1.56713
1.56075
1.55278
1.54496
1.53803
1.53108
1.52418
1.51726
1.51049
1.5041
1.49831
1.49309
1.4882
1.48337
1.47847
1.47347
1.46845
1.46352
1.45877
1.45423
1.44993
1.44587
1.44205
1.43844
1.43504
1.43183
1.42878
1.4259
1.42316
1.42056
1.41808
1.41572
1.41354
1.57061
1.57395
1.57713
1.58026
1.58323
1.5858
1.58779
1.58918
1.59006
1.59054
1.59049
1.59001
1.58885
1.58718
1.58468
1.58139
1.57773
1.57305
1.56651
1.55826
1.55017
1.54295
1.53572
1.5285
1.52126
1.51414
1.50741
1.50129
1.49576
1.49057
1.48546
1.48027
1.47498
1.46966
1.46444
1.45939
1.45457
1.45002
1.44571
1.44166
1.43784
1.43424
1.43083
1.42762
1.42456
1.42167
1.41892
1.41629
1.41379
1.41149
1.5748
1.57838
1.5818
1.58519
1.58842
1.59124
1.59343
1.595
1.59603
1.59665
1.59674
1.59635
1.59528
1.59367
1.59119
1.58783
1.58406
1.57928
1.57258
1.56408
1.55571
1.54822
1.54069
1.53316
1.52558
1.51811
1.51103
1.50456
1.4987
1.4932
1.48779
1.48229
1.47668
1.47105
1.46551
1.46016
1.45505
1.45021
1.44565
1.44135
1.43731
1.43349
1.42989
1.42648
1.42325
1.42019
1.41728
1.4145
1.41186
1.40942
1.57906
1.58289
1.58657
1.59024
1.59376
1.59684
1.59926
1.60101
1.60221
1.60298
1.60321
1.60295
1.60198
1.60042
1.59798
1.59456
1.59069
1.58582
1.57898
1.57023
1.5616
1.55383
1.54601
1.53817
1.53025
1.52242
1.51497
1.50814
1.50193
1.4961
1.49037
1.48455
1.47861
1.47265
1.46677
1.46109
1.45567
1.45054
1.4457
1.44114
1.43685
1.43281
1.42899
1.42538
1.42197
1.41873
1.41565
1.41271
1.40991
1.40734
1.5834
1.5875
1.59145
1.59542
1.59923
1.60259
1.60525
1.6072
1.60858
1.60952
1.60992
1.60979
1.60894
1.60745
1.60504
1.60159
1.59762
1.59267
1.58569
1.57673
1.56785
1.5598
1.55169
1.54353
1.53527
1.52708
1.51926
1.51205
1.50547
1.4993
1.49322
1.48706
1.48078
1.47446
1.46823
1.4622
1.45645
1.451
1.44586
1.44103
1.43648
1.4322
1.42815
1.42433
1.42071
1.41728
1.41402
1.41091
1.40795
1.40522
1.58782
1.59219
1.59643
1.6007
1.60484
1.60849
1.6114
1.61357
1.61515
1.61628
1.61687
1.61689
1.61617
1.61476
1.61238
1.60891
1.60487
1.59982
1.59272
1.58357
1.57445
1.56614
1.55774
1.54926
1.54066
1.53211
1.5239
1.5163
1.50934
1.5028
1.49637
1.48985
1.48321
1.47652
1.46991
1.46351
1.4574
1.45162
1.44617
1.44104
1.43621
1.43166
1.42738
1.42332
1.41949
1.41585
1.4124
1.4091
1.40596
1.40308
1.5923
1.59696
1.6015
1.6061
1.61058
1.61454
1.61772
1.62012
1.62191
1.62325
1.62404
1.62424
1.62367
1.62235
1.62002
1.61653
1.61244
1.6073
1.60008
1.59077
1.58142
1.57284
1.56417
1.55537
1.54643
1.53751
1.52891
1.52091
1.51356
1.50664
1.49984
1.49295
1.48592
1.47884
1.47184
1.46505
1.45856
1.45242
1.44663
1.44118
1.43605
1.43122
1.42667
1.42237
1.4183
1.41445
1.41078
1.40729
1.40396
1.40091
1.59684
1.6018
1.60666
1.6116
1.61643
1.62072
1.62418
1.62683
1.62886
1.63043
1.63144
1.63184
1.63145
1.63024
1.62796
1.62449
1.62035
1.61512
1.60779
1.59832
1.58876
1.57993
1.57097
1.56186
1.55257
1.54328
1.53429
1.52589
1.51813
1.51081
1.50363
1.49635
1.48893
1.48144
1.47403
1.46683
1.45995
1.45342
1.44726
1.44147
1.43602
1.43089
1.42606
1.42149
1.41717
1.41307
1.40919
1.40548
1.40195
1.3987
1.60143
1.6067
1.61189
1.6172
1.6224
1.62704
1.6308
1.63372
1.636
1.63782
1.63908
1.63971
1.63951
1.63844
1.63623
1.63279
1.62862
1.62329
1.61586
1.60626
1.59649
1.5874
1.57816
1.56873
1.5591
1.54944
1.54005
1.53123
1.52306
1.51534
1.50776
1.50009
1.49226
1.48435
1.47651
1.46889
1.46158
1.45464
1.44809
1.44193
1.43614
1.43068
1.42554
1.42068
1.41609
1.41174
1.4076
1.40366
1.39991
1.39646
1.60605
1.61165
1.61718
1.62288
1.62848
1.63349
1.63757
1.64077
1.64332
1.64542
1.64697
1.64785
1.64788
1.64697
1.64485
1.64147
1.63727
1.63185
1.62432
1.6146
1.60461
1.59526
1.58573
1.57598
1.56601
1.55597
1.54617
1.53693
1.52834
1.52021
1.51223
1.50416
1.49592
1.48758
1.4793
1.47122
1.46347
1.4561
1.44914
1.44259
1.43642
1.43061
1.42514
1.41997
1.41507
1.41044
1.40603
1.40184
1.39783
1.39416
1.6107
1.61664
1.62253
1.62864
1.63466
1.64007
1.6445
1.648
1.65084
1.65324
1.6551
1.65628
1.65657
1.65586
1.65387
1.65056
1.64635
1.64083
1.6332
1.62335
1.61315
1.60353
1.5937
1.58362
1.57329
1.56286
1.55265
1.54299
1.53397
1.52542
1.51704
1.50857
1.49991
1.49114
1.4824
1.47386
1.46564
1.45782
1.45042
1.44345
1.43688
1.4307
1.42486
1.41935
1.41413
1.40918
1.40448
1.4
1.39573
1.39182
1.61536
1.62166
1.62793
1.63447
1.64095
1.64677
1.65157
1.65539
1.65855
1.66128
1.6635
1.66502
1.66562
1.66516
1.66333
1.66012
1.6559
1.65029
1.64255
1.63257
1.62212
1.61222
1.60207
1.59165
1.58094
1.57012
1.55949
1.54938
1.53993
1.53096
1.52217
1.51329
1.50422
1.49501
1.48581
1.47679
1.4681
1.45981
1.45195
1.44454
1.43755
1.43095
1.42473
1.41884
1.41327
1.40798
1.40296
1.39816
1.39359
1.3894
1.62002
1.62669
1.63337
1.64037
1.64734
1.65361
1.6588
1.66298
1.66647
1.66958
1.6722
1.6741
1.67505
1.67489
1.67327
1.67018
1.66596
1.66027
1.65242
1.64228
1.63157
1.62136
1.61087
1.60008
1.58898
1.57774
1.56667
1.55611
1.5462
1.5368
1.52759
1.51831
1.50882
1.49917
1.48951
1.48002
1.47084
1.46206
1.45373
1.44585
1.43841
1.43139
1.42474
1.41846
1.4125
1.40684
1.40146
1.39632
1.39141
1.38692
1.62467
1.63174
1.63885
1.64634
1.65382
1.66058
1.6662
1.67075
1.67462
1.67814
1.68121
1.68355
1.68492
1.6851
1.68375
1.6808
1.6766
1.67083
1.66287
1.65253
1.64153
1.63099
1.62013
1.60894
1.59742
1.58572
1.57418
1.56314
1.55276
1.54291
1.53328
1.52359
1.51369
1.5036
1.49349
1.48352
1.47384
1.46457
1.45575
1.44739
1.43948
1.43199
1.42491
1.41819
1.41182
1.40575
1.39998
1.39446
1.38918
1.38436
1.62929
1.63678
1.64435
1.65237
1.66042
1.6677
1.67378
1.67874
1.68302
1.687
1.69059
1.69343
1.69526
1.69586
1.69481
1.69204
1.68786
1.68203
1.67395
1.6634
1.65206
1.64116
1.62989
1.61827
1.60628
1.5941
1.58204
1.57048
1.5596
1.54927
1.53919
1.52908
1.51877
1.50825
1.49768
1.48723
1.47707
1.46729
1.45797
1.44912
1.44072
1.43276
1.42521
1.41803
1.41121
1.40471
1.39851
1.39258
1.3869
1.3817
1.63388
1.64181
1.64988
1.65848
1.66712
1.67498
1.68155
1.68696
1.6917
1.69617
1.70038
1.70377
1.70614
1.7072
1.70651
1.70395
1.69982
1.69394
1.68574
1.67494
1.66323
1.65193
1.64022
1.62811
1.61561
1.60289
1.59027
1.57815
1.5667
1.55586
1.54531
1.53476
1.52401
1.51306
1.50203
1.49111
1.48045
1.47017
1.46034
1.45098
1.44209
1.43363
1.42559
1.41794
1.41065
1.40368
1.39703
1.39065
1.38453
1.37893
1.63841
1.64683
1.65543
1.66465
1.67395
1.68242
1.68954
1.69543
1.70069
1.70576
1.71056
1.71461
1.7176
1.7192
1.71891
1.71658
1.71253
1.70662
1.69829
1.68721
1.67511
1.66337
1.65117
1.63854
1.62548
1.61216
1.59892
1.58616
1.5741
1.56268
1.55161
1.54058
1.52938
1.51797
1.50647
1.49506
1.4839
1.47311
1.46277
1.45291
1.4435
1.43454
1.42601
1.41786
1.41007
1.40263
1.3955
1.38864
1.38206
1.37603
1.6429
1.65183
1.66101
1.67089
1.6809
1.69004
1.69775
1.70419
1.71001
1.71574
1.72124
1.72602
1.72969
1.73189
1.73206
1.73
1.72605
1.72014
1.71168
1.7003
1.68776
1.67555
1.66283
1.64963
1.63595
1.62197
1.60804
1.59458
1.58184
1.56977
1.55811
1.54653
1.53483
1.52293
1.51093
1.49901
1.48733
1.47602
1.46516
1.45477
1.44485
1.43538
1.42634
1.41769
1.40941
1.40147
1.39386
1.38654
1.37948
1.37299
1.64732
1.6568
1.6666
1.67721
1.68799
1.69785
1.70621
1.71324
1.7197
1.72616
1.73246
1.73804
1.74247
1.74533
1.74601
1.74425
1.74044
1.73454
1.72595
1.71425
1.70126
1.68855
1.67528
1.66146
1.64711
1.63241
1.61772
1.60348
1.58996
1.57716
1.56483
1.55264
1.54035
1.5279
1.51536
1.50288
1.49065
1.47879
1.46738
1.45645
1.446
1.43601
1.42645
1.41729
1.4085
1.40005
1.39193
1.3841
1.37658
1.36968
1.65167
1.66175
1.67222
1.68361
1.69522
1.70587
1.71493
1.72262
1.72978
1.73706
1.74425
1.75072
1.75598
1.75957
1.7608
1.75939
1.75575
1.74989
1.74118
1.72915
1.71568
1.70245
1.68858
1.67411
1.65904
1.64357
1.62805
1.61295
1.59857
1.58494
1.57183
1.55893
1.54599
1.5329
1.51974
1.50664
1.49379
1.48133
1.46933
1.45783
1.44683
1.43632
1.42625
1.4166
1.40733
1.39843
1.38988
1.38165
1.37371
1.36633
1.65595
1.66666
1.67787
1.6901
1.70261
1.7141
1.72392
1.73234
1.74029
1.74846
1.75663
1.76407
1.77025
1.77465
1.77649
1.77546
1.77202
1.76623
1.7574
1.74503
1.73107
1.71729
1.7028
1.68764
1.67183
1.65552
1.63912
1.62308
1.60776
1.5932
1.57922
1.56551
1.5518
1.53798
1.52409
1.51029
1.49674
1.48358
1.47093
1.4588
1.44721
1.43614
1.42556
1.41542
1.4057
1.39638
1.38742
1.37879
1.37045
1.36268
1.66015
1.67154
1.68352
1.69667
1.71014
1.72255
1.7332
1.74241
1.75122
1.76039
1.76963
1.77815
1.78532
1.79059
1.79311
1.79252
1.78932
1.7836
1.77466
1.76195
1.74748
1.73313
1.718
1.70213
1.68551
1.66834
1.65099
1.63395
1.6176
1.60204
1.58709
1.57247
1.55789
1.54323
1.52852
1.51389
1.49953
1.48558
1.47216
1.45932
1.44706
1.43537
1.42422
1.41356
1.40336
1.39358
1.38421
1.37521
1.36657
1.35858
1.66425
1.67636
1.68919
1.70331
1.71782
1.73122
1.74276
1.75284
1.76261
1.77287
1.78329
1.79296
1.80124
1.80745
1.8107
1.8106
1.80767
1.80205
1.793
1.77995
1.76495
1.75001
1.73421
1.71758
1.70015
1.68206
1.66372
1.64562
1.62818
1.61153
1.59554
1.57991
1.56437
1.54878
1.53313
1.51758
1.50229
1.48743
1.47313
1.45946
1.44644
1.43406
1.42227
1.41106
1.40038
1.3902
1.38049
1.37122
1.36235
1.35418
1.66824
1.68114
1.69486
1.71002
1.72563
1.74009
1.75259
1.76362
1.77445
1.78591
1.7976
1.80854
1.818
1.82526
1.82933
1.82977
1.82715
1.82164
1.81249
1.79908
1.78354
1.76798
1.75146
1.73405
1.71574
1.6967
1.67732
1.65811
1.63951
1.62172
1.60461
1.58792
1.57135
1.55475
1.5381
1.52153
1.50521
1.48934
1.47406
1.45945
1.44556
1.43239
1.41992
1.40811
1.39692
1.38633
1.37629
1.36677
1.35772
1.34939
1.67212
1.68583
1.70052
1.71678
1.73357
1.74914
1.76268
1.77474
1.78673
1.79951
1.81259
1.8249
1.83566
1.84405
1.84902
1.85007
1.8478
1.84241
1.83316
1.8194
1.80328
1.78705
1.76978
1.75153
1.73231
1.71226
1.69178
1.67141
1.65161
1.63261
1.61434
1.59653
1.5789
1.56125
1.54356
1.52593
1.50853
1.49158
1.47524
1.45961
1.44476
1.43071
1.41746
1.40497
1.39322
1.38216
1.37175
1.36195
1.35271
1.34423
1.67586
1.69043
1.70613
1.72357
1.74159
1.75835
1.773
1.78619
1.79945
1.81366
1.82826
1.84207
1.85424
1.86387
1.86983
1.87156
1.86969
1.86445
1.85511
1.84097
1.82423
1.80729
1.7892
1.77006
1.74986
1.72875
1.70712
1.68551
1.66444
1.64419
1.6247
1.60575
1.58704
1.56834
1.54962
1.53093
1.51247
1.49444
1.47701
1.46032
1.44447
1.42948
1.41537
1.40211
1.38969
1.37806
1.36717
1.35699
1.34744
1.33868
1.67942
1.69491
1.71168
1.73035
1.74967
1.76769
1.78352
1.79794
1.8126
1.82838
1.84461
1.86006
1.87377
1.88477
1.89181
1.89432
1.89289
1.88783
1.8784
1.86387
1.84648
1.82877
1.80979
1.78968
1.76843
1.74619
1.72333
1.70042
1.67801
1.65643
1.63568
1.61556
1.59575
1.57604
1.55632
1.53665
1.51719
1.49814
1.47969
1.46198
1.44513
1.42919
1.41417
1.40007
1.38686
1.37452
1.36298
1.3522
1.34211
1.33282
1.68279
1.69922
1.71712
1.73708
1.75777
1.77711
1.79421
1.80996
1.82615
1.84364
1.86167
1.87889
1.8943
1.9068
1.91504
1.9184
1.91749
1.91264
1.90313
1.88818
1.87008
1.85155
1.83162
1.81047
1.7881
1.76464
1.74047
1.71617
1.69234
1.66935
1.64728
1.62594
1.60505
1.58434
1.5637
1.54314
1.5228
1.50285
1.4835
1.46489
1.44713
1.43028
1.41436
1.39936
1.38526
1.37202
1.3596
1.34794
1.33699
1.32677
1.68591
1.70334
1.7224
1.74372
1.76584
1.78656
1.80501
1.82222
1.84008
1.85944
1.87943
1.8986
1.91585
1.92999
1.93956
1.94388
1.94355
1.93896
1.92938
1.91399
1.89515
1.87572
1.85477
1.83251
1.80895
1.7842
1.75864
1.73287
1.70752
1.68305
1.65958
1.63698
1.61498
1.5933
1.5718
1.55045
1.52935
1.50867
1.48858
1.46922
1.45068
1.43302
1.41623
1.4003
1.3852
1.37087
1.35727
1.34438
1.33213
1.32052
1.68875
1.70719
1.72748
1.75021
1.7738
1.79599
1.81588
1.83467
1.85436
1.87576
1.89788
1.91918
1.93845
1.95439
1.96543
1.97082
1.97116
1.96687
1.95723
1.94139
1.92175
1.90137
1.87934
1.85591
1.83108
1.80498
1.77797
1.75066
1.72373
1.69768
1.67274
1.64883
1.62569
1.60305
1.58073
1.55867
1.53693
1.51565
1.49497
1.47501
1.45585
1.43749
1.41991
1.40306
1.38687
1.37126
1.35617
1.34159
1.32749
1.31386
1.69123
1.71073
1.73229
1.75647
1.78161
1.80531
1.82675
1.84727
1.86896
1.89258
1.91702
1.94064
1.96213
1.98005
1.9927
1.99929
2.00039
1.99645
1.98678
1.97045
1.94996
1.92858
1.9054
1.88072
1.85458
1.82709
1.79859
1.76969
1.74111
1.71345
1.68698
1.6617
1.6374
1.61379
1.59068
1.56797
1.54567
1.52389
1.50273
1.4823
1.46265
1.44375
1.42553
1.40789
1.39068
1.37377
1.35702
1.34033
1.32364
1.30682
1.69331
1.71388
1.73675
1.76244
1.78917
1.81446
1.83756
1.85995
1.88382
1.90986
1.93683
1.96298
1.9869
2.00698
2.02142
2.02933
2.03129
2.02778
2.01809
2.00126
1.97986
1.9574
1.933
1.90701
1.87951
1.85058
1.82057
1.79006
1.75983
1.7305
1.70247
1.6758
1.65032
1.62575
1.60186
1.57851
1.55569
1.53345
1.51187
1.49105
1.47103
1.45179
1.43324
1.41526
1.39763
1.38011
1.36235
1.3439
1.32412
1.30148
1.6949
1.71658
1.74079
1.76803
1.7964
1.82335
1.84821
1.87264
1.89889
1.92755
1.95728
1.98619
2.01276
2.03522
2.05162
2.06102
2.06396
2.06094
2.05125
2.03388
2.0115
1.98787
1.96216
1.93479
1.90587
1.87547
1.84392
1.81181
1.77991
1.74892
1.71931
1.69122
1.66453
1.63898
1.61431
1.59033
1.56697
1.54425
1.52223
1.501
1.48065
1.46121
1.44273
1.42523
1.40874
1.39339
1.37938
1.36708
1.35718
1.35108
1.69592
1.71872
1.74431
1.77313
1.80319
1.83188
1.85863
1.88525
1.91407
1.9456
1.97831
2.01025
2.03972
2.06481
2.08338
2.09442
2.09847
2.09603
2.08637
2.06842
2.04495
2.02005
1.99291
1.96407
1.93364
1.90173
1.86863
1.8349
1.80132
1.76864
1.73742
1.70787
1.67993
1.65335
1.62785
1.60319
1.57922
1.55592
1.53332
1.51148
1.49052
1.47052
1.45157
1.43375
1.41715
1.40183
1.38785
1.37521
1.36382
1.35341
1.69629
1.72023
1.74722
1.77765
1.80944
1.83994
1.86869
1.89769
1.9293
1.96391
1.99988
2.03512
2.06779
2.09576
2.11675
2.12963
2.13494
2.13317
2.12356
2.10498
2.08032
2.05402
2.02531
1.99485
1.96282
1.92932
1.89461
1.85923
1.82395
1.78955
1.75665
1.72554
1.69624
1.66852
1.64207
1.6166
1.5919
1.56786
1.54447
1.52177
1.49986
1.47883
1.4588
1.43986
1.42211
1.40561
1.39038
1.37641
1.36364
1.35189
1.6959
1.72099
1.74939
1.78146
1.81501
1.84739
1.87828
1.90984
1.94445
1.9824
2.02192
2.06078
2.09697
2.12815
2.15182
2.16678
2.17351
2.17251
2.16298
2.14371
2.11774
2.08987
2.05942
2.02719
1.99342
1.95822
1.92183
1.88475
1.84771
1.8115
1.7768
1.744
1.71316
1.6841
1.65648
1.62998
1.60432
1.57935
1.555
1.53129
1.5083
1.48614
1.46494
1.44482
1.42591
1.40827
1.39197
1.37698
1.36317
1.35036
1.69467
1.72089
1.75072
1.78444
1.81978
1.85411
1.88725
1.92155
1.9594
2.00098
2.04435
2.08718
2.12727
2.16201
2.18869
2.20597
2.21432
2.2142
2.20479
2.18479
2.15735
2.12774
2.09535
2.06115
2.02547
1.98844
1.95026
1.91139
1.8725
1.83439
1.79776
1.76307
1.73046
1.69976
1.67068
1.64286
1.61599
1.58987
1.56442
1.53965
1.51565
1.49254
1.47044
1.44948
1.42975
1.4113
1.39412
1.37813
1.36315
1.34903
1.69248
1.71982
1.75107
1.78644
1.82358
1.85992
1.89545
1.93269
1.97402
2.01951
2.06709
2.11429
2.15869
2.19739
2.22744
2.24734
2.25752
2.25843
2.24918
2.22838
2.19933
2.16777
2.1332
2.09679
2.05898
2.01994
1.97984
1.93906
1.89823
1.8581
1.8194
1.78263
1.74797
1.71535
1.68449
1.65505
1.62671
1.59926
1.57262
1.54679
1.52188
1.49802
1.47531
1.45383
1.43359
1.41456
1.39662
1.37963
1.36339
1.34782
1.68921
1.71765
1.7503
1.7873
1.82626
1.86466
1.9027
1.94306
1.98813
2.03785
2.09002
2.14201
2.1912
2.23432
2.26814
2.291
2.30325
2.30533
2.2963
2.27464
2.2438
2.21005
2.17301
2.13409
2.09388
2.0526
2.01039
1.96756
1.92466
1.88241
1.84149
1.80245
1.76553
1.73072
1.69782
1.66653
1.63655
1.60769
1.57983
1.553
1.52727
1.50276
1.47954
1.45763
1.43696
1.41738
1.39871
1.38077
1.36339
1.34654
1.68476
1.71425
1.74826
1.78687
1.82762
1.86811
1.90879
1.95246
2.00153
2.05581
2.11298
2.17025
2.22472
2.27278
2.31081
2.33699
2.35159
2.35504
2.3463
2.32372
2.29088
2.25464
2.21478
2.17298
2.13001
2.08617
2.04159
1.99651
1.95138
1.90684
1.86357
1.82211
1.78275
1.74558
1.71048
1.67722
1.64556
1.61531
1.58635
1.55865
1.53223
1.50714
1.48338
1.46092
1.43962
1.41932
1.39982
1.38099
1.36273
1.34505
1.679
1.70948
1.7448
1.78494
1.82745
1.87007
1.91348
1.96065
2.01397
2.07316
2.13575
2.1988
2.25912
2.31266
2.35542
2.38535
2.40263
2.40766
2.39931
2.37575
2.34067
2.3016
2.25849
2.21333
2.16714
2.12033
2.07302
2.02539
1.97779
1.93078
1.885
1.84098
1.79909
1.75947
1.72211
1.68686
1.65356
1.62203
1.59213
1.56375
1.53681
1.51123
1.48691
1.46376
1.44163
1.4204
1.39997
1.3803
1.36144
1.34337
1.67181
1.70321
1.73974
1.78133
1.82552
1.87026
1.91648
1.96732
2.02515
2.08958
2.15803
2.22741
2.29419
2.35383
2.40189
2.43606
2.4564
2.4633
2.45547