/*--------------------------------*- C++ -*----------------------------------*\
  =========                 |
  \\      /  F ield         | OpenFOAM: The Open Source CFD Toolbox
   \\    /   O peration     | Website:  https://openfoam.org
    \\  /    A nd           | Version:  9
     \\/     M anipulation  |
\*---------------------------------------------------------------------------*/
FoamFile
{
    format      ascii;
    class       volScalarField;
    location    "0.08";
    object      p_rgh;
}
// * * * * * * * * * * * * * * * * * * * * * * * * * * * * * * * * * * * * * //

dimensions      [1 -1 -2 0 0 0 0];

internalField   nonuniform List<scalar> 
5000
(
-0.00401497
-0.00423877
-0.00565509
-0.00699191
-0.00729121
-0.00676528
-0.0070106
-0.00945027
-0.0139737
-0.0198985
-0.026511
-0.0338321
-0.0419236
-0.0492116
-0.0481809
0.00120405
-0.147655
-0.0373977
-0.0669574
-0.0480771
-0.0391908
-0.0325609
-0.0272572
-0.0227222
-0.0183248
-0.0134207
-0.00796294
-0.00356946
-0.00256133
-0.00410539
-0.00559998
-0.00653518
-0.00693889
-0.00680937
-0.00627684
-0.00548535
-0.00455524
-0.00358038
-0.00263608
-0.00177886
-0.0010458
-0.000455081
-8.45238e-06
0.000304385
0.000500442
0.000598264
0.000613539
0.000558508
0.00043253
0.000196677
0.000198956
-0.00088567
-0.00196255
-0.00234265
-0.00219465
-0.00232286
-0.00400544
-0.00748096
-0.0116737
-0.0162649
-0.021293
-0.0268996
-0.0320279
-0.0332373
-0.0342511
0.00705156
-0.116145
-0.0417147
-0.0626568
-0.0357834
-0.0304013
-0.0250803
-0.0205221
-0.0163553
-0.0122255
-0.00795112
-0.00397223
-0.0017806
-0.00260817
-0.00497941
-0.00638466
-0.00629823
-0.00540203
-0.00429129
-0.00325538
-0.00233202
-0.00150512
-0.000767378
-0.000127305
0.00040281
0.000815033
0.00110892
0.00129117
0.00137335
0.00136884
0.00129014
0.00114762
0.000950691
0.000693676
0.000295594
0.00315484
0.00263461
0.00195616
0.00145539
0.00117413
0.000645403
-0.00092435
-0.0037207
-0.00721346
-0.0112247
-0.0154544
-0.0200594
-0.0241131
-0.0235414
-0.0331253
0.000699553
-0.087721
-0.0243843
-0.0536723
-0.0289904
-0.0260571
-0.0209132
-0.0168879
-0.0133276
-0.0100036
-0.00687798
-0.00415217
-0.00249446
-0.0024419
-0.00318666
-0.003669
-0.00373861
-0.00344386
-0.00289482
-0.00225832
-0.00162787
-0.00104479
-0.000527699
-8.72699e-05
0.00027058
0.000543853
0.000734475
0.000847854
0.000891905
0.000875745
0.000808378
0.000699419
0.000561308
0.000399404
0.000159202
0.00635379
0.00623463
0.00575587
0.00512376
0.00457633
0.00390974
0.0026166
0.000417064
-0.00252018
-0.00606995
-0.00968938
-0.0136066
-0.0174333
-0.0161191
-0.029075
-0.000554418
-0.0624041
-0.0130555
-0.04333
-0.0221173
-0.0215714
-0.0167721
-0.0134165
-0.0105117
-0.00788981
-0.0055341
-0.00347588
-0.0020051
-0.00145575
-0.00146675
-0.00159129
-0.00174034
-0.00177061
-0.00158252
-0.00127665
-0.000918824
-0.000557183
-0.000222765
6.59161e-05
0.000299291
0.000473792
0.000590171
0.000652284
0.000666094
0.000638737
0.000577367
0.000489319
0.000385496
0.000271804
0.000108956
0.0099441
0.00997735
0.00967551
0.00912427
0.00852421
0.00776912
0.00656011
0.00469796
0.00224571
-0.000768386
-0.00377992
-0.00701396
-0.0106029
-0.00861416
-0.0216876
0.00134444
-0.0415612
-0.00622671
-0.032356
-0.0145672
-0.0160615
-0.0119481
-0.00942981
-0.00716337
-0.00511221
-0.00332748
-0.00182955
-0.000761038
-0.00028256
-0.000153408
-0.000129302
-0.000172474
-0.000168583
-9.35387e-05
2.77586e-05
0.000177459
0.000333704
0.00047812
0.000597795
0.000685352
0.000737858
0.000755708
0.000741552
0.000699427
0.00063409
0.000550187
0.000452131
0.000346946
0.000239075
9.4333e-05
0.0137961
0.013887
0.0137327
0.0133185
0.0127529
0.0119617
0.0107907
0.0091614
0.00712512
0.00461565
0.00214737
-0.000417332
-0.00373646
-0.00135299
-0.0133743
0.00507053
-0.0252601
-0.000103691
-0.0218279
-0.0073392
-0.010185
-0.00682647
-0.0051794
-0.00353571
-0.00202968
-0.000761608
0.000244725
0.000915101
0.00119919
0.00128702
0.00132637
0.00131834
0.00131759
0.00132179
0.00132383
0.00132502
0.00132097
0.00130661
0.00127789
0.00123244
0.00116952
0.00108984
0.000995105
0.000887649
0.000770133
0.000645068
0.000514739
0.000383539
0.000254167
9.67498e-05
0.0177949
0.0179316
0.0178694
0.0175504
0.0170396
0.0162855
0.0152132
0.0138006
0.0120982
0.00998875
0.00793491
0.00593875
0.00282876
0.00530158
-0.00521053
0.00975773
-0.012028
0.00600537
-0.0122885
-0.000825897
-0.00445306
-0.00179314
-0.00094002
0.00012491
0.00110512
0.00190558
0.00251879
0.00289512
0.00301489
0.00300755
0.00295665
0.00285832
0.0027523
0.00264078
0.00252148
0.00239656
0.00226522
0.00212683
0.00198118
0.00182832
0.0016687
0.00150314
0.00133283
0.00115914
0.00098359
0.000807555
0.000632216
0.000460565
0.000294413
0.000107834
0.0218948
0.0220803
0.022078
0.0218255
0.0213785
0.0207059
0.0197738
0.0185688
0.0171368
0.0153422
0.0135881
0.0120461
0.00912233
0.0115362
0.00260443
0.0147724
-0.000928156
0.0118281
-0.00367129
0.00514948
0.00104888
0.00305654
0.00322362
0.00377704
0.0042778
0.00466396
0.00494064
0.00506316
0.00501641
0.00488088
0.00469771
0.00446556
0.00422091
0.00397145
0.00371925
0.00346687
0.00321439
0.00296208
0.00271028
0.00245929
0.00220957
0.00196171
0.00171646
0.00147463
0.00123712
0.00100461
0.000777582
0.000558071
0.000347359
0.000123392
0.0260919
0.0263235
0.026377
0.0261926
0.0258199
0.0252406
0.0244476
0.023427
0.0222226
0.0206957
0.0191705
0.017994
0.0152694
0.0175748
0.0100885
0.0198988
0.00851217
0.0173349
0.00421153
0.010783
0.00637642
0.0077651
0.00734365
0.00744645
0.00751505
0.00752588
0.00748515
0.00734999
0.0071123
0.00682384
0.00649766
0.00612871
0.0057459
0.00535843
0.00497159
0.00458958
0.00421412
0.00384635
0.00348691
0.00313611
0.00279417
0.00246136
0.00213796
0.00182423
0.00152044
0.0012267
0.000942859
0.000670116
0.000409349
0.000142178
0.0303845
0.03066
0.030773
0.0306643
0.0303734
0.0298872
0.029219
0.0283561
0.0273444
0.0260516
0.0247097
0.0238267
0.0213063
0.023467
0.0172226
0.0250708
0.0166893
0.0226164
0.0114592
0.0161382
0.0115449
0.0123565
0.0114304
0.0111277
0.0107995
0.0104615
0.0101159
0.00972379
0.00928496
0.00883135
0.00835476
0.00784361
0.00731953
0.00679283
0.00627086
0.00575889
0.00525975
0.00477531
0.00430651
0.00385375
0.00341713
0.00299656
0.00259183
0.00220267
0.00182877
0.00146965
0.00112465
0.000794279
0.000479085
0.000163821
0.0347613
0.0350833
0.0352593
0.0352287
0.0350224
0.0346284
0.0340741
0.0333473
0.0324961
0.0314039
0.0302083
0.0295529
0.0272249
0.0292001
0.0239779
0.0302037
0.0239273
0.0277391
0.0181476
0.0212364
0.0165421
0.0168246
0.0154665
0.0147935
0.0140975
0.0134332
0.0127989
0.0121617
0.0115256
0.0109041
0.0102714
0.00960994
0.00893726
0.00826603
0.00760546
0.00696165
0.00633782
0.00573597
0.00515707
0.0046014
0.00406877
0.00355872
0.00307053
0.0026034
0.00215649
0.00172885
0.00131936
0.000928024
0.000555135
0.00018786
0.0392111
0.0395832
0.0398258
0.0398729
0.0397528
0.0394509
0.0390026
0.0383949
0.0376758
0.0367513
0.0356704
0.0351829
0.0330277
0.0347819
0.030379
0.035255
0.0304781
0.0327431
0.0243694
0.0261174
0.0213732
0.02117
0.0194402
0.0184268
0.0173902
0.0164216
0.0155153
0.0146462
0.013819
0.01303
0.0122388
0.0114227
0.0105967
0.00977642
0.00897362
0.00819512
0.00744454
0.00672381
0.00603358
0.00537376
0.00474374
0.00414254
0.00356896
0.00302167
0.00249936
0.00200063
0.00152399
0.001069
0.000635809
0.00021354
0.0437279
0.044158
0.0444605
0.0445901
0.0445583
0.0443485
0.0439991
0.043496
0.0428854
0.0420996
0.0411073
0.0407361
0.0387339
0.0402425
0.0364859
0.0402295
0.0365339
0.0376568
0.03022
0.0308314
0.0260618
0.0254087
0.0233549
0.0220262
0.0206742
0.0194207
0.0182564
0.0171655
0.0161521
0.015197
0.0142471
0.013275
0.0122938
0.0113221
0.0103745
0.0094591
0.00857969
0.00773833
0.00693514
0.00616952
0.00544033
0.00474606
0.00408496
0.0034552
0.00285499
0.00228253
0.00173592
0.00121428
0.000717441
0.000235757
0.0483082
0.0487986
0.0491669
0.0493778
0.0494348
0.0493166
0.0490599
0.0486492
0.0481279
0.0474563
0.0465323
0.0462339
0.0443655
0.0456144
0.0423638
0.0451519
0.0422307
0.0424951
0.0357772
0.0354208
0.0306344
0.0295625
0.0272219
0.0255982
0.0239524
0.0224297
0.0210185
0.0197136
0.0185181
0.0173985
0.0162907
0.015162
0.0140247
0.0129004
0.0118064
0.0107523
0.00974254
0.00877875
0.00786073
0.0069874
0.00615704
0.00536761
0.00461685
0.00390247
0.00322226
0.00257403
0.00195558
0.00136572
0.000804196
0.000263141
0.0529503
0.0535051
0.0539427
0.0542338
0.0543787
0.0543506
0.0541813
0.0538537
0.0534063
0.0528278
0.0519569
0.0516953
0.0499413
0.0509262
0.0480723
0.0500547
0.0476652
0.0472672
0.0411013
0.0399179
0.0351147
0.0336521
0.0310539
0.0291517
0.0272297
0.0254502
0.0238011
0.0222885
0.0209146
0.0196325
0.0183676
0.0170821
0.015788
0.01451
0.0132683
0.0120739
0.010932
0.00984381
0.0088089
0.00782567
0.00689193
0.00600513
0.00516256
0.00436148
0.00359926
0.00287339
0.0021813
0.00152144
0.000893376
0.000291066
0.0576524
0.0582777
0.0587868
0.0591572
0.0593887
0.0594485
0.0593618
0.0591101
0.0587249
0.0582212
0.0573915
0.0571383
0.0554794
0.0562034
0.0536614
0.0549657
0.0529117
0.0519869
0.0462426
0.0443507
0.0395246
0.0376973
0.034864
0.0326962
0.0305121
0.0284855
0.026606
0.0248911
0.0233417
0.0218998
0.0204775
0.0190352
0.0175839
0.0161512
0.01476
0.0134235
0.012147
0.0109321
0.00977794
0.00868248
0.00764309
0.00665676
0.00572032
0.00483058
0.0039845
0.00317919
0.00241175
0.00168023
0.000984035
0.000318952
0.0624121
0.0631153
0.0636993
0.0641494
0.0644664
0.0646119
0.0646036
0.0644218
0.0640896
0.0636454
0.0628475
0.0625809
0.0609987
0.06147
0.0591675
0.0598992
0.0580304
0.0566762
0.0512481
0.0487465
0.0438864
0.0417175
0.0386651
0.0362418
0.0338065
0.0315399
0.0294357
0.027523
0.0257996
0.024201
0.0226215
0.0210222
0.0194129
0.0178239
0.0162815
0.0148003
0.0133868
0.0120425
0.0107665
0.00955646
0.0084092
0.00732128
0.00628904
0.00530883
0.00437719
0.00349081
0.00264647
0.00184183
0.00107611
0.000346719
0.0672282
0.0680165
0.0686801
0.0692124
0.0696147
0.0698444
0.0699111
0.0697939
0.0695079
0.0691107
0.0683371
0.0680407
0.0665179
0.0667459
0.0646159
0.0648577
0.0630718
0.0613632
0.0561627
0.053132
0.0482217
0.0457317
0.0424704
0.0397989
0.0371201
0.0346185
0.0322938
0.0301874
0.0282947
0.0265335
0.0247997
0.0230438
0.0212756
0.0195289
0.0178329
0.0162045
0.0146514
0.0131752
0.0117749
0.0104478
0.00919049
0.00799887
0.00686885
0.0057963
0.0047773
0.00380817
0.00288531
0.00200604
0.00116936
0.000374094
0.0721001
0.07298
0.0737288
0.0743474
0.0748369
0.0751504
0.0752896
0.075233
0.0749881
0.0746281
0.0738729
0.0735345
0.0720553
0.0720488
0.0700281
0.0698426
0.0680792
0.0660778
0.0610287
0.0575331
0.0525515
0.0497596
0.0462937
0.04338
0.0404621
0.0377282
0.0351859
0.0328874
0.0308259
0.0289065
0.027017
0.025103
0.0231745
0.0212679
0.0194159
0.0176378
0.0159422
0.0143314
0.0128043
0.0113578
0.00998798
0.00869041
0.00746044
0.00629347
0.00518514
0.00413138
0.00312822
0.00217262
0.00126338
0.000400674
0.0770286
0.0780054
0.0788454
0.0795556
0.0801357
0.0805342
0.0807448
0.0807462
0.0805391
0.0802087
0.0794678
0.0790788
0.0776284
0.0773959
0.0754287
0.0748641
0.0730906
0.0708474
0.0658838
0.0619745
0.0568947
0.0538224
0.0501493
0.0469988
0.0438427
0.0408786
0.0381202
0.0356311
0.0334008
0.031324
0.0292777
0.027204
0.0251131
0.0230444
0.0210336
0.0191026
0.0172616
0.0155134
0.0138565
0.0122878
0.0108029
0.00939682
0.00806449
0.0068008
0.00560098
0.00446053
0.00337514
0.00234135
0.00135778
0.00042603
0.0820154
0.0830938
0.0840311
0.0848388
0.0855142
0.0860004
0.0862827
0.0863411
0.0861703
0.0858642
0.0851346
0.0846899
0.0832557
0.0828063
0.0808484
0.079944
0.0781387
0.0756941
0.0707591
0.0664813
0.061273
0.0579368
0.0540525
0.0506719
0.0472718
0.0440814
0.0411073
0.0384275
0.0360279
0.0337917
0.031587
0.0293515
0.0270959
0.024862
0.0226892
0.0206022
0.0186124
0.0167233
0.0149336
0.0132396
0.0116367
0.0101194
0.00868203
0.00731915
0.00602547
0.0047961
0.00362635
0.00251231
0.00145241
0.000449822
0.0870627
0.0882475
0.0892882
0.0901998
0.0909762
0.0915539
0.0919098
0.0920254
0.0918911
0.0916062
0.0908866
0.0903842
0.0889561
0.0883014
0.0863213
0.0851125
0.0832518
0.080634
0.0756788
0.0710732
0.065722
0.0621079
0.0580239
0.054399
0.0507774
0.0473528
0.0441598
0.0412866
0.0387154
0.0363173
0.0339511
0.0315509
0.0291273
0.0267249
0.0243865
0.0221397
0.0199975
0.0179639
0.0160378
0.0142153
0.0124913
0.0108597
0.00931456
0.00784981
0.00645973
0.00513897
0.00388248
0.00268588
0.00154738
0.00047181
0.092173
0.0934699
0.0946203
0.0956426
0.0965261
0.0972002
0.0976329
0.0978074
0.0977112
0.0974467
0.0967375
0.0961782
0.094749
0.0939033
0.0918802
0.0904006
0.0884575
0.085677
0.0806661
0.0757447
0.0703029
0.0663344
0.0620831
0.0582205
0.0543638
0.0507029
0.0472886
0.0442189
0.0414724
0.0389086
0.0363772
0.0338085
0.0312131
0.0286382
0.0261302
0.0237193
0.0214205
0.0192385
0.0171722
0.0152176
0.0133689
0.0116199
0.00996392
0.00839435
0.00690502
0.00549013
0.0041442
0.00286242
0.00164279
0.000491728
0.0973488
0.0987646
0.100031
0.101172
0.102169
0.102946
0.10346
0.103696
0.103641
0.103397
0.102701
0.102088
0.100653
0.0996336
0.0975535
0.0958332
0.0937937
0.0908198
0.0857517
0.0804994
0.0749712
0.070714
0.0662566
0.0621449
0.0580478
0.0541464
0.0505067
0.0472363
0.0443096
0.041575
0.0388737
0.0361321
0.0333605
0.0306084
0.0279258
0.025346
0.0228859
0.0205509
0.0183401
0.0162493
0.0142723
0.0124023
0.010632
0.00895426
0.00736245
0.00585029
0.00441192
0.00304203
0.00173847
0.000509143
0.102593
0.104135
0.105526
0.106793
0.107912
0.108797
0.109397
0.109699
0.109689
0.10947
0.10879
0.10813
0.106687
0.105512
0.103365
0.101425
0.0992619
0.0961043
0.0909691
0.0854103
0.0797255
0.0752287
0.0705561
0.0661888
0.061846
0.057698
0.0538273
0.0503506
0.047238
0.0443269
0.0414504
0.0385307
0.0355776
0.0326429
0.02978
0.0270255
0.0243984
0.0219052
0.0195451
0.0173135
0.0152038
0.0132087
0.0113201
0.00953051
0.00783262
0.00621972
0.00468557
0.00322436
0.00183379
0.000523367
0.107908
0.109585
0.111108
0.112509
0.113759
0.114761
0.115455
0.115827
0.115867
0.115677
0.115017
0.114318
0.112868
0.111555
0.109337
0.107197
0.104882
0.101556
0.0963331
0.090502
0.0846272
0.0798806
0.0749907
0.0703678
0.0657737
0.061372
0.0572633
0.0535736
0.0502688
0.0471752
0.0441177
0.0410143
0.0378736
0.0347496
0.0316994
0.0287634
0.0259629
0.0233054
0.0207902
0.0184126
0.0161654
0.0140405
0.0120293
0.0101236
0.00831566
0.00659823
0.0049647
0.00340868
0.00192775
0.000533452
0.113296
0.115118
0.116782
0.118327
0.119718
0.120845
0.121639
0.122087
0.122184
0.122028
0.121396
0.120668
0.119213
0.117782
0.11549
0.11317
0.110689
0.107189
0.101866
0.0957821
0.0897063
0.0846987
0.0795819
0.0746989
0.0698462
0.0651827
0.060828
0.0569176
0.0534137
0.0501314
0.0468867
0.0435929
0.0402575
0.0369364
0.033691
0.0305656
0.0275841
0.0247553
0.0220787
0.0195491
0.0171588
0.0148989
0.0127603
0.0107339
0.00881155
0.00698551
0.00524872
0.00359408
0.00201914
0.000538268
0.118761
0.120737
0.122551
0.124252
0.125793
0.127056
0.127959
0.12849
0.128649
0.128536
0.127939
0.127192
0.125739
0.124208
0.121844
0.119364
0.116714
0.113031
0.107598
0.101264
0.094977
0.0897059
0.0843515
0.0792011
0.0740808
0.0691462
0.0645362
0.0603962
0.0566853
0.0532075
0.0497688
0.0462772
0.0427386
0.0392113
0.0357614
0.0324377
0.0292668
0.0262588
0.0234136
0.0207254
0.0181858
0.0157853
0.0135138
0.0113618
0.00932037
0.00738128
0.00553703
0.00377968
0.00210675
0.000536588
0.124306
0.126445
0.12842
0.130286
0.13199
0.133399
0.13442
0.135043
0.135274
0.13521
0.134658
0.133905
0.132461
0.130849
0.128422
0.125795
0.122982
0.119121
0.113554
0.106968
0.100457
0.0949197
0.0893188
0.0838937
0.0784963
0.0732807
0.0684049
0.0640249
0.0600979
0.0564166
0.052776
0.0490778
0.0453263
0.0415827
0.037918
0.0343859
0.0310162
0.0278204
0.0247985
0.0219443
0.0192487
0.0167012
0.0142911
0.0120081
0.00984242
0.00778544
0.00582916
0.00396465
0.00218945
0.000527143
0.129932
0.132245
0.134392
0.136435
0.138313
0.139881
0.141032
0.141754
0.142065
0.142062
0.141564
0.140819
0.139392
0.137722
0.135244
0.132482
0.129511
0.125484
0.119765
0.112918
0.106167
0.10036
0.0945037
0.088797
0.0831132
0.0776065
0.0724536
0.0678217
0.0636673
0.0597725
0.0559208
0.0520059
0.0480307
0.0440594
0.0401687
0.0364173
0.0328386
0.0294454
0.0262379
0.0232096
0.0203505
0.0176491
0.015094
0.0126738
0.0103782
0.00819806
0.00612476
0.00414831
0.00226623
0.000508628
0.135643
0.13814
0.140469
0.142702
0.144768
0.146507
0.147799
0.148632
0.149033
0.149101
0.148668
0.147945
0.146547
0.144839
0.142326
0.139438
0.136316
0.132135
0.126254
0.119136
0.112131
0.106048
0.0999284
0.093933
0.0879536
0.0821456
0.0767034
0.0718058
0.0674105
0.0632904
0.0592163
0.0550734
0.0508624
0.0466512
0.0425223
0.0385398
0.0347408
0.0311397
0.027737
0.0245257
0.0214947
0.0186318
0.0159244
0.0133604
0.0109287
0.00861947
0.0064237
0.00433014
0.00233627
0.000479719
0.14144
0.144131
0.146654
0.149089
0.151359
0.153283
0.154728
0.155682
0.156184
0.156335
0.155979
0.155293
0.153936
0.152211
0.14968
0.146677
0.143408
0.139086
0.133038
0.12564
0.118369
0.112006
0.105615
0.0993246
0.0930406
0.0869209
0.0811765
0.0759979
0.071346
0.0669861
0.0626766
0.058293
0.0538334
0.049369
0.0449887
0.0407623
0.0367307
0.0329103
0.0293018
0.0258974
0.0226855
0.0196525
0.0167849
0.0140696
0.011495
0.00905028
0.00672613
0.00450989
0.0023989
0.000439051
0.147324
0.150221
0.15295
0.155601
0.158088
0.160212
0.161823
0.162911
0.163526
0.163772
0.163507
0.162872
0.161568
0.159847
0.157314
0.154205
0.150796
0.146345
0.140129
0.132444
0.1249
0.118254
0.111587
0.104994
0.0983969
0.091955
0.0858949
0.0804187
0.0754927
0.0708768
0.0663172
0.0616788
0.0569565
0.0522248
0.0475788
0.0430946
0.0388171
0.0347647
0.0309385
0.0273303
0.0239272
0.0207147
0.0176782
0.0148038
0.0120787
0.00949166
0.00703263
0.0046876
0.00245366
0.000385255
0.153296
0.156409
0.159356
0.162239
0.164959
0.167297
0.16909
0.170324
0.171064
0.171419
0.171256
0.170689
0.169451
0.16775
0.165229
0.162025
0.158483
0.153916
0.147532
0.139563
0.131742
0.124812
0.117863
0.110962
0.104044
0.0972695
0.0908801
0.0850893
0.0798704
0.0749807
0.0701548
0.0652463
0.0602462
0.0552318
0.0503047
0.0455474
0.0410093
0.0367111
0.0326543
0.0288301
0.0252247
0.0218226
0.0186079
0.0155655
0.0126819
0.00994497
0.00734384
0.00486308
0.0024995
0.000316432
0.159356
0.162696
0.165875
0.169003
0.171973
0.174542
0.176529
0.177921
0.178801
0.179279
0.179234
0.17875
0.17759
0.175924
0.173424
0.170136
0.166471
0.161797
0.155252
0.147006
0.13891
0.131697
0.12446
0.117248
0.110001
0.102884
0.0961524
0.0900301
0.0844995
0.0793171
0.0742073
0.0690124
0.0637181
0.0584045
0.0531795
0.0481326
0.0433179
0.0387586
0.0344569
0.0304036
0.026584
0.0229811
0.0195779
0.0163582
0.0133072
0.0104119
0.00766064
0.00503654
0.00253589
0.000230808
0.1655
0.169081
0.172503
0.175894
0.17913
0.181945
0.18414
0.185707
0.186738
0.187354
0.187442
0.187058
0.185989
0.184371
0.181897
0.178538
0.174761
0.169988
0.163289
0.154782
0.146416
0.138921
0.131395
0.123867
0.116285
0.108819
0.101732
0.0952618
0.0894007
0.0839063
0.0784942
0.0729952
0.0673895
0.0617591
0.0562184
0.0508638
0.045755
0.0409179
0.0363558
0.0320591
0.0280119
0.024196
0.0205931
0.0171855
0.0139571
0.010894
0.00798385
0.00520828
0.0025628
0.000126981
0.171728
0.17556
0.179241
0.182909
0.186428
0.189505
0.191923
0.193677
0.194875
0.195646
0.195881
0.195614
0.194649
0.193089
0.190646
0.187231
0.183354
0.178487
0.171643
0.162897
0.15427
0.146495
0.138679
0.130833
0.122913
0.115089
0.107637
0.100804
0.0945943
0.0887688
0.0830356
0.0772145
0.0712794
0.0653137
0.0594383
0.053757
0.0483352
0.0432022
0.0383626
0.0338065
0.029517
0.0254744
0.0216588
0.0180511
0.0146341
0.0113925
0.00831332
0.00537708
0.00257838
2.71629e-06
0.178034
0.182129
0.186082
0.190044
0.193864
0.197219
0.199876
0.20183
0.203211
0.204152
0.204553
0.204421
0.203573
0.202082
0.19967
0.196215
0.192252
0.187295
0.180316
0.171355
0.162476
0.154428
0.146323
0.138158
0.129898
0.121712
0.113885
0.106675
0.1001
0.0939247
0.087852
0.0816908
0.0754084
0.0690888
0.0628589
0.0568306
0.0510756
0.0456271
0.0404912
0.0356579
0.0311092
0.0268241
0.0227808
0.018959
0.01534
0.0119076
0.00864759
0.00553931
0.0025769
-0.000147084
0.184412
0.188784
0.193023
0.197295
0.201433
0.205082
0.207992
0.210162
0.211741
0.212872
0.213457
0.213479
0.212764
0.211353
0.208975
0.205496
0.201463
0.196415
0.189311
0.180159
0.171043
0.162727
0.154334
0.145853
0.137251
0.1287
0.12049
0.112891
0.105935
0.0993928
0.0929634
0.0864452
0.0797981
0.0731061
0.0665019
0.0601055
0.0539958
0.0482105
0.0427575
0.037627
0.0328001
0.0282543
0.0239664
0.0199146
0.0160787
0.0124414
0.00898737
0.00569419
0.00255555
-0.000326791
0.190857
0.195516
0.200055
0.204655
0.209129
0.21309
0.216268
0.21867
0.220463
0.221802
0.222592
0.22279
0.222226
0.220907
0.21857
0.215086
0.210996
0.205855
0.198635
0.189318
0.179975
0.171397
0.16272
0.153924
0.144981
0.136061
0.127461
0.119464
0.112113
0.10519
0.0983886
0.0914982
0.0844705
0.0773883
0.0703902
0.0636043
0.0571174
0.0509723
0.0451796
0.0397299
0.0346037
0.0297773
0.025226
0.0209266
0.0168575
0.0129998
0.00933734
0.00584559
0.00251732
-0.000537388
0.197358
0.202319
0.207172
0.212117
0.216946
0.221236
0.224699
0.227349
0.229374
0.230943
0.231959
0.232357
0.231964
0.230757
0.228471
0.225001
0.220866
0.215632
0.208303
0.19884
0.18928
0.180446
0.171484
0.162374
0.15309
0.1438
0.134805
0.1264
0.118644
0.111328
0.104143
0.0968677
0.0894455
0.0819572
0.0745462
0.0673496
0.0604624
0.0539337
0.0477771
0.0419845
0.0365361
0.0314073
0.026572
0.0220054
0.0176845
0.0135889
0.00970087
0.00599469
0.00246196
-0.000781134
0.203908
0.209181
0.214364
0.219673
0.224878
0.229516
0.233281
0.236196
0.238474
0.240293
0.241561
0.242186
0.24199
0.240917
0.238702
0.235264
0.231094
0.225766
0.218333
0.208739
0.198967
0.189878
0.180632
0.171207
0.161579
0.151916
0.142522
0.133703
0.125534
0.117815
0.110236
0.102567
0.0947392
0.0868311
0.0789902
0.0713625
0.0640524
0.0571157
0.0505703
0.0444098
0.0386147
0.0331596
0.0280171
0.023161
0.0185666
0.014212
0.0100784
0.00613829
0.00238283
-0.00106466
0.210493
0.216093
0.221621
0.227315
0.232919
0.237927
0.242014
0.24521
0.247762
0.249856
0.251405
0.252289
0.252319
0.251411
0.249292
0.245906
0.241711
0.236288
0.228754
0.219035
0.209051
0.199704
0.190168
0.180422
0.170447
0.160405
0.150608
0.141369
0.132779
0.12465
0.116671
0.108601
0.100361
0.0920228
0.0837379
0.0756611
0.0679066
0.0605384
0.0535793
0.0470255
0.040858
0.0350508
0.0295756
0.0244046
0.0195118
0.0148741
0.0104714
0.00627417
0.00227325
-0.00139639
0.217104
0.223044
0.228935
0.235036
0.241064
0.246467
0.250898
0.254396
0.257239
0.259636
0.261501
0.262679
0.262973
0.262266
0.260275
0.256964
0.252752
0.247235
0.239601
0.229753
0.219548
0.209933
0.200097
0.190021
0.179689
0.169262
0.159054
0.149388
0.140371
0.131826
0.123442
0.114968
0.106311
0.097537
0.088798
0.0802575
0.0720403
0.0642192
0.0568228
0.0498505
0.0432842
0.037098
0.0312625
0.025749
0.0205304
0.0155825
0.010884
0.00640304
0.00213014
-0.00178375
0.223726
0.230023
0.236296
0.242832
0.249312
0.255135
0.259935
0.263758
0.266913
0.269646
0.271865
0.273381
0.27398
0.273518
0.271695
0.268482
0.26426
0.258652
0.250916
0.240928
0.230484
0.220586
0.210432
0.200011
0.189307
0.178482
0.167852
0.157748
0.148293
0.139324
0.130533
0.121654
0.112581
0.103368
0.0941693
0.0851553
0.0764612
0.068169
0.0603141
0.0528992
0.0459083
0.0393154
0.033091
0.0272059
0.021632
0.0163444
0.0113204
0.00652604
0.0019516
-0.00223361
0.230348
0.23702
0.243699
0.250696
0.25766
0.263935
0.269129
0.273301
0.276799
0.279902
0.282521
0.284422
0.285377
0.28521
0.283598
0.280506
0.276285
0.270593
0.26275
0.252601
0.241892
0.231688
0.221194
0.210404
0.199307
0.188063
0.176991
0.166432
0.156525
0.147123
0.137918
0.128634
0.119146
0.109497
0.0998379
0.0903455
0.0811648
0.0723876
0.064056
0.0561772
0.048737
0.0417108
0.0350693
0.0287829
0.0228232
0.017164
0.0117823
0.00664196
0.00173362
-0.00275396
0.236956
0.244024
0.251135
0.258627
0.266111
0.272871
0.27849
0.283039
0.286911
0.290427
0.2935
0.295841
0.297205
0.297389
0.296035
0.29309
0.288882
0.283114
0.275158
0.264821
0.253817
0.243279
0.232416
0.221226
0.209705
0.198011
0.186468
0.175428
0.165047
0.155194
0.145566
0.135873
0.125972
0.115891
0.105774
0.0958023
0.0861302
0.0768584
0.0680362
0.0596755
0.0517651
0.0442815
0.0371962
0.0304796
0.0241028
0.0180394
0.0122661
0.00674538
0.00146857
-0.00335518
0.243539
0.251027
0.258599
0.266623
0.274667
0.281951
0.28803
0.292989
0.297273
0.301245
0.304839
0.307677
0.309513
0.310105
0.309058
0.306289
0.30211
0.296279
0.288203
0.277648
0.266313
0.255409
0.244141
0.232515
0.220529
0.208346
0.196292
0.184733
0.173844
0.163514
0.153443
0.143332
0.133015
0.122502
0.11193
0.101481
0.0913157
0.0815437
0.0722215
0.0633659
0.0549686
0.0470076
0.039455
0.0322813
0.0254578
0.0189584
0.0127603
0.00682497
0.00114442
-0.00405052
0.250086
0.258022
0.26609
0.274686
0.283336
0.291186
0.297763
0.30317
0.307912
0.312382
0.316588
0.319978
0.322352
0.323414
0.322723
0.320158
0.316029
0.310152
0.30195
0.291146
0.279444
0.268139
0.256428
0.244323
0.231825
0.219101
0.206486
0.194358
0.182915
0.172067
0.161522
0.150969
0.140223
0.129274
0.118245
0.107318
0.0966576
0.0863819
0.0765537
0.0671944
0.0582983
0.0498447
0.0418059
0.0341529
0.0268576
0.0198947
0.0132422
0.00686067
0.000743254
-0.00485651
0.256587
0.265002
0.273604
0.282819
0.292123
0.300589
0.307708
0.313607
0.318862
0.323935
0.328731
0.332786
0.335773
0.33737
0.337084
0.334754
0.330701
0.324796
0.316465
0.305384
0.29328
0.28154
0.269346
0.256714
0.243653
0.230331
0.217093
0.204334
0.192277
0.180855
0.169786
0.158753
0.14755
0.136145
0.124648
0.113234
0.102073
0.0912877
0.0809478
0.0710781
0.0616747
0.0527175
0.0441794
0.0360315
0.0282464
0.0207994
0.013669
0.00681599
0.000234488
-0.00579722
0.263033
0.271962
0.281142
0.291025
0.301037
0.310171
0.317882
0.324323
0.330146
0.335877
0.341379
0.346158
0.349829
0.352025
0.352194
0.350132
0.346184
0.340273
0.331812
0.32043
0.307894
0.295686
0.282969
0.269765
0.256086
0.242105
0.228178
0.214717
0.201971
0.189901
0.178241
0.166669
0.154962
0.143064
0.131068
0.119146
0.107466
0.0961583
0.0852955
0.074906
0.0649871
0.055519
0.0464747
0.0378258
0.0295454
0.0216096
0.0139979
0.0066712
-0.000380641
-0.00687054
0.269417
0.278898
0.288701
0.299309
0.310089
0.319948
0.328303
0.335341
0.341796
0.348257
0.354561
0.36014
0.364569
0.36743
0.368104
0.366346
0.362534
0.35664
0.348051
0.336352
0.323358
0.310652
0.297376
0.283556
0.269207
0.254508
0.239821
0.225579
0.212061
0.199257
0.186922
0.174733
0.162451
0.15
0.137456
0.124982
0.112748
0.100887
0.0894772
0.0785493
0.0681007
0.0581104
0.0485495
0.0393871
0.0305943
0.0221462
0.0140238
0.00619606
-0.00132438
-0.0082213
0.275733
0.285806
0.296284
0.307674
0.319284
0.32993
0.338987
0.346682
0.353842
0.361115
0.368306
0.374775
0.380036
0.38363
0.384861
0.383447
0.379805
0.37395
0.365237
0.353208
0.339737
0.326507
0.31264
0.298167
0.283103
0.267627
0.252113
0.237011
0.222631
0.209
0.195893
0.182993
0.170048
0.156962
0.143795
0.130701
0.117852
0.105386
0.0933863
0.0818886
0.0708918
0.0603745
0.050306
0.0406544
0.0313906
0.0224915
0.0139405
0.00570411
-0.00223134
-0.00960948
0.281972
0.292682
0.303887
0.316121
0.328628
0.340125
0.349945
0.358363
0.366307
0.374481
0.382649
0.390096
0.396271
0.400667
0.402509
0.401483
0.398044
0.392249
0.383418
0.371052
0.357088
0.343311
0.328825
0.313666
0.297846
0.281544
0.26514
0.249103
0.233776
0.219223
0.205245
0.191531
0.177821
0.164001
0.150115
0.136309
0.122757
0.109606
0.0969467
0.0848222
0.0732355
0.0621655
0.0515799
0.0414436
0.0317248
0.0223965
0.0134377
0.00480671
-0.00352763
-0.0112987
0.288128
0.299519
0.311508
0.324651
0.338123
0.350537
0.361185
0.370395
0.379208
0.388377
0.397618
0.406132
0.413308
0.418578
0.421091
0.420501
0.417299
0.411583
0.40264
0.389933
0.37546
0.361115
0.345984
0.330108
0.313497
0.296324
0.278975
0.261936
0.245584
0.230021
0.215077
0.20045
0.185872
0.171213
0.1565
0.141872
0.127508
0.113564
0.100145
0.0873024
0.0750462
0.0633573
0.0522019
0.0415416
0.0313398
0.0215657
0.0121963
0.00319731
-0.00544771
-0.0134337
0.294192
0.30631
0.31914
0.333257
0.347763
0.361163
0.372704
0.382784
0.392555
0.402819
0.413232
0.422909
0.431181
0.437395
0.44065
0.440549
0.437619
0.431998
0.422947
0.409896
0.394898
0.37996
0.364154
0.347529
0.330091
0.312007
0.293663
0.275565
0.258122
0.241473
0.225481
0.209854
0.194317
0.178722
0.163079
0.147521
0.13223
0.117375
0.103079
0.0894095
0.0763868
0.064
0.0522198
0.0410091
0.0303298
0.0201478
0.0104366
0.00116177
-0.00770225
-0.0158757
0.300151
0.313042
0.326771
0.34193
0.35754
0.371993
0.384497
0.395525
0.406353
0.417818
0.429508
0.440448
0.449909
0.457163
0.461232
0.461676
0.459056
0.453545
0.444392
0.430989
0.415445
0.399882
0.383364
0.365953
0.347647
0.328609
0.309224
0.290013
0.27142
0.253625
0.236518
0.219824
0.20326
0.186657
0.170007
0.153433
0.137119
0.121248
0.105966
0.0913601
0.0774697
0.064297
0.0518222
0.0400131
0.0288313
0.0182379
0.00819929
-0.00132392
-0.0103708
-0.0186993
0.30599
0.319701
0.334387
0.350652
0.367434
0.38301
0.396546
0.40861
0.420598
0.433377
0.446456
0.45877
0.469526
0.47792
0.482884
0.483938
0.481667
0.476283
0.467033
0.453269
0.437148
0.420922
0.403645
0.385396
0.366174
0.346132
0.325654
0.305277
0.285478
0.26648
0.248209
0.230402
0.212769
0.195122
0.177429
0.159794
0.142403
0.125452
0.109106
0.0934778
0.0786295
0.0645816
0.0513266
0.0388397
0.0270863
0.0160265
0.0056205
-0.00417632
-0.013417
-0.0219028
0.311687
0.326263
0.341963
0.359399
0.377421
0.394185
0.408829
0.42202
0.435282
0.449495
0.464087
0.477898
0.490067
0.499705
0.505657
0.507394
0.505519
0.500284
0.49094
0.4768
0.460066
0.443126
0.425033
0.405888
0.385689
0.364581
0.342948
0.321342
0.300276
0.280018
0.260536
0.241584
0.222868
0.204176
0.185446
0.166764
0.148303
0.130268
0.112839
0.0961541
0.0802971
0.0653092
0.0511963
0.0379424
0.0255187
0.0138875
0.00300476
-0.0071804
-0.0167326
-0.0254921
0.317217
0.332701
0.349471
0.368141
0.387467
0.405486
0.421314
0.435732
0.450389
0.46617
0.482408
0.497851
0.511564
0.522566
0.529606
0.53211
0.530685
0.525625
0.516194
0.501659
0.484269
0.46656