/*--------------------------------*- C++ -*----------------------------------*\
  =========                 |
  \\      /  F ield         | OpenFOAM: The Open Source CFD Toolbox
   \\    /   O peration     | Website:  https://openfoam.org
    \\  /    A nd           | Version:  9
     \\/     M anipulation  |
\*---------------------------------------------------------------------------*/
FoamFile
{
    format      ascii;
    class       volScalarField;
    location    "0.08";
    object      rAU;
}
// * * * * * * * * * * * * * * * * * * * * * * * * * * * * * * * * * * * * * //

dimensions      [-1 3 1 0 0 0 0];

internalField   nonuniform List<scalar> 
5000
(
1.52383e-05
1.52803e-05
1.52324e-05
1.51632e-05
1.51353e-05
1.51577e-05
1.52002e-05
1.51928e-05
1.50991e-05
1.4978e-05
1.48712e-05
1.47745e-05
1.46729e-05
1.45503e-05
1.44883e-05
1.53582e-05
1.78419e-05
1.52998e-05
1.4475e-05
1.45526e-05
1.45867e-05
1.46366e-05
1.46716e-05
1.46941e-05
1.47108e-05
1.47356e-05
1.47945e-05
1.49102e-05
1.50443e-05
1.50745e-05
1.49503e-05
1.47711e-05
1.46256e-05
1.4527e-05
1.44574e-05
1.4401e-05
1.43489e-05
1.4297e-05
1.42427e-05
1.41841e-05
1.41196e-05
1.40475e-05
1.39664e-05
1.38752e-05
1.3773e-05
1.36593e-05
1.35338e-05
1.33964e-05
1.32471e-05
1.11721e-05
2.1451e-05
2.14829e-05
2.14475e-05
2.13955e-05
2.13742e-05
2.13915e-05
2.14244e-05
2.14203e-05
2.13513e-05
2.12607e-05
2.11801e-05
2.11067e-05
2.10277e-05
2.09284e-05
2.08882e-05
2.15859e-05
2.3171e-05
2.15068e-05
2.08677e-05
2.09198e-05
2.0837e-05
2.08372e-05
2.08283e-05
2.08068e-05
2.07778e-05
2.07523e-05
2.07506e-05
2.07886e-05
2.08337e-05
2.07976e-05
2.06484e-05
2.04554e-05
2.02812e-05
2.01361e-05
2.00077e-05
1.9884e-05
1.97586e-05
1.9628e-05
1.94901e-05
1.93432e-05
1.91858e-05
1.90165e-05
1.88341e-05
1.86374e-05
1.84259e-05
1.81989e-05
1.79561e-05
1.76975e-05
1.7423e-05
1.3993e-05
2.14516e-05
2.14838e-05
2.14483e-05
2.13956e-05
2.13742e-05
2.13923e-05
2.14265e-05
2.14233e-05
2.13549e-05
2.12641e-05
2.11835e-05
2.11103e-05
2.10298e-05
2.0927e-05
2.08998e-05
2.16208e-05
2.30896e-05
2.1523e-05
2.08693e-05
2.09139e-05
2.08331e-05
2.08346e-05
2.08255e-05
2.08034e-05
2.07739e-05
2.07485e-05
2.07488e-05
2.07895e-05
2.08348e-05
2.07977e-05
2.0649e-05
2.0456e-05
2.02806e-05
2.01345e-05
2.00056e-05
1.98819e-05
1.97566e-05
1.96261e-05
1.94884e-05
1.93417e-05
1.91845e-05
1.90153e-05
1.8833e-05
1.86365e-05
1.84249e-05
1.81979e-05
1.79552e-05
1.76965e-05
1.74219e-05
1.39918e-05
2.14526e-05
2.1485e-05
2.14492e-05
2.13959e-05
2.13743e-05
2.13933e-05
2.14289e-05
2.14268e-05
2.13588e-05
2.12678e-05
2.1187e-05
2.11137e-05
2.10316e-05
2.09258e-05
2.09146e-05
2.16525e-05
2.29969e-05
2.15393e-05
2.08737e-05
2.09084e-05
2.08298e-05
2.08326e-05
2.08234e-05
2.08007e-05
2.07706e-05
2.07456e-05
2.07481e-05
2.07914e-05
2.08365e-05
2.07981e-05
2.06499e-05
2.04569e-05
2.02802e-05
2.01329e-05
2.00035e-05
1.98798e-05
1.97546e-05
1.96245e-05
1.9487e-05
1.93406e-05
1.91836e-05
1.90146e-05
1.88324e-05
1.86359e-05
1.84243e-05
1.81973e-05
1.79545e-05
1.76957e-05
1.7421e-05
1.39908e-05
2.14539e-05
2.14865e-05
2.14503e-05
2.13961e-05
2.13744e-05
2.13945e-05
2.14317e-05
2.14307e-05
2.1363e-05
2.12716e-05
2.11904e-05
2.11171e-05
2.10333e-05
2.09255e-05
2.0931e-05
2.1678e-05
2.29019e-05
2.15533e-05
2.088e-05
2.09038e-05
2.08274e-05
2.08315e-05
2.0822e-05
2.07987e-05
2.07681e-05
2.07436e-05
2.07483e-05
2.07941e-05
2.08389e-05
2.07991e-05
2.06511e-05
2.04579e-05
2.02799e-05
2.01314e-05
2.00014e-05
1.98778e-05
1.97529e-05
1.96231e-05
1.9486e-05
1.93399e-05
1.91831e-05
1.90142e-05
1.88321e-05
1.86356e-05
1.84241e-05
1.81969e-05
1.7954e-05
1.76951e-05
1.74203e-05
1.39899e-05
2.14554e-05
2.14882e-05
2.14515e-05
2.13965e-05
2.13747e-05
2.13959e-05
2.14347e-05
2.14348e-05
2.13675e-05
2.12754e-05
2.11938e-05
2.11204e-05
2.1035e-05
2.09262e-05
2.09479e-05
2.16965e-05
2.28095e-05
2.15641e-05
2.0888e-05
2.09005e-05
2.08256e-05
2.0831e-05
2.08212e-05
2.07973e-05
2.07661e-05
2.07423e-05
2.07494e-05
2.07975e-05
2.08419e-05
2.08007e-05
2.06527e-05
2.04591e-05
2.02798e-05
2.013e-05
1.99996e-05
1.9876e-05
1.97515e-05
1.96221e-05
1.94853e-05
1.93395e-05
1.9183e-05
1.90143e-05
1.88322e-05
1.86357e-05
1.84241e-05
1.81969e-05
1.79538e-05
1.76949e-05
1.74199e-05
1.39894e-05
2.14572e-05
2.14901e-05
2.14529e-05
2.1397e-05
2.1375e-05
2.13975e-05
2.1438e-05
2.14392e-05
2.13721e-05
2.12794e-05
2.11972e-05
2.11235e-05
2.10366e-05
2.09275e-05
2.09643e-05
2.17088e-05
2.27215e-05
2.15719e-05
2.08974e-05
2.08985e-05
2.08246e-05
2.08312e-05
2.08211e-05
2.07964e-05
2.07648e-05
2.07417e-05
2.07512e-05
2.08015e-05
2.08454e-05
2.08029e-05
2.06547e-05
2.04606e-05
2.02799e-05
2.01289e-05
1.9998e-05
1.98744e-05
1.97503e-05
1.96213e-05
1.94849e-05
1.93395e-05
1.91832e-05
1.90146e-05
1.88326e-05
1.86361e-05
1.84245e-05
1.81972e-05
1.7954e-05
1.76949e-05
1.74199e-05
1.39892e-05
2.14591e-05
2.14923e-05
2.14545e-05
2.13976e-05
2.13754e-05
2.13991e-05
2.14414e-05
2.14438e-05
2.13768e-05
2.12834e-05
2.12005e-05
2.11265e-05
2.10381e-05
2.09293e-05
2.09798e-05
2.17158e-05
2.26386e-05
2.15769e-05
2.09075e-05
2.08975e-05
2.08242e-05
2.08319e-05
2.08215e-05
2.07961e-05
2.0764e-05
2.07417e-05
2.07536e-05
2.08059e-05
2.08494e-05
2.08056e-05
2.06572e-05
2.04626e-05
2.02804e-05
2.01281e-05
1.99966e-05
1.98731e-05
1.97493e-05
1.96208e-05
1.94849e-05
1.93397e-05
1.91837e-05
1.90153e-05
1.88334e-05
1.86369e-05
1.84252e-05
1.81978e-05
1.79546e-05
1.76954e-05
1.74202e-05
1.39895e-05
2.14612e-05
2.14946e-05
2.14562e-05
2.13982e-05
2.13758e-05
2.14008e-05
2.14449e-05
2.14486e-05
2.13818e-05
2.12874e-05
2.12038e-05
2.11293e-05
2.10396e-05
2.09313e-05
2.09943e-05
2.17185e-05
2.25611e-05
2.15793e-05
2.09179e-05
2.08973e-05
2.08243e-05
2.08331e-05
2.08224e-05
2.07963e-05
2.07638e-05
2.07422e-05
2.07564e-05
2.08107e-05
2.08539e-05
2.0809e-05
2.06602e-05
2.04649e-05
2.02813e-05
2.01276e-05
1.99955e-05
1.9872e-05
1.97486e-05
1.96205e-05
1.94851e-05
1.93403e-05
1.91846e-05
1.90164e-05
1.88345e-05
1.86381e-05
1.84263e-05
1.81989e-05
1.79555e-05
1.76962e-05
1.7421e-05
1.39903e-05
2.14634e-05
2.14971e-05
2.1458e-05
2.13989e-05
2.13763e-05
2.14025e-05
2.14486e-05
2.14536e-05
2.13868e-05
2.12915e-05
2.1207e-05
2.11319e-05
2.10409e-05
2.09334e-05
2.10076e-05
2.17177e-05
2.24888e-05
2.15793e-05
2.09282e-05
2.08978e-05
2.08249e-05
2.08347e-05
2.08238e-05
2.07969e-05
2.0764e-05
2.07432e-05
2.07598e-05
2.0816e-05
2.08588e-05
2.08129e-05
2.06637e-05
2.04676e-05
2.02824e-05
2.01274e-05
1.99947e-05
1.98713e-05
1.97482e-05
1.96206e-05
1.94856e-05
1.93412e-05
1.91858e-05
1.90178e-05
1.88361e-05
1.86396e-05
1.84278e-05
1.82003e-05
1.79569e-05
1.76975e-05
1.74223e-05
1.39916e-05
2.14657e-05
2.14998e-05
2.146e-05
2.13996e-05
2.13768e-05
2.14043e-05
2.14523e-05
2.14586e-05
2.13919e-05
2.12955e-05
2.12101e-05
2.11343e-05
2.1042e-05
2.09355e-05
2.10199e-05
2.17142e-05
2.24215e-05
2.15773e-05
2.09382e-05
2.0899e-05
2.0826e-05
2.08366e-05
2.08255e-05
2.07979e-05
2.07645e-05
2.07447e-05
2.07637e-05
2.08217e-05
2.08643e-05
2.08172e-05
2.06675e-05
2.04706e-05
2.0284e-05
2.01276e-05
1.99942e-05
1.98708e-05
1.97481e-05
1.9621e-05
1.94865e-05
1.93425e-05
1.91874e-05
1.90196e-05
1.8838e-05
1.86416e-05
1.84298e-05
1.82022e-05
1.79587e-05
1.76993e-05
1.74239e-05
1.39933e-05
2.14682e-05
2.15026e-05
2.1462e-05
2.14004e-05
2.13772e-05
2.14061e-05
2.14561e-05
2.14638e-05
2.1397e-05
2.12996e-05
2.12131e-05
2.11365e-05
2.10429e-05
2.09378e-05
2.10311e-05
2.17086e-05
2.23588e-05
2.15737e-05
2.09481e-05
2.09009e-05
2.08274e-05
2.08389e-05
2.08276e-05
2.07993e-05
2.07655e-05
2.07466e-05
2.07679e-05
2.08278e-05
2.087e-05
2.08219e-05
2.06717e-05
2.04739e-05
2.02859e-05
2.01281e-05
1.9994e-05
1.98707e-05
1.97484e-05
1.96218e-05
1.94878e-05
1.93442e-05
1.91894e-05
1.90218e-05
1.88403e-05
1.86439e-05
1.84321e-05
1.82045e-05
1.79609e-05
1.77014e-05
1.7426e-05
1.39956e-05
2.14708e-05
2.15055e-05
2.14641e-05
2.14012e-05
2.13777e-05
2.14079e-05
2.14601e-05
2.14691e-05
2.14022e-05
2.13036e-05
2.1216e-05
2.11384e-05
2.10437e-05
2.094e-05
2.10416e-05
2.17014e-05
2.23004e-05
2.15689e-05
2.09578e-05
2.09034e-05
2.08292e-05
2.08415e-05
2.08301e-05
2.0801e-05
2.07668e-05
2.0749e-05
2.07726e-05
2.08341e-05
2.08761e-05
2.0827e-05
2.06762e-05
2.04776e-05
2.02881e-05
2.0129e-05
1.99942e-05
1.98709e-05
1.9749e-05
1.96229e-05
1.94894e-05
1.93462e-05
1.91917e-05
1.90244e-05
1.8843e-05
1.86467e-05
1.84349e-05
1.82072e-05
1.79636e-05
1.7704e-05
1.74286e-05
1.39983e-05
2.14735e-05
2.15086e-05
2.14663e-05
2.1402e-05
2.13782e-05
2.14098e-05
2.1464e-05
2.14744e-05
2.14075e-05
2.13076e-05
2.12188e-05
2.11402e-05
2.10444e-05
2.09425e-05
2.10514e-05
2.1693e-05
2.22461e-05
2.15631e-05
2.09674e-05
2.09063e-05
2.08313e-05
2.08444e-05
2.08328e-05
2.0803e-05
2.07685e-05
2.07517e-05
2.07776e-05
2.08408e-05
2.08825e-05
2.08324e-05
2.0681e-05
2.04816e-05
2.02907e-05
2.01302e-05
1.99948e-05
1.98714e-05
1.97499e-05
1.96244e-05
1.94914e-05
1.93487e-05
1.91945e-05
1.90274e-05
1.88461e-05
1.86498e-05
1.8438e-05
1.82103e-05
1.79667e-05
1.77071e-05
1.74316e-05
1.40016e-05
2.14763e-05
2.15117e-05
2.14685e-05
2.14028e-05
2.13786e-05
2.14116e-05
2.14681e-05
2.14799e-05
2.14128e-05
2.13116e-05
2.12215e-05
2.11419e-05
2.1045e-05
2.09452e-05
2.10605e-05
2.16836e-05
2.21956e-05
2.15567e-05
2.09767e-05
2.09098e-05
2.08338e-05
2.08475e-05
2.08358e-05
2.08053e-05
2.07704e-05
2.07548e-05
2.07829e-05
2.08476e-05
2.08891e-05
2.08382e-05
2.06861e-05
2.04859e-05
2.02936e-05
2.01319e-05
1.99957e-05
1.98723e-05
1.97512e-05
1.96262e-05
1.94937e-05
1.93515e-05
1.91977e-05
1.90308e-05
1.88496e-05
1.86534e-05
1.84416e-05
1.82139e-05
1.79702e-05
1.77106e-05
1.7435e-05
1.40054e-05
2.14792e-05
2.1515e-05
2.14707e-05
2.14035e-05
2.1379e-05
2.14135e-05
2.14722e-05
2.14854e-05
2.14182e-05
2.13155e-05
2.12241e-05
2.11434e-05
2.10456e-05
2.09481e-05
2.10691e-05
2.16735e-05
2.21485e-05
2.15497e-05
2.09858e-05
2.09137e-05
2.08365e-05
2.08509e-05
2.08391e-05
2.08078e-05
2.07727e-05
2.07581e-05
2.07884e-05
2.08547e-05
2.08959e-05
2.08442e-05
2.06916e-05
2.04905e-05
2.02969e-05
2.01338e-05
1.9997e-05
1.98736e-05
1.97529e-05
1.96284e-05
1.94965e-05
1.93547e-05
1.92012e-05
1.90346e-05
1.88536e-05
1.86575e-05
1.84457e-05
1.8218e-05
1.79742e-05
1.77145e-05
1.7439e-05
1.40097e-05
2.14822e-05
2.15183e-05
2.1473e-05
2.14043e-05
2.13794e-05
2.14153e-05
2.14763e-05
2.14911e-05
2.14236e-05
2.13195e-05
2.12266e-05
2.11448e-05
2.10462e-05
2.09512e-05
2.1077e-05
2.16628e-05
2.21045e-05
2.15423e-05
2.09946e-05
2.09179e-05
2.08395e-05
2.08545e-05
2.08426e-05
2.08106e-05
2.07753e-05
2.07618e-05
2.07942e-05
2.08619e-05
2.09029e-05
2.08504e-05
2.06973e-05
2.04954e-05
2.03005e-05
2.01361e-05
1.99986e-05
1.98752e-05
1.97548e-05
1.9631e-05
1.94996e-05
1.93583e-05
1.92052e-05
1.90388e-05
1.8858e-05
1.86619e-05
1.84502e-05
1.82225e-05
1.79787e-05
1.7719e-05
1.74434e-05
1.40146e-05
2.14853e-05
2.15218e-05
2.14753e-05
2.1405e-05
2.13797e-05
2.14171e-05
2.14806e-05
2.14968e-05
2.14291e-05
2.13234e-05
2.12291e-05
2.11461e-05
2.10468e-05
2.09544e-05
2.10842e-05
2.16517e-05
2.20635e-05
2.15346e-05
2.10032e-05
2.09225e-05
2.08427e-05
2.08582e-05
2.08463e-05
2.08137e-05
2.07781e-05
2.07657e-05
2.08002e-05
2.08692e-05
2.09101e-05
2.08569e-05
2.07033e-05
2.05006e-05
2.03044e-05
2.01387e-05
2.00005e-05
1.98771e-05
1.97572e-05
1.96339e-05
1.95031e-05
1.93623e-05
1.92095e-05
1.90434e-05
1.88628e-05
1.86668e-05
1.84551e-05
1.82274e-05
1.79837e-05
1.77239e-05
1.74483e-05
1.402e-05
2.14885e-05
2.15253e-05
2.14777e-05
2.14056e-05
2.13799e-05
2.1419e-05
2.14849e-05
2.15027e-05
2.14347e-05
2.13274e-05
2.12315e-05
2.11473e-05
2.10474e-05
2.09576e-05
2.10909e-05
2.16404e-05
2.20252e-05
2.15269e-05
2.10116e-05
2.09274e-05
2.08463e-05
2.08623e-05
2.08503e-05
2.0817e-05
2.07813e-05
2.077e-05
2.08064e-05
2.08767e-05
2.09174e-05
2.08636e-05
2.07095e-05
2.05061e-05
2.03086e-05
2.01417e-05
2.00028e-05
1.98793e-05
1.97598e-05
1.96371e-05
1.9507e-05
1.93667e-05
1.92143e-05
1.90485e-05
1.8868e-05
1.86722e-05
1.84606e-05
1.82329e-05
1.79891e-05
1.77293e-05
1.74537e-05
1.4026e-05
2.14917e-05
2.1529e-05
2.148e-05
2.14062e-05
2.13801e-05
2.14208e-05
2.14893e-05
2.15087e-05
2.14404e-05
2.13313e-05
2.12339e-05
2.11485e-05
2.1048e-05
2.09609e-05
2.10971e-05
2.1629e-05
2.19895e-05
2.15192e-05
2.10198e-05
2.09328e-05
2.08501e-05
2.08666e-05
2.08546e-05
2.08206e-05
2.07847e-05
2.07745e-05
2.08128e-05
2.08842e-05
2.09248e-05
2.08704e-05
2.07159e-05
2.05118e-05
2.03131e-05
2.0145e-05
2.00055e-05
1.9882e-05
1.97629e-05
1.96408e-05
1.95113e-05
1.93715e-05
1.92196e-05
1.9054e-05
1.88737e-05
1.8678e-05
1.84664e-05
1.82388e-05
1.7995e-05
1.77353e-05
1.74596e-05
1.40326e-05
2.14951e-05
2.15327e-05
2.14824e-05
2.14067e-05
2.13802e-05
2.14226e-05
2.14938e-05
2.15148e-05
2.14461e-05
2.13353e-05
2.12362e-05
2.11496e-05
2.10486e-05
2.09643e-05
2.1103e-05
2.16178e-05
2.19562e-05
2.15117e-05
2.1028e-05
2.09385e-05
2.08543e-05
2.08712e-05
2.08591e-05
2.08246e-05
2.07885e-05
2.07793e-05
2.08194e-05
2.08919e-05
2.09322e-05
2.08773e-05
2.07225e-05
2.05178e-05
2.0318e-05
2.01487e-05
2.00085e-05
1.9885e-05
1.97663e-05
1.96449e-05
1.95159e-05
1.93767e-05
1.92252e-05
1.906e-05
1.88799e-05
1.86843e-05
1.84728e-05
1.82452e-05
1.80014e-05
1.77417e-05
1.74661e-05
1.40397e-05
2.14985e-05
2.15364e-05
2.14847e-05
2.14072e-05
2.13802e-05
2.14245e-05
2.14984e-05
2.15211e-05
2.1452e-05
2.13394e-05
2.12385e-05
2.11506e-05
2.10494e-05
2.09679e-05
2.11087e-05
2.16068e-05
2.19252e-05
2.15047e-05
2.10362e-05
2.09445e-05
2.0859e-05
2.08761e-05
2.08639e-05
2.08288e-05
2.07926e-05
2.07845e-05
2.08262e-05
2.08995e-05
2.09397e-05
2.08843e-05
2.07292e-05
2.0524e-05
2.03231e-05
2.01527e-05
2.00119e-05
1.98883e-05
1.97702e-05
1.96493e-05
1.95211e-05
1.93824e-05
1.92313e-05
1.90664e-05
1.88866e-05
1.86911e-05
1.84797e-05
1.82521e-05
1.80084e-05
1.77486e-05
1.7473e-05
1.40474e-05
2.15021e-05
2.15403e-05
2.14871e-05
2.14076e-05
2.13802e-05
2.14263e-05
2.1503e-05
2.15275e-05
2.1458e-05
2.13434e-05
2.12408e-05
2.11517e-05
2.10503e-05
2.09717e-05
2.11141e-05
2.15961e-05
2.18965e-05
2.1498e-05
2.10445e-05
2.09509e-05
2.08639e-05
2.08811e-05
2.08691e-05
2.08335e-05
2.07971e-05
2.07899e-05
2.0833e-05
2.09071e-05
2.09471e-05
2.08914e-05
2.07362e-05
2.05305e-05
2.03286e-05
2.01571e-05
2.00157e-05
1.98921e-05
1.97744e-05
1.96542e-05
1.95266e-05
1.93885e-05
1.92379e-05
1.90733e-05
1.88937e-05
1.86984e-05
1.84871e-05
1.82595e-05
1.80158e-05
1.77561e-05
1.74806e-05
1.40558e-05
2.15057e-05
2.15443e-05
2.14894e-05
2.14079e-05
2.13801e-05
2.14282e-05
2.15078e-05
2.1534e-05
2.14641e-05
2.13476e-05
2.12431e-05
2.11528e-05
2.10514e-05
2.09757e-05
2.11194e-05
2.15858e-05
2.18698e-05
2.14918e-05
2.10527e-05
2.09577e-05
2.08692e-05
2.08866e-05
2.08745e-05
2.08384e-05
2.08019e-05
2.07955e-05
2.084e-05
2.09147e-05
2.09544e-05
2.08984e-05
2.07432e-05
2.05371e-05
2.03344e-05
2.01619e-05
2.00198e-05
1.98963e-05
1.9779e-05
1.96595e-05
1.95326e-05
1.93951e-05
1.92449e-05
1.90807e-05
1.89013e-05
1.87062e-05
1.8495e-05
1.82675e-05
1.80239e-05
1.77642e-05
1.74886e-05
1.40648e-05
2.15095e-05
2.15483e-05
2.14918e-05
2.14081e-05
2.13799e-05
2.14301e-05
2.15128e-05
2.15407e-05
2.14703e-05
2.13518e-05
2.12454e-05
2.1154e-05
2.10526e-05
2.098e-05
2.11244e-05
2.15758e-05
2.1845e-05
2.14859e-05
2.1061e-05
2.09648e-05
2.08748e-05
2.08924e-05
2.08804e-05
2.08438e-05
2.08072e-05
2.08015e-05
2.08471e-05
2.09222e-05
2.09616e-05
2.09054e-05
2.07502e-05
2.0544e-05
2.03405e-05
2.01671e-05
2.00245e-05
1.99009e-05
1.97841e-05
1.96653e-05
1.9539e-05
1.94021e-05
1.92525e-05
1.90886e-05
1.89095e-05
1.87145e-05
1.85034e-05
1.8276e-05
1.80324e-05
1.77728e-05
1.74973e-05
1.40745e-05
2.15134e-05
2.15524e-05
2.14941e-05
2.14082e-05
2.13796e-05
2.1432e-05
2.15178e-05
2.15476e-05
2.14766e-05
2.1356e-05
2.12477e-05
2.11552e-05
2.10541e-05
2.09844e-05
2.11293e-05
2.15663e-05
2.18219e-05
2.14805e-05
2.10692e-05
2.09722e-05
2.08807e-05
2.08985e-05
2.08866e-05
2.08496e-05
2.08128e-05
2.08078e-05
2.08542e-05
2.09296e-05
2.09687e-05
2.09123e-05
2.07574e-05
2.05511e-05
2.0347e-05
2.01728e-05
2.00296e-05
1.9906e-05
1.97897e-05
1.96715e-05
1.9546e-05
1.94097e-05
1.92605e-05
1.9097e-05
1.89182e-05
1.87234e-05
1.85124e-05
1.82851e-05
1.80416e-05
1.7782e-05
1.75065e-05
1.40848e-05
2.15173e-05
2.15566e-05
2.14964e-05
2.14083e-05
2.13793e-05
2.14339e-05
2.15231e-05
2.15547e-05
2.14831e-05
2.13603e-05
2.12501e-05
2.11565e-05
2.10557e-05
2.0989e-05
2.11342e-05
2.15571e-05
2.18003e-05
2.14753e-05
2.10774e-05
2.09799e-05
2.08871e-05
2.0905e-05
2.08932e-05
2.08558e-05
2.08189e-05
2.08144e-05
2.08614e-05
2.09368e-05
2.09754e-05
2.09191e-05
2.07646e-05
2.05585e-05
2.03539e-05
2.01789e-05
2.00353e-05
1.99117e-05
1.97958e-05
1.96783e-05
1.95535e-05
1.94178e-05
1.92692e-05
1.91061e-05
1.89275e-05
1.87329e-05
1.85221e-05
1.82949e-05
1.80514e-05
1.77919e-05
1.75164e-05
1.40959e-05
2.15214e-05
2.15608e-05
2.14986e-05
2.14082e-05
2.13789e-05
2.14359e-05
2.15284e-05
2.1562e-05
2.14897e-05
2.13647e-05
2.12524e-05
2.11579e-05
2.10576e-05
2.09938e-05
2.11389e-05
2.15485e-05
2.178e-05
2.14705e-05
2.10856e-05
2.0988e-05
2.08939e-05
2.0912e-05
2.09004e-05
2.08627e-05
2.08256e-05
2.08214e-05
2.08687e-05
2.09438e-05
2.0982e-05
2.09258e-05
2.07719e-05
2.05662e-05
2.03613e-05
2.01857e-05
2.00416e-05
1.99181e-05
1.98026e-05
1.96857e-05
1.95616e-05
1.94266e-05
1.92784e-05
1.91157e-05
1.89374e-05
1.87431e-05
1.85324e-05
1.83053e-05
1.80619e-05
1.78024e-05
1.75271e-05
1.41078e-05
2.15255e-05
2.15651e-05
2.15009e-05
2.1408e-05
2.13785e-05
2.14379e-05
2.15339e-05
2.15694e-05
2.14965e-05
2.13692e-05
2.12549e-05
2.11594e-05
2.10596e-05
2.09988e-05
2.11437e-05
2.15402e-05
2.1761e-05
2.14661e-05
2.1094e-05
2.09965e-05
2.09014e-05
2.09196e-05
2.09081e-05
2.08701e-05
2.08328e-05
2.08288e-05
2.08761e-05
2.09507e-05
2.09883e-05
2.09323e-05
2.07794e-05
2.05743e-05
2.03694e-05
2.01932e-05
2.00486e-05
1.99251e-05
1.981e-05
1.96938e-05
1.95704e-05
1.9436e-05
1.92884e-05
1.91261e-05
1.89481e-05
1.87539e-05
1.85434e-05
1.83164e-05
1.80731e-05
1.78137e-05
1.75385e-05
1.41206e-05
2.15298e-05
2.15695e-05
2.1503e-05
2.14078e-05
2.13779e-05
2.14399e-05
2.15396e-05
2.1577e-05
2.15034e-05
2.13737e-05
2.12573e-05
2.11609e-05
2.10618e-05
2.1004e-05
2.11486e-05
2.15323e-05
2.17429e-05
2.14621e-05
2.11028e-05
2.10057e-05
2.09095e-05
2.09277e-05
2.09164e-05
2.08782e-05
2.08407e-05
2.08366e-05
2.08836e-05
2.09574e-05
2.09944e-05
2.09388e-05
2.07871e-05
2.0583e-05
2.03781e-05
2.02014e-05
2.00564e-05
1.99329e-05
1.98182e-05
1.97027e-05
1.95799e-05
1.94462e-05
1.92991e-05
1.91372e-05
1.89595e-05
1.87656e-05
1.85552e-05
1.83284e-05
1.80852e-05
1.78259e-05
1.75507e-05
1.41344e-05
2.15342e-05
2.15739e-05
2.15052e-05
2.14074e-05
2.13773e-05
2.1442e-05
2.15454e-05
2.15848e-05
2.15103e-05
2.13782e-05
2.12597e-05
2.11624e-05
2.10642e-05
2.10094e-05
2.11535e-05
2.15247e-05
2.17259e-05
2.14587e-05
2.1112e-05
2.10156e-05
2.09183e-05
2.09366e-05
2.09255e-05
2.0887e-05
2.08492e-05
2.08448e-05
2.08912e-05
2.09639e-05
2.10002e-05
2.09453e-05
2.07951e-05
2.05922e-05
2.03875e-05
2.02105e-05
2.00651e-05
1.99415e-05
1.98272e-05
1.97123e-05
1.95902e-05
1.94571e-05
1.93106e-05
1.91491e-05
1.89717e-05
1.87781e-05
1.85679e-05
1.83412e-05
1.80982e-05
1.7839e-05
1.75639e-05
1.41492e-05
2.15386e-05
2.15784e-05
2.15072e-05
2.14069e-05
2.13766e-05
2.14441e-05
2.15513e-05
2.15928e-05
2.15174e-05
2.13827e-05
2.1262e-05
2.11639e-05
2.10668e-05
2.1015e-05
2.11585e-05
2.15175e-05
2.171e-05
2.14561e-05
2.11219e-05
2.10263e-05
2.09279e-05
2.09461e-05
2.09352e-05
2.08966e-05
2.08585e-05
2.08536e-05
2.0899e-05
2.09703e-05
2.10059e-05
2.09518e-05
2.08034e-05
2.0602e-05
2.03979e-05
2.02205e-05
2.00747e-05
1.99511e-05
1.98371e-05
1.97227e-05
1.96014e-05
1.94689e-05
1.93229e-05
1.91618e-05
1.89849e-05
1.87915e-05
1.85815e-05
1.8355e-05
1.81121e-05
1.78531e-05
1.75781e-05
1.41652e-05
2.15432e-05
2.15829e-05
2.15093e-05
2.14063e-05
2.13758e-05
2.14462e-05
2.15573e-05
2.16008e-05
2.15246e-05
2.13872e-05
2.12643e-05
2.11654e-05
2.10694e-05
2.10208e-05
2.11635e-05
2.15106e-05
2.16951e-05
2.14544e-05
2.11327e-05
2.10379e-05
2.09384e-05
2.09564e-05
2.09457e-05
2.0907e-05
2.08684e-05
2.08628e-05
2.09069e-05
2.09765e-05
2.10115e-05
2.09584e-05
2.08121e-05
2.06125e-05
2.0409e-05
2.02315e-05
2.00853e-05
1.99616e-05
1.98479e-05
1.97341e-05
1.96134e-05
1.94815e-05
1.93361e-05
1.91755e-05
1.89989e-05
1.88058e-05
1.85961e-05
1.83698e-05
1.81271e-05
1.78681e-05
1.75933e-05
1.41823e-05
2.15478e-05
2.15874e-05
2.15112e-05
2.14055e-05
2.13749e-05
2.14483e-05
2.15635e-05
2.16091e-05
2.15318e-05
2.13917e-05
2.12665e-05
2.11668e-05
2.10722e-05
2.10268e-05
2.11685e-05
2.15042e-05
2.16817e-05
2.14538e-05
2.11443e-05
2.10504e-05
2.09496e-05
2.09674e-05
2.0957e-05
2.09181e-05
2.0879e-05
2.08725e-05
2.09149e-05
2.09827e-05
2.10169e-05
2.09651e-05
2.08212e-05
2.06237e-05
2.04211e-05
2.02435e-05
2.00969e-05
1.9973e-05
1.98596e-05
1.97463e-05
1.96263e-05
1.94951e-05
1.93502e-05
1.91901e-05
1.90139e-05
1.88211e-05
1.86117e-05
1.83856e-05
1.8143e-05
1.78843e-05
1.76096e-05
1.42007e-05
2.15526e-05
2.1592e-05
2.15131e-05
2.14046e-05
2.13739e-05
2.14505e-05
2.15699e-05
2.16175e-05
2.15391e-05
2.13962e-05
2.12685e-05
2.11681e-05
2.1075e-05
2.10328e-05
2.11736e-05
2.14984e-05
2.16697e-05
2.14545e-05
2.1157e-05
2.10637e-05
2.09616e-05
2.09791e-05
2.09689e-05
2.09299e-05
2.08903e-05
2.08826e-05
2.09231e-05
2.09888e-05
2.10223e-05
2.09719e-05
2.08307e-05
2.06356e-05
2.04341e-05
2.02565e-05
2.01096e-05
1.99855e-05
1.98723e-05
1.97595e-05
1.96401e-05
1.95095e-05
1.93653e-05
1.92057e-05
1.90299e-05
1.88375e-05
1.86283e-05
1.84025e-05
1.81601e-05
1.79016e-05
1.7627e-05
1.42205e-05
2.15574e-05
2.15966e-05
2.15148e-05
2.14036e-05
2.13728e-05
2.14528e-05
2.15764e-05
2.16261e-05
2.15465e-05
2.14006e-05
2.12705e-05
2.11694e-05
2.10778e-05
2.10389e-05
2.11788e-05
2.14933e-05
2.16594e-05
2.14567e-05
2.11706e-05
2.10778e-05
2.09743e-05
2.09913e-05
2.09814e-05
2.09424e-05
2.09022e-05
2.08932e-05
2.09315e-05
2.0995e-05
2.10277e-05
2.09789e-05
2.08407e-05
2.06482e-05
2.04481e-05
2.02706e-05
2.01233e-05
1.9999e-05
1.98859e-05
1.97736e-05
1.96548e-05
1.95249e-05
1.93813e-05
1.92222e-05
1.90469e-05
1.88549e-05
1.8646e-05
1.84205e-05
1.81784e-05
1.792e-05
1.76457e-05
1.42415e-05
2.15624e-05
2.16013e-05
2.15164e-05
2.14023e-05
2.13717e-05
2.14551e-05
2.15831e-05
2.16348e-05
2.15539e-05
2.14049e-05
2.12724e-05
2.11706e-05
2.10806e-05
2.10451e-05
2.11842e-05
2.14893e-05
2.1651e-05
2.14604e-05
2.11852e-05
2.10927e-05
2.09875e-05
2.10041e-05
2.09945e-05
2.09556e-05
2.09148e-05
2.09042e-05
2.09401e-05
2.10012e-05
2.10332e-05
2.09861e-05
2.08512e-05
2.06617e-05
2.04631e-05
2.02858e-05
2.01382e-05
2.00136e-05
1.99006e-05
1.97888e-05
1.96706e-05
1.95413e-05
1.93983e-05
1.92398e-05
1.90649e-05
1.88733e-05
1.86648e-05
1.84396e-05
1.81977e-05
1.79396e-05
1.76654e-05
1.42639e-05
2.15674e-05
2.16059e-05
2.15179e-05
2.14009e-05
2.13705e-05
2.14575e-05
2.15899e-05
2.16437e-05
2.15614e-05
2.14093e-05
2.12742e-05
2.11717e-05
2.10835e-05
2.10514e-05
2.11898e-05
2.14864e-05
2.16446e-05
2.14656e-05
2.12006e-05
2.1108e-05
2.10012e-05
2.10173e-05
2.10082e-05
2.09694e-05
2.09279e-05
2.09157e-05
2.0949e-05
2.10076e-05
2.10388e-05
2.09936e-05
2.08622e-05
2.06759e-05
2.0479e-05
2.03021e-05
2.01542e-05
2.00294e-05
1.99164e-05
1.98049e-05
1.96873e-05
1.95587e-05
1.94163e-05
1.92584e-05
1.9084e-05
1.88929e-05
1.86848e-05
1.84598e-05
1.82183e-05
1.79603e-05
1.76864e-05
1.42877e-05
2.15725e-05
2.16105e-05
2.15193e-05
2.13993e-05
2.13692e-05
2.146e-05
2.1597e-05
2.16528e-05
2.15689e-05
2.14136e-05
2.12759e-05
2.11729e-05
2.10865e-05
2.10578e-05
2.11959e-05
2.14849e-05
2.16403e-05
2.14723e-05
2.12167e-05
2.11239e-05
2.10153e-05
2.10309e-05
2.10223e-05
2.09838e-05
2.09417e-05
2.09278e-05
2.09583e-05
2.10142e-05
2.10446e-05
2.10014e-05
2.08737e-05
2.06909e-05
2.0496e-05
2.03196e-05
2.01714e-05
2.00463e-05
1.99334e-05
1.98222e-05
1.97051e-05
1.95772e-05
1.94354e-05
1.92781e-05
1.91043e-05
1.89136e-05
1.87059e-05
1.84814e-05
1.82401e-05
1.79824e-05
1.77087e-05
1.43132e-05
2.15778e-05
2.16151e-05
2.15204e-05
2.13976e-05
2.13678e-05
2.14626e-05
2.16043e-05
2.1662e-05
2.15765e-05
2.14179e-05
2.12776e-05
2.1174e-05
2.10896e-05
2.10645e-05
2.12025e-05
2.14848e-05
2.16381e-05
2.14802e-05
2.12333e-05
2.114e-05
2.10297e-05
2.1045e-05
2.1037e-05
2.09988e-05
2.09561e-05
2.09404e-05
2.0968e-05
2.10211e-05
2.10508e-05
2.10097e-05
2.08859e-05
2.07068e-05
2.05141e-05
2.03383e-05
2.01899e-05
2.00645e-05
1.99515e-05
1.98406e-05
1.97241e-05
1.95968e-05
1.94557e-05
1.9299e-05
1.91258e-05
1.89356e-05
1.87284e-05
1.85042e-05
1.82633e-05
1.8006e-05
1.77326e-05
1.43403e-05
2.15831e-05
2.16196e-05
2.15214e-05
2.13956e-05
2.13664e-05
2.14653e-05
2.16118e-05
2.16715e-05
2.15842e-05
2.14222e-05
2.12794e-05
2.11753e-05
2.10929e-05
2.10714e-05
2.12097e-05
2.14862e-05
2.16378e-05
2.14894e-05
2.12503e-05
2.11564e-05
2.10445e-05
2.10594e-05
2.10522e-05
2.10145e-05
2.09713e-05
2.09537e-05
2.09783e-05
2.10285e-05
2.10574e-05
2.10183e-05
2.08987e-05
2.07236e-05
2.05333e-05
2.03583e-05
2.02098e-05
2.00839e-05
1.99709e-05
1.98603e-05
1.97442e-05
1.96176e-05
1.94772e-05
1.93212e-05
1.91485e-05
1.89589e-05
1.87522e-05
1.85285e-05
1.8288e-05
1.8031e-05
1.77578e-05
1.43691e-05
2.15885e-05
2.1624e-05
2.15222e-05
2.13935e-05
2.1365e-05
2.14682e-05
2.16196e-05
2.16811e-05
2.1592e-05
2.14265e-05
2.12812e-05
2.11767e-05
2.10965e-05
2.10787e-05
2.12176e-05
2.14891e-05
2.16393e-05
2.14994e-05
2.12676e-05
2.1173e-05
2.10596e-05
2.10744e-05
2.10681e-05
2.10309e-05
2.09872e-05
2.09677e-05
2.09893e-05
2.10365e-05
2.10644e-05
2.10276e-05
2.09122e-05
2.07413e-05
2.05538e-05
2.03797e-05
2.0231e-05
2.01049e-05
1.99916e-05
1.98812e-05
1.97657e-05
1.96397e-05
1.95e-05
1.93446e-05
1.91727e-05
1.89836e-05
1.87774e-05
1.85542e-05
1.83141e-05
1.80574e-05
1.77846e-05
1.43997e-05
2.15939e-05
2.16283e-05
2.15227e-05
2.13911e-05
2.13636e-05
2.14713e-05
2.16276e-05
2.16908e-05
2.15998e-05
2.14309e-05
2.12831e-05
2.11783e-05
2.11004e-05
2.10864e-05
2.12263e-05
2.14934e-05
2.16422e-05
2.15102e-05
2.1285e-05
2.11899e-05
2.10751e-05
2.10899e-05
2.10847e-05
2.10482e-05
2.10041e-05
2.09827e-05
2.1001e-05
2.10451e-05
2.1072e-05
2.10374e-05
2.09265e-05
2.07602e-05
2.05756e-05
2.04026e-05
2.02539e-05
2.01273e-05
2.00139e-05
1.99037e-05
1.97886e-05
1.96632e-05
1.95242e-05
1.93696e-05
1.91983e-05
1.90099e-05
1.88043e-05
1.85816e-05
1.83419e-05
1.80856e-05
1.78131e-05
1.44323e-05
2.15994e-05
2.16324e-05
2.15229e-05
2.13886e-05
2.13622e-05
2.14747e-05
2.16358e-05
2.17007e-05
2.16076e-05
2.14352e-05
2.1285e-05
2.11802e-05
2.11046e-05
2.10946e-05
2.12357e-05
2.14989e-05
2.16465e-05
2.15214e-05
2.13025e-05
2.12071e-05
2.10912e-05
2.11061e-05
2.11021e-05
2.10664e-05
2.10219e-05
2.09985e-05
2.10136e-05
2.10545e-05
2.10803e-05
2.1048e-05
2.09417e-05
2.07802e-05
2.05988e-05
2.04272e-05
2.02785e-05
2.01515e-05
2.00378e-05
1.99277e-05
1.9813e-05
1.96883e-05
1.955e-05
1.93962e-05
1.92256e-05
1.90379e-05
1.88329e-05
1.86108e-05
1.83716e-05
1.81158e-05
1.78437e-05
1.44673e-05
2.16048e-05
2.16363e-05
2.15229e-05
2.13859e-05
2.13608e-05
2.14782e-05
2.16443e-05
2.17106e-05
2.16153e-05
2.14394e-05
2.1287e-05
2.11822e-05
2.11092e-05
2.11032e-05
2.12458e-05
2.15056e-05
2.16517e-05
2.1533e-05
2.13201e-05
2.12248e-05
2.1108e-05
2.11232e-05
2.11204e-05
2.10856e-05
2.10408e-05
2.10155e-05
2.10272e-05
2.10648e-05
2.10895e-05
2.10594e-05
2.09579e-05
2.08015e-05
2.06237e-05
2.04536e-05
2.0305e-05
2.01776e-05
2.00636e-05
1.99535e-05
1.98392e-05
1.97151e-05
1.95776e-05
1.94245e-05
1.92547e-05
1.90678e-05
1.88635e-05
1.8642e-05
1.84034e-05
1.81481e-05
1.78765e-05
1.4505e-05
2.16101e-05
2.16399e-05
2.15224e-05
2.13829e-05
2.13595e-05
2.1482e-05
2.1653e-05
2.17205e-05
2.16228e-05
2.14435e-05
2.1289e-05
2.11844e-05
2.11141e-05
2.11124e-05
2.12567e-05
2.15132e-05
2.16576e-05
2.15448e-05
2.13378e-05
2.1243e-05
2.11257e-05
2.11414e-05
2.11399e-05
2.1106e-05
2.1061e-05
2.10337e-05
2.1042e-05
2.10761e-05
2.10996e-05
2.10718e-05
2.09753e-05
2.08243e-05
2.06503e-05
2.0482e-05
2.03336e-05
2.02058e-05
2.00914e-05
1.99812e-05
1.98673e-05
1.97438e-05
1.9607e-05
1.94547e-05
1.92858e-05
1.90997e-05
1.88962e-05
1.86754e-05
1.84375e-05
1.81827e-05
1.79117e-05
1.45455e-05
2.16153e-05
2.16431e-05
2.15216e-05
2.13798e-05
2.13583e-05
2.14861e-05
2.16619e-05
2.17303e-05
2.163e-05
2.14474e-05
2.1291e-05
2.11869e-05
2.11195e-05
2.1122e-05
2.12681e-05
2.15215e-05
2.16642e-05
2.15569e-05
2.13559e-05
2.12621e-05
2.11446e-05
2.11608e-05
2.11607e-05
2.11278e-05
2.10825e-05
2.10532e-05
2.1058e-05
2.10886e-05
2.11108e-05
2.10853e-05
2.0994e-05
2.08487e-05
2.06789e-05
2.05126e-05
2.03645e-05
2.02362e-05
2.01213e-05
2.0011e-05
1.98973e-05
1.97744e-05
1.96384e-05
1.94871e-05
1.93191e-05
1.91338e-05
1.89312e-05
1.87112e-05
1.8474e-05
1.82199e-05
1.79494e-05
1.4589e-05
2.16202e-05
2.16459e-05
2.15203e-05
2.13765e-05
2.13572e-05
2.14905e-05
2.16709e-05
2.17399e-05
2.16368e-05
2.1451e-05
2.1293e-05
2.11895e-05
2.11252e-05
2.11321e-05
2.12802e-05
2.15305e-05
2.16713e-05
2.15692e-05
2.13745e-05
2.12822e-05
2.11648e-05
2.11816e-05
2.11829e-05
2.1151e-05
2.11055e-05
2.10742e-05
2.10755e-05
2.11025e-05
2.11233e-05
2.11002e-05
2.10142e-05
2.08749e-05
2.07097e-05
2.05455e-05
2.03978e-05
2.0269e-05
2.01536e-05
2.0043e-05
1.99296e-05
1.98072e-05
1.9672e-05
1.95216e-05
1.93546e-05
1.91703e-05
1.89686e-05
1.87495e-05
1.85131e-05
1.82598e-05
1.79899e-05
1.46358e-05
2.16248e-05
2.16482e-05
2.15186e-05
2.13729e-05
2.13563e-05
2.14951e-05
2.16799e-05
2.17491e-05
2.1643e-05
2.14541e-05
2.12949e-05
2.11923e-05
2.11312e-05
2.11427e-05
2.12928e-05
2.15401e-05
2.16789e-05
2.1582e-05
2.13938e-05
2.13035e-05
2.11865e-05
2.1204e-05
2.12067e-05
2.11759e-05
2.11301e-05
2.10968e-05
2.10945e-05
2.11179e-05
2.11373e-05
2.11165e-05
2.10361e-05
2.09031e-05
2.07427e-05
2.0581e-05
2.04338e-05
2.03044e-05
2.01883e-05
2.00774e-05
1.99641e-05
1.98422e-05
1.97079e-05
1.95584e-05
1.93925e-05
1.92093e-05
1.90087e-05
1.87905e-05
1.8555e-05
1.83025e-05
1.80333e-05
1.4686e-05
2.1629e-05
2.16498e-05
2.15163e-05
2.13692e-05
2.13555e-05
2.15e-05
2.1689e-05
2.17578e-05
2.16485e-05
2.14568e-05
2.12966e-05
2.11953e-05
2.11376e-05
2.11538e-05
2.1306e-05
2.15503e-05