/*--------------------------------*- C++ -*----------------------------------*\
  =========                 |
  \\      /  F ield         | OpenFOAM: The Open Source CFD Toolbox
   \\    /   O peration     | Website:  https://openfoam.org
    \\  /    A nd           | Version:  9
     \\/     M anipulation  |
\*---------------------------------------------------------------------------*/
FoamFile
{
    format      ascii;
    class       volVectorField;
    location    "0.08";
    object      U;
}
// * * * * * * * * * * * * * * * * * * * * * * * * * * * * * * * * * * * * * //

dimensions      [0 1 -1 0 0 0 0];

internalField   nonuniform List<vector> 
5000
(
(-0.000268023 0 0.118121)
(3.49875e-05 0 0.10553)
(0.000235995 0 0.121316)
(0.000211184 0 0.143387)
(3.06259e-05 0 0.151968)
(-6.83207e-05 0 0.144408)
(9.62204e-05 0 0.131066)
(0.000475454 0 0.134464)
(0.000858608 0 0.165524)
(0.00108673 0 0.2055)
(0.00119869 0 0.241242)
(0.00132191 0 0.27414)
(0.00142716 0 0.309317)
(0.00102101 0 0.352368)
(-0.00257374 0 0.368331)
(0.00826026 0 0.0623282)
(0.00114701 0 -0.590004)
(-0.00752769 0 0.110798)
(0.00174535 0 0.378455)
(-0.00176309 0 0.347026)
(-0.00149866 0 0.305415)
(-0.00126848 0 0.277592)
(-0.00108159 0 0.255714)
(-0.00100428 0 0.237398)
(-0.00107139 0 0.220165)
(-0.00126017 0 0.199006)
(-0.0013527 0 0.165008)
(-0.0010213 0 0.111524)
(-0.000391208 0 0.0533776)
(2.94483e-05 0 0.0300804)
(0.000241912 0 0.0555626)
(0.000384852 0 0.0974186)
(0.000334406 0 0.126903)
(0.000134737 0 0.139396)
(-8.17136e-05 0 0.140593)
(-0.000249479 0 0.135728)
(-0.000359383 0 0.127604)
(-0.000420009 0 0.117536)
(-0.000441149 0 0.106239)
(-0.000431576 0 0.0942363)
(-0.000399551 0 0.0819895)
(-0.000353136 0 0.0699222)
(-0.000299798 0 0.0583999)
(-0.000245685 0 0.0477025)
(-0.000195088 0 0.0380052)
(-0.000150274 0 0.0293758)
(-0.00011211 0 0.021791)
(-7.91009e-05 0 0.0151608)
(-5.08232e-05 0 0.00938812)
(-4.80382e-05 0 0.00387969)
(-0.000601292 0 0.117609)
(4.62599e-05 0 0.105271)
(0.000458988 0 0.121199)
(0.000465513 0 0.14332)
(0.000174288 0 0.151818)
(9.27579e-05 0 0.144061)
(0.00056806 0 0.13066)
(0.00143454 0 0.134183)
(0.00233055 0 0.165307)
(0.00296256 0 0.20532)
(0.00332669 0 0.241026)
(0.00358827 0 0.27386)
(0.00358577 0 0.309361)
(0.00319779 0 0.353558)
(-0.00493434 0 0.365519)
(0.0220044 0 0.047448)
(0.00274421 0 -0.564968)
(-0.0198532 0 0.105202)
(0.00328999 0 0.377309)
(-0.00513307 0 0.346915)
(-0.00380386 0 0.304775)
(-0.00348154 0 0.276885)
(-0.00311701 0 0.255152)
(-0.00295555 0 0.237021)
(-0.00307397 0 0.21995)
(-0.00334181 0 0.198717)
(-0.00323942 0 0.164116)
(-0.00222796 0 0.109955)
(-0.000854364 0 0.0523636)
(-0.000205273 0 0.0302094)
(2.22231e-05 0 0.0558505)
(0.000321298 0 0.0975655)
(0.000364281 0 0.127108)
(9.63173e-05 0 0.13964)
(-0.00027228 0 0.140771)
(-0.000596884 0 0.13579)
(-0.000827768 0 0.127546)
(-0.000963366 0 0.117372)
(-0.00101568 0 0.105989)
(-0.00100148 0 0.09392)
(-0.000939005 0 0.0816293)
(-0.000846282 0 0.0695413)
(-0.00073944 0 0.05802)
(-0.000631256 0 0.047341)
(-0.000530472 0 0.0376733)
(-0.000442066 0 0.0290787)
(-0.000368175 0 0.0215306)
(-0.000306585 0 0.0149393)
(-0.00025722 0 0.00923785)
(-0.000274179 0 0.00376375)
(-0.000887934 0 0.117159)
(-1.67708e-05 0 0.104847)
(0.000570567 0 0.120985)
(0.000679526 0 0.143454)
(0.000388158 0 0.152043)
(0.000374928 0 0.143954)
(0.00109069 0 0.130114)
(0.00230289 0 0.133413)
(0.00360492 0 0.16457)
(0.00459936 0 0.204862)
(0.00520557 0 0.240733)
(0.00559853 0 0.273651)
(0.00544119 0 0.309955)
(0.00579038 0 0.355872)
(-0.00514592 0 0.362355)
(0.0318965 0 0.0344804)
(0.00276344 0 -0.532489)
(-0.0290777 0 0.0938863)
(0.0039175 0 0.375121)
(-0.00798088 0 0.348387)
(-0.0056713 0 0.304895)
(-0.00542717 0 0.276547)
(-0.00492367 0 0.254936)
(-0.00466563 0 0.237089)
(-0.00475074 0 0.220295)
(-0.00497085 0 0.198991)
(-0.00465765 0 0.163554)
(-0.00322581 0 0.108345)
(-0.00149596 0 0.0509563)
(-0.0007436 0 0.0295352)
(-0.000412495 0 0.0551343)
(9.54234e-05 0 0.0970512)
(0.000272551 0 0.127256)
(3.36014e-06 0 0.140275)
(-0.000437249 0 0.141529)
(-0.000845653 0 0.136454)
(-0.0011455 0 0.12804)
(-0.00132762 0 0.117686)
(-0.00140462 0 0.106137)
(-0.00139695 0 0.0939264)
(-0.00132763 0 0.081526)
(-0.00121948 0 0.069363)
(-0.00109291 0 0.0578003)
(-0.000964071 0 0.0471087)
(-0.000844222 0 0.0374502)
(-0.000740503 0 0.02888)
(-0.000656871 0 0.0213683)
(-0.000593164 0 0.0148317)
(-0.000548613 0 0.00920262)
(-0.00056694 0 0.00378803)
(-0.00116571 0 0.11656)
(-8.87571e-05 0 0.1043)
(0.000676676 0 0.12073)
(0.00088914 0 0.143615)
(0.000615248 0 0.152282)
(0.000666139 0 0.143766)
(0.00158496 0 0.129379)
(0.00310702 0 0.132421)
(0.00476669 0 0.163648)
(0.00606143 0 0.204302)
(0.00688212 0 0.240417)
(0.00744631 0 0.273496)
(0.00714531 0 0.310806)
(0.00823252 0 0.358301)
(-0.00389281 0 0.357237)
(0.0380373 0 0.0227268)
(0.0021205 0 -0.498282)
(-0.0348912 0 0.0845026)
(0.00313369 0 0.371948)
(-0.0103905 0 0.349963)
(-0.00723623 0 0.305024)
(-0.00713129 0 0.276103)
(-0.00647268 0 0.254634)
(-0.00610708 0 0.237104)
(-0.0061417 0 0.220569)
(-0.00630607 0 0.199058)
(-0.00584951 0 0.16258)
(-0.00416537 0 0.106264)
(-0.00219987 0 0.0491826)
(-0.00126155 0 0.0286264)
(-0.00074312 0 0.0543011)
(-8.46555e-05 0 0.0964698)
(0.000159358 0 0.127384)
(-0.00012093 0 0.140957)
(-0.000606219 0 0.142373)
(-0.00106578 0 0.137202)
(-0.00140742 0 0.12859)
(-0.00161694 0 0.118019)
(-0.00170786 0 0.106266)
(-0.00170326 0 0.0938841)
(-0.0016292 0 0.0813515)
(-0.00151145 0 0.0690998)
(-0.00137298 0 0.05749)
(-0.00123202 0 0.0467871)
(-0.00110134 0 0.037145)
(-0.000989162 0 0.0286115)
(-0.000900646 0 0.0211528)
(-0.000835842 0 0.0146855)
(-0.000791624 0 0.00913754)
(-0.000795427 0 0.00377755)
(-0.00143564 0 0.115828)
(-0.00017034 0 0.103633)
(0.000773086 0 0.120358)
(0.00108685 0 0.143645)
(0.000846531 0 0.152378)
(0.000957521 0 0.143419)
(0.00204225 0 0.128478)
(0.00384027 0 0.13125)
(0.00581764 0 0.162536)
(0.00736253 0 0.203549)
(0.00837066 0 0.239927)
(0.00913059 0 0.273169)
(0.00867995 0 0.311453)
(0.0104433 0 0.359984)
(-0.00132754 0 0.35099)
(0.0411582 0 0.0137259)
(0.00118898 0 -0.463614)
(-0.0379325 0 0.0771967)
(0.00115992 0 0.367753)
(-0.0123276 0 0.351029)
(-0.00849421 0 0.304938)
(-0.00857233 0 0.275462)
(-0.00775985 0 0.254162)
(-0.00730158 0 0.236958)
(-0.00728453 0 0.220653)
(-0.00737585 0 0.198865)
(-0.00679599 0 0.161321)
(-0.00496578 0 0.104018)
(-0.002869 0 0.0473325)
(-0.00174671 0 0.0276366)
(-0.00103764 0 0.0534138)
(-0.000277522 0 0.0958103)
(1.88553e-05 0 0.127397)
(-0.000240756 0 0.141538)
(-0.000737572 0 0.143147)
(-0.0012228 0 0.137899)
(-0.00158929 0 0.129097)
(-0.00181613 0 0.118311)
(-0.00191626 0 0.106357)
(-0.00191439 0 0.0938044)
(-0.0018387 0 0.081143)
(-0.00171692 0 0.068807)
(-0.00157355 0 0.0571556)
(-0.00142791 0 0.0464472)
(-0.00129354 0 0.0368276)
(-0.00117904 0 0.0283368)
(-0.00108967 0 0.0209359)
(-0.00102544 0 0.014537)
(-0.000980518 0 0.00905702)
(-0.000975036 0 0.00375076)
(-0.00168718 0 0.114993)
(-0.000262306 0 0.102849)
(0.000845003 0 0.119878)
(0.00126227 0 0.143583)
(0.00107473 0 0.152383)
(0.00124977 0 0.142966)
(0.00247093 0 0.127442)
(0.00450141 0 0.12991)
(0.0067546 0 0.16125)
(0.00851555 0 0.202637)
(0.00968225 0 0.239303)
(0.010649 0 0.272708)
(0.0100514 0 0.311887)
(0.0124281 0 0.360955)
(0.00184867 0 0.344467)
(0.0423601 0 0.00733581)
(0.000383988 0 -0.429258)
(-0.0391616 0 0.0715032)
(-0.0011991 0 0.363026)
(-0.0137854 0 0.351643)
(-0.00947675 0 0.304706)
(-0.00974476 0 0.2747)
(-0.00878568 0 0.253577)
(-0.00826197 0 0.236704)
(-0.0081963 0 0.22062)
(-0.00820204 0 0.198521)
(-0.00750619 0 0.159916)
(-0.0055905 0 0.101695)
(-0.00343842 0 0.0453755)
(-0.0021824 0 0.0264574)
(-0.00131847 0 0.0523809)
(-0.000474733 0 0.0950539)
(-0.000118815 0 0.127335)
(-0.000334581 0 0.142074)
(-0.000818211 0 0.143906)
(-0.00130915 0 0.138597)
(-0.00168673 0 0.129607)
(-0.00192293 0 0.118602)
(-0.00202907 0 0.106442)
(-0.00203037 0 0.0937179)
(-0.00195608 0 0.0809269)
(-0.00183489 0 0.0685071)
(-0.00169191 0 0.0568153)
(-0.00154688 0 0.0461034)
(-0.00141357 0 0.0365087)
(-0.00130068 0 0.0280634)
(-0.00121314 0 0.0207216)
(-0.00115061 0 0.0143877)
(-0.00110629 0 0.00896898)
(-0.00109669 0 0.0037166)
(-0.0019187 0 0.114084)
(-0.000358426 0 0.101961)
(0.000895293 0 0.119313)
(0.00141492 0 0.143472)
(0.0012893 0 0.152355)
(0.00153004 0 0.142458)
(0.00286873 0 0.126295)
(0.00509437 0 0.128413)
(0.00758591 0 0.159811)
(0.00953932 0 0.201604)
(0.0108331 0 0.238597)
(0.0120072 0 0.272188)
(0.0112766 0 0.312184)
(0.0141382 0 0.361415)
(0.00493829 0 0.33805)
(0.0424162 0 0.00336606)
(-8.42202e-05 0 -0.396081)
(-0.0391897 0 0.0673132)
(-0.0033433 0 0.358114)
(-0.0147882 0 0.351961)
(-0.0102211 0 0.304422)
(-0.0106543 0 0.273905)
(-0.00955758 0 0.252947)
(-0.00899518 0 0.236406)
(-0.00888918 0 0.220537)
(-0.00881699 0 0.198098)
(-0.00802255 0 0.15843)
(-0.00605273 0 0.0993246)
(-0.00387868 0 0.0433096)
(-0.00252582 0 0.0250743)
(-0.00153975 0 0.05118)
(-0.00062298 0 0.0941921)
(-0.000208619 0 0.127207)
(-0.000378512 0 0.142583)
(-0.000842122 0 0.144673)
(-0.00133027 0 0.139319)
(-0.0017112 0 0.130143)
(-0.00195108 0 0.118914)
(-0.00205979 0 0.106543)
(-0.00206275 0 0.0936414)
(-0.00198976 0 0.0807175)
(-0.00186992 0 0.068212)
(-0.00172854 0 0.0564791)
(-0.00158537 0 0.0457636)
(-0.00145426 0 0.0361946)
(-0.00134383 0 0.0277956)
(-0.00125867 0 0.0205125)
(-0.00119811 0 0.0142411)
(-0.00115516 0 0.00887994)
(-0.00114389 0 0.00368113)
(-0.00213582 0 0.113114)
(-0.000453124 0 0.100985)
(0.000932478 0 0.118675)
(0.00154669 0 0.143319)
(0.00148079 0 0.1523)
(0.00178342 0 0.141904)
(0.00322794 0 0.125055)
(0.00562406 0 0.126779)
(0.00832355 0 0.158239)
(0.0104499 0 0.200468)
(0.0118397 0 0.237826)
(0.0132072 0 0.271639)
(0.0123583 0 0.312376)
(0.0155446 0 0.361491)
(0.00764667 0 0.331869)
(0.0417505 0 0.0014901)
(-0.000213936 0 -0.364492)
(-0.0383553 0 0.0646178)
(-0.0051259 0 0.353185)
(-0.0153896 0 0.352058)
(-0.0107429 0 0.304117)
(-0.0113062 0 0.273108)
(-0.0100894 0 0.252293)
(-0.00951146 0 0.236084)
(-0.00937608 0 0.220417)
(-0.00924356 0 0.19761)
(-0.00837175 0 0.156881)
(-0.00636434 0 0.0969269)
(-0.00417656 0 0.041174)
(-0.00274479 0 0.0235486)
(-0.00166285 0 0.0498562)
(-0.00068937 0 0.0932419)
(-0.000226615 0 0.12701)
(-0.000356367 0 0.143052)
(-0.000800281 0 0.14543)
(-0.0012833 0 0.140049)
(-0.00166446 0 0.130691)
(-0.00190507 0 0.119237)
(-0.00201379 0 0.106652)
(-0.00201631 0 0.0935712)
(-0.00194296 0 0.0805135)
(-0.00182319 0 0.0679224)
(-0.0016824 0 0.0561486)
(-0.00154033 0 0.0454303)
(-0.00141076 0 0.0358876)
(-0.0013022 0 0.0275353)
(-0.00121889 0 0.0203101)
(-0.00115992 0 0.0140992)
(-0.00111836 0 0.00879308)
(-0.00110609 0 0.00364629)
(-0.00234307 0 0.112084)
(-0.000544791 0 0.0999278)
(0.000959541 0 0.117969)
(0.00165649 0 0.143119)
(0.00164316 0 0.152207)
(0.00200216 0 0.141299)
(0.0035452 0 0.123728)
(0.00609515 0 0.125027)
(0.00897641 0 0.156553)
(0.0112572 0 0.19924)
(0.0127143 0 0.236991)
(0.0142485 0 0.271061)
(0.013295 0 0.31247)
(0.0166619 0 0.361253)
(0.00995484 0 0.325978)
(0.0406378 0 0.00128323)
(-0.000106897 0 -0.334643)
(-0.0369366 0 0.0632783)
(-0.00660617 0 0.348342)
(-0.0156551 0 0.351955)
(-0.0110522 0 0.303787)
(-0.0117075 0 0.272308)
(-0.0103966 0 0.251617)
(-0.00982286 0 0.235737)
(-0.00966908 0 0.22026)
(-0.009493 0 0.197058)
(-0.00855984 0 0.155274)
(-0.00652274 0 0.0945099)
(-0.00432211 0 0.0389942)
(-0.00282536 0 0.0219294)
(-0.00167351 0 0.0484544)
(-0.000663758 0 0.0922302)
(-0.000165507 0 0.126751)
(-0.000261151 0 0.143472)
(-0.000685899 0 0.146161)
(-0.00116224 0 0.140769)
(-0.00154176 0 0.131235)
(-0.00178124 0 0.119557)
(-0.00188813 0 0.106758)
(-0.00188842 0 0.0934978)
(-0.00181302 0 0.0803075)
(-0.00169175 0 0.0676323)
(-0.00155015 0 0.0558193)
(-0.00140794 0 0.0450996)
(-0.00127881 0 0.0355844)
(-0.00117107 0 0.0272794)
(-0.00108864 0 0.0201118)
(-0.00103045 0 0.01396)
(-0.000989735 0 0.00870763)
(-0.000976431 0 0.00361187)
(-0.00254348 0 0.110993)
(-0.000635011 0 0.0987955)
(0.000974877 0 0.1172)
(0.00174177 0 0.142874)
(0.00177281 0 0.152074)
(0.00218355 0 0.140641)
(0.00382064 0 0.12232)
(0.00651136 0 0.123171)
(0.00955048 0 0.154768)
(0.0119683 0 0.197933)
(0.0134685 0 0.236102)
(0.0151362 0 0.270463)
(0.014093 0 0.312485)
(0.0175188 0 0.360774)
(0.0118949 0 0.320431)
(0.039277 0 0.00238196)
(0.000117248 0 -0.306573)
(-0.0351855 0 0.0631103)
(-0.0078342 0 0.343675)
(-0.0156433 0 0.351665)
(-0.0111637 0 0.303429)
(-0.0118709 0 0.271508)
(-0.0104937 0 0.250924)
(-0.00993921 0 0.235375)
(-0.00977739 0 0.220077)
(-0.00957191 0 0.196454)
(-0.00858861 0 0.15362)
(-0.00652569 0 0.0920745)
(-0.00431348 0 0.0367767)
(-0.00276648 0 0.0202408)
(-0.00156819 0 0.0470027)
(-0.000540491 0 0.091181)
(-1.89719e-05 0 0.126448)
(-8.66617e-05 0 0.143853)
(-0.000493347 0 0.146869)
(-0.000962018 0 0.141477)
(-0.00133844 0 0.131772)
(-0.0015753 0 0.11987)
(-0.00167884 0 0.106856)
(-0.00167538 0 0.093417)
(-0.00159646 0 0.080095)
(-0.0014723 0 0.0673371)
(-0.00132861 0 0.0554867)
(-0.0011851 0 0.0447672)
(-0.00105535 0 0.035281)
(-0.000947448 0 0.027024)
(-0.000864995 0 0.0199143)
(-0.000806826 0 0.0138211)
(-0.000766371 0 0.00862199)
(-0.000752024 0 0.00357728)
(-0.00274189 0 0.109841)
(-0.000728385 0 0.097593)
(0.00097553 0 0.116376)
(0.00180101 0 0.142592)
(0.00186851 0 0.15191)
(0.0023265 0 0.139936)
(0.0040535 0 0.120836)
(0.00687382 0 0.121221)
(0.01005 0 0.152896)
(0.0125896 0 0.196562)
(0.014114 0 0.235172)
(0.0158802 0 0.269861)
(0.014764 0 0.312453)
(0.0181476 0 0.360125)
(0.0135028 0 0.315265)
(0.0378096 0 0.00452411)
(0.000376315 0 -0.280223)
(-0.0332904 0 0.0639202)
(-0.00880429 0 0.339229)
(-0.0153907 0 0.351202)
(-0.0110894 0 0.30305)
(-0.0118108 0 0.270715)
(-0.0103928 0 0.250226)
(-0.00986769 0 0.235012)
(-0.00970684 0 0.219883)
(-0.0094838 0 0.195814)
(-0.00846011 0 0.151928)
(-0.00637751 0 0.089623)
(-0.0041599 0 0.0345276)
(-0.00257703 0 0.0185003)
(-0.00134867 0 0.0455203)
(-0.000314405 0 0.0901112)
(0.00022159 0 0.126114)
(0.000176103 0 0.144203)
(-0.000214739 0 0.147557)
(-0.000676053 0 0.142176)
(-0.00104896 0 0.132303)
(-0.00128248 0 0.120177)
(-0.00138181 0 0.106945)
(-0.00137367 0 0.0933272)
(-0.0012903 0 0.079874)
(-0.00116238 0 0.0670348)
(-0.00101583 0 0.0551486)
(-0.000870362 0 0.044431)
(-0.000739402 0 0.0349752)
(-0.000630798 0 0.0267672)
(-0.000547871 0 0.0197154)
(-0.000489374 0 0.0136811)
(-0.000448892 0 0.00853542)
(-0.000433765 0 0.00354228)
(-0.00294534 0 0.108629)
(-0.000831262 0 0.0963255)
(0.000958774 0 0.115506)
(0.00183413 0 0.142281)
(0.00193079 0 0.151719)
(0.00243033 0 0.139187)
(0.00424116 0 0.119281)
(0.00718156 0 0.119185)
(0.0104784 0 0.150949)
(0.0131266 0 0.195138)
(0.0146617 0 0.234215)
(0.0164919 0 0.26927)
(0.0153215 0 0.312403)
(0.0185907 0 0.35936)
(0.0148457 0 0.310477)
(0.0363407 0 0.00749948)
(0.000658468 0 -0.255494)
(-0.0313498 0 0.0655138)
(-0.00949439 0 0.335005)
(-0.0149153 0 0.350588)
(-0.0108336 0 0.302654)
(-0.0115396 0 0.269934)
(-0.0101038 0 0.249534)
(-0.00961363 0 0.234661)
(-0.00946028 0 0.21969)
(-0.00922853 0 0.195149)
(-0.00817504 0 0.15021)
(-0.00608546 0 0.087165)
(-0.00387527 0 0.0322601)
(-0.00226967 0 0.0167243)
(-0.00101991 0 0.0440195)
(1.71028e-05 0 0.0890303)
(0.000563474 0 0.125759)
(0.000536256 0 0.144529)
(0.000159011 0 0.148229)
(-0.000296028 0 0.142867)
(-0.000666029 0 0.132829)
(-0.000896545 0 0.120476)
(-0.000991833 0 0.107026)
(-0.000979096 0 0.0932278)
(-0.000891302 0 0.0796439)
(-0.00075968 0 0.0667247)
(-0.000610346 0 0.0548044)
(-0.000463006 0 0.0440906)
(-0.000330927 0 0.0346666)
(-0.000221687 0 0.0265085)
(-0.000138363 0 0.0195153)
(-7.96684e-05 0 0.0135401)
(-3.93038e-05 0 0.00844843)
(-2.38364e-05 0 0.00350738)
(-0.00316164 0 0.107359)
(-0.000949193 0 0.0949969)
(0.000923032 0 0.114593)
(0.00184136 0 0.141947)
(0.0019606 0 0.151508)
(0.00249441 0 0.138399)
(0.00438091 0 0.117662)
(0.00743402 0 0.11707)
(0.0108403 0 0.148936)
(0.0135855 0 0.193673)
(0.0151221 0 0.233243)
(0.0169839 0 0.268701)
(0.0157826 0 0.312347)
(0.0189036 0 0.358499)
(0.0160211 0 0.306041)
(0.0349501 0 0.0111364)
(0.00100379 0 -0.232272)
(-0.0293834 0 0.0677197)
(-0.00990168 0 0.330982)
(-0.0142319 0 0.34984)
(-0.0103975 0 0.302245)
(-0.0110678 0 0.269171)
(-0.00963517 0 0.248856)
(-0.00918195 0 0.234326)
(-0.00903942 0 0.219502)
(-0.00880473 0 0.194468)
(-0.00773358 0 0.14848)
(-0.00565558 0 0.0847189)
(-0.00346986 0 0.0299916)
(-0.00185335 0 0.014925)
(-0.000586186 0 0.0425046)
(0.000454479 0 0.0879401)
(0.00101078 0 0.125383)
(0.00100013 0 0.144832)
(0.000635065 0 0.148887)
(0.00018518 0 0.143552)
(-0.000183045 0 0.133351)
(-0.000411716 0 0.12077)
(-0.000504039 0 0.1071)
(-0.000487683 0 0.0931201)
(-0.000396365 0 0.0794059)
(-0.00026183 0 0.0664081)
(-0.000110404 0 0.0544555)
(3.824e-05 0 0.043747)
(0.000171032 0 0.034356)
(0.000280668 0 0.0262486)
(0.000364303 0 0.0193143)
(0.000423291 0 0.0133985)
(0.000463912 0 0.00836112)
(0.000479962 0 0.00347242)
(-0.00339648 0 0.106034)
(-0.00108624 0 0.093609)
(0.000866817 0 0.113641)
(0.00182297 0 0.141593)
(0.00195806 0 0.151279)
(0.00251803 0 0.137577)
(0.00447209 0 0.115982)
(0.00763335 0 0.114883)
(0.0111419 0 0.146861)
(0.0139747 0 0.192173)
(0.015507 0 0.232265)
(0.0173721 0 0.268156)
(0.0161679 0 0.312281)
(0.0191423 0 0.357536)
(0.017113 0 0.301924)
(0.0336864 0 0.0152977)
(0.00145555 0 -0.210449)
(-0.027374 0 0.0704082)
(-0.0100478 0 0.327143)
(-0.0133632 0 0.348974)
(-0.0097875 0 0.301827)
(-0.0104078 0 0.268429)
(-0.00899648 0 0.248196)
(-0.00857893 0 0.234011)
(-0.00844802 0 0.219322)
(-0.00821423 0 0.193779)
(-0.00713819 0 0.146757)
(-0.00509123 0 0.0823066)
(-0.00294622 0 0.0277398)
(-0.00132964 0 0.0131118)
(-4.86332e-05 0 0.0409759)
(0.000997235 0 0.0868385)
(0.00156424 0 0.124989)
(0.00156969 0 0.145114)
(0.0012162 0 0.149532)
(0.000770644 0 0.144232)
(0.00040308 0 0.13387)
(0.000174936 0 0.121061)
(8.42004e-05 0 0.107168)
(0.000102897 0 0.0930064)
(0.000196628 0 0.0791623)
(0.000333152 0 0.0660869)
(0.000485946 0 0.0541034)
(0.000635374 0 0.0434017)
(0.000768553 0 0.0340446)
(0.000878407 0 0.0259882)
(0.000962251 0 0.0191127)
(0.00102141 0 0.0132563)
(0.00106204 0 0.00827326)
(0.00107846 0 0.00343712)
(-0.00365292 0 0.104654)
(-0.00124411 0 0.0921616)
(0.000788821 0 0.11265)
(0.00177795 0 0.141223)
(0.00192191 0 0.151039)
(0.00250072 0 0.136726)
(0.00451685 0 0.114246)
(0.00778463 0 0.112625)
(0.0113914 0 0.14473)
(0.014304 0 0.190645)
(0.0158301 0 0.231287)
(0.017676 0 0.267637)
(0.0164984 0 0.312193)
(0.0193432 0 0.35645)
(0.0181486 0 0.298097)
(0.0325588 0 0.0198677)
(0.00202188 0 -0.18993)
(-0.0253093 0 0.0734862)
(-0.00996536 0 0.323485)
(-0.0123412 0 0.347998)
(-0.00901874 0 0.3014)
(-0.00957588 0 0.267711)
(-0.0081988 0 0.247556)
(-0.007813 0 0.233715)
(-0.00769343 0 0.219151)
(-0.00746388 0 0.193092)
(-0.00639449 0 0.145058)
(-0.00439372 0 0.0799466)
(-0.00230133 0 0.0255195)
(-0.000695238 0 0.0112933)
(0.000593712 0 0.0394354)
(0.00164412 0 0.0857247)
(0.00222162 0 0.124574)
(0.00224276 0 0.145375)
(0.00190061 0 0.150165)
(0.00145909 0 0.144909)
(0.00109155 0 0.13439)
(0.000863052 0 0.121351)
(0.000772974 0 0.107234)
(0.000793194 0 0.092889)
(0.000888705 0 0.0789149)
(0.00102678 0 0.0657628)
(0.00118071 0 0.0537495)
(0.00133085 0 0.0430553)
(0.00146449 0 0.0337326)
(0.00157471 0 0.0257272)
(0.00165892 0 0.0189105)
(0.00171837 0 0.0131135)
(0.00175907 0 0.00818507)
(0.00177599 0 0.00340187)
(-0.00393202 0 0.103217)
(-0.00142333 0 0.0906544)
(0.000687264 0 0.111622)
(0.00170408 0 0.140841)
(0.00185001 0 0.150792)
(0.00244269 0 0.13585)
(0.00451929 0 0.112455)
(0.00789409 0 0.110297)
(0.0115969 0 0.142544)
(0.0145836 0 0.189092)
(0.0161048 0 0.230314)
(0.0179154 0 0.26714)
(0.0167892 0 0.312072)
(0.0195144 0 0.355233)
(0.0190956 0 0.294537)
(0.031542 0 0.0247414)
(0.00266909 0 -0.170637)
(-0.0232045 0 0.0768772)
(-0.00968469 0 0.320008)
(-0.0111995 0 0.346919)
(-0.00811143 0 0.300962)
(-0.00859068 0 0.267015)
(-0.00725373 0 0.246937)
(-0.0068936 0 0.233437)
(-0.00678504 0 0.218989)
(-0.00656302 0 0.192412)
(-0.00550923 0 0.143396)
(-0.00356408 0 0.0776507)
(-0.00153242 0 0.0233422)
(5.2928e-05 0 0.00948048)
(0.00134134 0 0.0378897)
(0.00239241 0 0.0846011)
(0.0029789 0 0.124141)
(0.00301507 0 0.145617)
(0.00268429 0 0.150786)
(0.0022471 0 0.145583)
(0.00187976 0 0.13491)
(0.00165086 0 0.121641)
(0.00156135 0 0.107298)
(0.00158307 0 0.0927686)
(0.00168045 0 0.0786643)
(0.0018203 0 0.0654358)
(0.00197565 0 0.0533933)
(0.00212689 0 0.0427072)
(0.00226136 0 0.0334192)
(0.00237228 0 0.025465)
(0.00245711 0 0.0187071)
(0.00251702 0 0.0129698)
(0.00255784 0 0.00809637)
(0.00257525 0 0.00336659)
(-0.0042346 0 0.101723)
(-0.00162508 0 0.0890878)
(0.000559649 0 0.110562)
(0.00159863 0 0.140452)
(0.00174052 0 0.150542)
(0.00234478 0 0.134949)
(0.00448342 0 0.110608)
(0.00796668 0 0.107901)
(0.0117644 0 0.140305)
(0.0148212 0 0.187517)
(0.0163419 0 0.229347)
(0.0181069 0 0.266663)
(0.0170479 0 0.311916)
(0.0196465 0 0.353899)
(0.0199013 0 0.291229)
(0.0305992 0 0.0298217)
(0.00334326 0 -0.152506)
(-0.0210992 0 0.080504)
(-0.00922942 0 0.316712)
(-0.00996488 0 0.345739)
(-0.00708362 0 0.300502)
(-0.00746864 0 0.266335)
(-0.00617099 0 0.246336)
(-0.0058288 0 0.233175)
(-0.00573064 0 0.218838)
(-0.00551875 0 0.191746)
(-0.00448705 0 0.141778)
(-0.00260378 0 0.0754263)
(-0.000640773 0 0.0212178)
(0.000912869 0 0.00768703)
(0.00219184 0 0.036348)
(0.00323874 0 0.0834722)
(0.00383236 0 0.123692)
(0.00388304 0 0.145839)
(0.00356413 0 0.151395)
(0.00313223 0 0.146252)
(0.00276603 0 0.13543)
(0.0025375 0 0.121931)
(0.00244919 0 0.10736)
(0.00247298 0 0.0926446)
(0.00257277 0 0.0784094)
(0.0027149 0 0.0651048)
(0.00287219 0 0.0530337)
(0.00302495 0 0.0423563)
(0.00316062 0 0.0331035)
(0.00327247 0 0.0252007)
(0.00335802 0 0.018502)
(0.00341836 0 0.012825)
(0.00345925 0 0.00800722)
(0.003477 0 0.00333134)
(-0.00456268 0 0.100169)
(-0.00185199 0 0.0874632)
(0.000403152 0 0.109471)
(0.00145936 0 0.140059)
(0.00159272 0 0.15029)
(0.0022082 0 0.134024)
(0.00441158 0 0.108704)
(0.00800483 0 0.105435)
(0.0118973 0 0.138013)
(0.015022 0 0.185919)
(0.0165481 0 0.228386)
(0.0182608 0 0.266204)
(0.0172768 0 0.311732)
(0.0197326 0 0.352482)
(0.0205397 0 0.28816)
(0.0297088 0 0.035024)
(0.00400146 0 -0.135477)
(-0.0190368 0 0.0842838)
(-0.00861755 0 0.313583)
(-0.00865192 0 0.344463)
(-0.00594542 0 0.30001)
(-0.00622074 0 0.26566)
(-0.00495655 0 0.245746)
(-0.00462335 0 0.232926)
(-0.00453348 0 0.218698)
(-0.00433265 0 0.191098)
(-0.00332863 0 0.14021)
(-0.00151531 0 0.0732815)
(0.000370031 0 0.0191584)
(0.00188006 0 0.00592593)
(0.00314 0 0.0348192)
(0.00417968 0 0.0823423)
(0.00477981 0 0.123227)
(0.00484546 0 0.146041)
(0.00453969 0 0.151989)
(0.00411471 0 0.146915)
(0.00375113 0 0.135948)
(0.00352415 0 0.122218)
(0.00343792 0 0.107418)
(0.00346445 0 0.0925154)
(0.00356718 0 0.078149)
(0.003712 0 0.0647687)
(0.0038715 0 0.0526697)
(0.00402598 0 0.0420018)
(0.00416293 0 0.0327849)
(0.00427571 0 0.0249343)
(0.00436184 0 0.0182955)
(0.00442246 0 0.0126795)
(0.00446326 0 0.00791801)
(0.00448115 0 0.00329633)
(-0.00491982 0 0.0985536)
(-0.00210772 0 0.0857816)
(0.000215305 0 0.108353)
(0.0012851 0 0.139664)
(0.00140696 0 0.150038)
(0.0020339 0 0.133072)
(0.00430414 0 0.106742)
(0.00800894 0 0.1029)
(0.0119974 0 0.135668)
(0.0151889 0 0.184298)
(0.0167268 0 0.227431)
(0.0183832 0 0.265762)
(0.0174782 0 0.311528)
(0.019783 0 0.351016)
(0.0210353 0 0.285318)
(0.0288781 0 0.0402813)
(0.0046333 0 -0.119492)
(-0.0170414 0 0.0881333)
(-0.00786213 0 0.310595)
(-0.00726304 0 0.343091)
(-0.0046982 0 0.299474)
(-0.0048517 0 0.264978)
(-0.00361232 0 0.245159)
(-0.00327851 0 0.232684)
(-0.00319214 0 0.218566)
(-0.00300112 0 0.190471)
(-0.00203064 0 0.138702)
(-0.000298697 0 0.0712287)
(0.00149532 0 0.0171792)
(0.00294896 0 0.00420896)
(0.00418248 0 0.0333097)
(0.00521335 0 0.0812128)
(0.00582082 0 0.122746)
(0.00590319 0 0.14622)
(0.00561277 0 0.152567)
(0.00519688 0 0.14757)
(0.00483769 0 0.136461)
(0.00461348 0 0.122501)
(0.00453011 0 0.107471)
(0.00455982 0 0.09238)
(0.00466569 0 0.0778824)
(0.00481327 0 0.064427)
(0.00497496 0 0.0523011)
(0.00513107 0 0.0416438)
(0.00526916 0 0.0324637)
(0.00538267 0 0.024666)
(0.00546921 0 0.0180881)
(0.00552991 0 0.0125338)
(0.00557047 0 0.00782922)
(0.00558839 0 0.00326179)
(-0.0053101 0 0.0968761)
(-0.00239572 0 0.0840437)
(-5.58595e-06 0 0.107209)
(0.00107546 0 0.139269)
(0.00118391 0 0.149787)
(0.00182226 0 0.132093)
(0.00416052 0 0.10472)
(0.00797902 0 0.100294)
(0.0120664 0 0.133269)
(0.0153246 0 0.182653)
(0.0168802 0 0.226481)
(0.0184783 0 0.265334)
(0.0176586 0 0.311309)
(0.0198262 0 0.349522)
(0.0214522 0 0.282686)
(0.0281377 0 0.0455465)
(0.00526265 0 -0.104483)
(-0.0151058 0 0.0919798)
(-0.00697024 0 0.307713)
(-0.00579245 0 0.34162)
(-0.00333802 0 0.298885)
(-0.0033628 0 0.264278)
(-0.00213792 0 0.24457)
(-0.00179345 0 0.232441)
(-0.00170282 0 0.218439)
(-0.00151856 0 0.189868)
(-0.000588306 0 0.137263)
(0.0010482 0 0.0692842)
(0.0027347 0 0.0152968)
(0.00411828 0 0.00254877)
(0.00531835 0 0.0318248)
(0.00633913 0 0.0800834)
(0.0069555 0 0.122245)
(0.00705733 0 0.146373)
(0.00678533 0 0.153123)
(0.00638127 0 0.148211)
(0.00602846 0 0.136967)
(0.00580824 0 0.122779)
(0.00572834 0 0.107517)
(0.00576144 0 0.092238)
(0.00587046 0 0.0776096)
(0.00602066 0 0.06408)
(0.00618437 0 0.0519283)
(0.00634193 0 0.0412826)
(0.006481 0 0.0321403)
(0.00659511 0 0.0243965)
(0.00668194 0 0.0178801)
(0.00674264 0 0.0123884)
(0.00678289 0 0.0077411)
(0.00680088 0 0.00322782)
(-0.00573694 0 0.0951354)
(-0.00271823 0 0.0822492)
(-0.000260546 0 0.10604)
(0.000830016 0 0.138876)
(0.000923536 0 0.149537)
(0.00157301 0 0.131088)
(0.00398056 0 0.102637)
(0.00791627 0 0.0976159)
(0.0121071 0 0.130815)
(0.0154323 0 0.180982)
(0.0170112 0 0.225533)
(0.0185518 0 0.264918)
(0.0178284 0 0.311067)
(0.0198958 0 0.347999)
(0.0218603 0 0.280243)
(0.027523 0 0.0507874)
(0.00593207 0 -0.0903865)
(-0.0131975 0 0.0957691)
(-0.00594269 0 0.304909)
(-0.00423296 0 0.340047)
(-0.00186174 0 0.298238)
(-0.00175365 0 0.263548)
(-0.000533113 0 0.243966)
(-0.0001687 0 0.23219)
(-6.2001e-05 0 0.21831)
(0.000118603 0 0.189289)
(0.00100202 0 0.135906)
(0.0025288 0 0.067466)
(0.00409181 0 0.0135291)
(0.0053911 0 0.000958831)
(0.00654887 0 0.0303704)
(0.00755669 0 0.0789539)
(0.00818307 0 0.121722)
(0.00830746 0 0.146496)
(0.0080576 0 0.153653)
(0.00766871 0 0.148835)
(0.00732472 0 0.137462)
(0.00710996 0 0.123048)
(0.00703428 0 0.107556)
(0.00707111 0 0.0920894)
(0.00718336 0 0.0773308)
(0.0073362 0 0.063728)
(0.00750192 0 0.0515516)
(0.00766094 0 0.0409186)
(0.00780102 0 0.0318149)
(0.00791579 0 0.0241258)
(0.00800297 0 0.0176717)
(0.00806372 0 0.0122431)
(0.00810369 0 0.00765359)
(0.00812185 0 0.0031944)
(-0.00620246 0 0.0933298)
(-0.00307629 0 0.080397)
(-0.000550472 0 0.104845)
(0.000547619 0 0.138485)
(0.000624579 0 0.149288)
(0.00128548 0 0.130055)
(0.00376526 0 0.100492)
(0.00782345 0 0.0948619)
(0.0121233 0 0.128302)
(0.0155163 0 0.179283)
(0.0171238 0 0.224586)
(0.0186107 0 0.264505)
(0.0179987 0 0.310786)
(0.0200159 0 0.34643)
(0.0223032 0 0.277965)
(0.027056 0 0.0559788)
(0.00668094 0 -0.0771407)
(-0.0112766 0 0.0994646)
(-0.00477825 0 0.302159)
(-0.00257974 0 0.338369)
(-0.000273231 0 0.297507)
(-3.28948e-05 0 0.262803)
(0.00120574 0 0.243339)
(0.00159639 0 0.231922)
(0.00172714 0 0.21817)
(0.00191072 0 0.188737)
(0.00274145 0 0.134643)
(0.00414607 0 0.0657908)
(0.00557094 0 0.011894)
(0.00677112 0 -0.000545375)
(0.00787533 0 0.028956)
(0.00886491 0 0.0778268)
(0.00950118 0 0.121174)
(0.00965113 0 0.146581)
(0.00942768 0 0.15415)
(0.00905804 0 0.149437)
(0.00872599 0 0.137943)
(0.00851878 0 0.123308)
(0.00844862 0 0.107588)
(0.00848997 0 0.0919334)
(0.008606 0 0.0770454)
(0.00876189 0 0.0633705)
(0.00892996 0 0.0511706)
(0.00909074 0 0.0405512)
(0.00923211 0 0.0314871)
(0.00934776 0 0.0238535)
(0.00943547 0 0.0174625)
(0.0094964 0 0.0120978)
(0.00953612 0 0.00756647)
(0.00955454 0 0.00316142)
(-0.00670796 0 0.091457)
(-0.00347053 0 0.0784857)
(-0.000876729 0 0.103626)
(0.000226045 0 0.138097)
(0.000284664 0 0.149041)
(0.000958732 0 0.128993)
(0.00351639 0 0.0982794)
(0.00770399 0 0.0920287)
(0.0121188 0 0.125729)
(0.0155811 0 0.177555)
(0.0172229 0 0.223636)
(0.0186631 0 0.264086)
(0.0181778 0 0.310446)
(0.0201921 0 0.344794)
(0.0227868 0 0.275831)
(0.0267384 0 0.061093)
(0.00752773 0 -0.0647006)
(-0.00931853 0 0.103047)
(-0.00347989 0 0.299455)
(-0.000854277 0 0.336595)
(0.00143651 0 0.296682)
(0.00180943 0 0.262029)
(0.00305728 0 0.242682)
(0.00349741 0 0.231622)
(0.00366285 0 0.218013)
(0.00385455 0 0.188211)
(0.00462816 0 0.133481)
(0.00590033 0 0.0642726)
(0.00717339 0 0.0104088)
(0.00825879 0 -0.00194641)
(0.00929654 0 0.0275938)
(0.0102613 0 0.0767068)
(0.0109067 0 0.120598)
(0.0110852 0 0.146624)
(0.010893 0 0.154607)
(0.0105474 0 0.15001)
(0.0102313 0 0.138404)
(0.0100345 0 0.123554)
(0.00997184 0 0.107608)
(0.0100191 0 0.0917679)
(0.01014 0 0.076752)
(0.0102997 0 0.0630063)
(0.0104708 0 0.0507841)
(0.0106339 0 0.0401795)
(0.0107769 0 0.031156)
(0.0108937 0 0.0235789)
(0.0109822 0 0.017252)
(0.0110434 0 0.011952)
(0.0110828 0 0.00747961)
(0.0111015 0 0.00312887)
(-0.00725489 0 0.0895139)
(-0.00390242 0 0.0765143)
(-0.00124169 0 0.102383)
(-0.000137547 0 0.137715)
(-9.8979e-05 0 0.148796)
(0.0005916 0 0.127898)
(0.00323534 0 0.0959956)
(0.00756035 0 0.0891117)
(0.0120963 0 0.123092)
(0.01563 0 0.175794)
(0.0173123 0 0.22268)
(0.0187155 0 0.263652)
(0.0183687 0 0.310034)
(0.0204145 0 0.34308)
(0.0232891 0 0.273818)
(0.0265533 0 0.0660984)
(0.00846882 0 -0.053026)
(-0.00732343 0 0.106505)
(-0.00206234 0 0.296789)
(0.000927742 0 0.334725)
(0.00324215 0 0.295787)
(0.00376161 0 0.261193)
(0.00502324 0 0.241982)
(0.00553086 0 0.231279)
(0.00574202 0 0.21783)
(0.0059471 0 0.187711)
(0.00665977 0 0.132428)
(0.00778945 0 0.0629245)
(0.00889599 0 0.00909145)
(0.00985 0 -0.00322588)
(0.0108086 0 0.026297)
(0.0117427 0 0.0755993)
(0.0123974 0 0.119994)
(0.0126084 0 0.146619)
(0.0124529 0 0.155017)
(0.0121369 0 0.150545)
(0.0118412 0 0.138839)