/*--------------------------------*- C++ -*----------------------------------*\
  =========                 |
  \\      /  F ield         | OpenFOAM: The Open Source CFD Toolbox
   \\    /   O peration     | Website:  https://openfoam.org
    \\  /    A nd           | Version:  9
     \\/     M anipulation  |
\*---------------------------------------------------------------------------*/
FoamFile
{
    format      ascii;
    class       surfaceVectorField;
    location    "0.08";
    object      Uf;
}
// * * * * * * * * * * * * * * * * * * * * * * * * * * * * * * * * * * * * * //

dimensions      [0 1 -1 0 0 0 0];

internalField   nonuniform List<vector> 
9850
(
(-0.000107692 0 0.111826)
(-0.000434658 0 0.117864)
(0.000160572 0 0.113423)
(4.06237e-05 0 0.105377)
(0.000253205 0 0.132351)
(0.000347492 0 0.121264)
(0.000125367 0 0.147678)
(0.000338349 0 0.143398)
(-4.16019e-05 0 0.148188)
(0.000102457 0 0.151949)
(-8.2203e-06 0 0.137737)
(1.22186e-05 0 0.144275)
(0.000275303 0 0.132765)
(0.00033214 0 0.13087)
(0.000680083 0 0.149994)
(0.000954996 0 0.1343)
(0.000998517 0 0.185512)
(0.00159458 0 0.165419)
(0.00114771 0 0.223371)
(0.00202465 0 0.205444)
(0.00125554 0 0.257691)
(0.00226269 0 0.241171)
(0.00140246 0 0.291729)
(0.00245509 0 0.27402)
(0.00129493 0 0.330843)
(0.00250646 0 0.309316)
(-0.00029342 0 0.360349)
(0.0021094 0 0.353068)
(-0.000277786 0 0.215329)
(-0.00375404 0 0.367391)
(0.0127016 0 -0.263838)
(0.0151323 0 0.0536558)
(-0.0102872 0 -0.239603)
(0.00194561 0 -0.575639)
(-0.000524215 0 0.244627)
(-0.0136904 0 0.106518)
(-0.000703534 0 0.36274)
(0.00251767 0 0.378392)
(-0.00152513 0 0.324126)
(-0.00344808 0 0.347134)
(-0.00138555 0 0.291171)
(-0.00265126 0 0.305075)
(-0.00116121 0 0.266392)
(-0.00237501 0 0.277235)
(-0.00102356 0 0.246337)
(-0.0020993 0 0.255436)
(-0.00101539 0 0.228576)
(-0.00197992 0 0.237221)
(-0.00115829 0 0.209333)
(-0.00207268 0 0.220094)
(-0.00135503 0 0.181601)
(-0.00230099 0 0.198939)
(-0.00127327 0 0.137627)
(-0.00229606 0 0.164647)
(-0.000693505 0 0.0817559)
(-0.00162463 0 0.110731)
(-0.000103645 0 0.0414506)
(-0.000622786 0 0.0527557)
(0.000146893 0 0.043126)
(-8.79121e-05 0 0.0300085)
(0.000326201 0 0.0769907)
(0.000132067 0 0.0556008)
(0.000380786 0 0.112513)
(0.000353075 0 0.0974844)
(0.00023948 0 0.133299)
(0.000349343 0 0.127083)
(2.07054e-05 0 0.140009)
(0.000115527 0 0.139609)
(-0.000173597 0 0.138103)
(-0.000176997 0 0.140751)
(-0.000311694 0 0.131569)
(-0.000423182 0 0.135804)
(-0.000395708 0 0.122449)
(-0.000593576 0 0.127603)
(-0.000435303 0 0.111752)
(-0.000691687 0 0.117471)
(-0.000439814 0 0.100094)
(-0.000728417 0 0.106122)
(-0.000417749 0 0.0879666)
(-0.000716528 0 0.0940797)
(-0.000377344 0 0.0758116)
(-0.000669278 0 0.0818054)
(-0.000326481 0 0.0640233)
(-0.000599709 0 0.0697236)
(-0.000272069 0 0.0529234)
(-0.000519619 0 0.0581992)
(-0.000219363 0 0.042738)
(-0.00043847 0 0.04751)
(-0.000171623 0 0.0335874)
(-0.00036278 0 0.0378279)
(-0.000130215 0 0.0254928)
(-0.00029617 0 0.0292173)
(-9.53364e-05 0 0.0183967)
(-0.000240143 0 0.0216527)
(-6.6749e-05 0 0.0122055)
(-0.000192843 0 0.0150439)
(-4.86405e-05 0 0.00656809)
(-0.000154022 0 0.00930876)
(-0.000161108 0 0.00382049)
(-0.000237615 0 0.11144)
(-0.000744613 0 0.117438)
(0.000262476 0 0.113235)
(1.47446e-05 0 0.105044)
(0.000479817 0 0.132259)
(0.000514777 0 0.121119)
(0.000316712 0 0.147569)
(0.00057252 0 0.143507)
(9.76535e-05 0 0.14794)
(0.000281223 0 0.152095)
(0.000307711 0 0.13736)
(0.000233843 0 0.144135)
(0.00100907 0 0.132421)
(0.000829376 0 0.130403)
(0.00187066 0 0.149745)
(0.00186871 0 0.133725)
(0.00266639 0 0.185314)
(0.00296773 0 0.164888)
(0.00316005 0 0.223173)
(0.00378096 0 0.205115)
(0.00349539 0 0.257443)
(0.00426613 0 0.240947)
(0.00374652 0 0.29161)
(0.0045934 0 0.273853)
(0.00294253 0 0.331459)
(0.00451348 0 0.309852)
(-0.000135092 0 0.359538)
(0.00449408 0 0.35512)
(0.00408831 0 0.206483)
(-0.00504013 0 0.364575)
(0.0233154 0 -0.25876)
(0.0269505 0 0.0408377)
(-0.017722 0 -0.229883)
(0.00275382 0 -0.548281)
(-0.00528666 0 0.241255)
(-0.0244654 0 0.0982276)
(-0.00232188 0 0.362112)
(0.00360375 0 0.376415)
(-0.00371301 0 0.323725)
(-0.00655697 0 0.348062)
(-0.00372595 0 0.290497)
(-0.00473758 0 0.305086)
(-0.00330066 0 0.265759)
(-0.00445435 0 0.276871)
(-0.00301535 0 0.24587)
(-0.00402034 0 0.25518)
(-0.00300491 0 0.228282)
(-0.00381059 0 0.237212)
(-0.00323424 0 0.20908)
(-0.00391236 0 0.22032)
(-0.00337419 0 0.181003)
(-0.00415633 0 0.199084)
(-0.00280233 0 0.136388)
(-0.00394853 0 0.164026)
(-0.00144849 0 0.0804711)
(-0.00272688 0 0.109187)
(-0.00040763 0 0.0410218)
(-0.00117516 0 0.0515111)
(-9.7167e-05 0 0.0433363)
(-0.000474436 0 0.0296192)
(0.000155773 0 0.0772064)
(-0.000195136 0 0.0552681)
(0.000341273 0 0.11269)
(0.000208361 0 0.0972285)
(0.000231594 0 0.133524)
(0.000318416 0 0.127242)
(-8.76568e-05 0 0.140219)
(4.98387e-05 0 0.140094)
(-0.000436494 0 0.138221)
(-0.000354764 0 0.141307)
(-0.000716604 0 0.131569)
(-0.000721268 0 0.136272)
(-0.000900753 0 0.122338)
(-0.000986634 0 0.127925)
(-0.000993979 0 0.111545)
(-0.00114549 0 0.117642)
(-0.0010116 0 0.0998103)
(-0.00121015 0 0.106156)
(-0.00097172 0 0.0876278)
(-0.00119922 0 0.0939988)
(-0.000892798 0 0.0754408)
(-0.00113332 0 0.0816377)
(-0.000792073 0 0.063643)
(-0.00103288 0 0.0694991)
(-0.000684042 0 0.0525529)
(-0.000916173 0 0.0579467)
(-0.000579409 0 0.0423916)
(-0.000797663 0 0.0472535)
(-0.000484848 0 0.0332733)
(-0.000687347 0 0.0375846)
(-0.000403667 0 0.0252144)
(-0.000591284 0 0.0289982)
(-0.000337501 0 0.0181562)
(-0.000512523 0 0.0214654)
(-0.000288678 0 0.0120204)
(-0.000449875 0 0.014899)
(-0.000263576 0 0.0064354)
(-0.000402916 0 0.00923055)
(-0.000420559 0 0.0037795)
(-0.000425205 0 0.111003)
(-0.00102682 0 0.116872)
(0.000278655 0 0.112916)
(-5.2764e-05 0 0.104575)
(0.000642057 0 0.13222)
(0.000623621 0 0.120877)
(0.000532683 0 0.147749)
(0.000784333 0 0.14358)
(0.000352363 0 0.147999)
(0.000501703 0 0.152216)
(0.000712777 0 0.137034)
(0.000520534 0 0.143895)
(0.00169835 0 0.131763)
(0.00133782 0 0.129746)
(0.00294263 0 0.148992)
(0.00270496 0 0.132896)
(0.0041274 0 0.184716)
(0.00418581 0 0.164098)
(0.00490916 0 0.222798)
(0.00533039 0 0.204594)
(0.00542238 0 0.257192)
(0.00604385 0 0.240605)
(0.00576131 0 0.291803)
(0.00652242 0 0.273627)
(0.00480472 0 0.332914)
(0.00629325 0 0.31049)
(0.00162248 0 0.359114)
(0.00701145 0 0.357241)
(0.00884079 0 0.198418)
(-0.00451937 0 0.359763)
(0.0271513 0 -0.249004)
(0.0349669 0 0.0286307)
(-0.0218319 0 -0.219301)
(0.00244197 0 -0.515626)
(-0.00839923 0 0.234504)
(-0.0319844 0 0.0892724)
(-0.00400154 0 0.361754)
(0.0035256 0 0.373483)
(-0.00579895 0 0.324453)
(-0.00918569 0 0.34926)
(-0.00574526 0 0.290382)
(-0.00645377 0 0.305042)
(-0.00516827 0 0.265483)
(-0.00627923 0 0.276377)
(-0.00477793 0 0.245799)
(-0.00569818 0 0.25483)
(-0.00470795 0 0.228491)
(-0.00538635 0 0.237146)
(-0.00487251 0 0.209388)
(-0.00544622 0 0.220483)
(-0.00485171 0 0.180849)
(-0.00563846 0 0.199063)
(-0.00397619 0 0.13529)
(-0.00525358 0 0.163074)
(-0.00229861 0 0.0789651)
(-0.00369559 0 0.107275)
(-0.00105107 0 0.0399898)
(-0.00184792 0 0.0500193)
(-0.000588075 0 0.0426406)
(-0.00100258 0 0.0290386)
(-0.000150691 0 0.0765936)
(-0.000577807 0 0.0546928)
(0.000195313 0 0.112515)
(5.38398e-06 0 0.0967511)
(0.000134619 0 0.133921)
(0.000215955 0 0.12733)
(-0.000223688 0 0.140917)
(-5.87848e-05 0 0.140638)
(-0.000647466 0 0.138931)
(-0.000521734 0 0.141982)
(-0.00100044 0 0.132147)
(-0.000955717 0 0.136862)
(-0.00124041 0 0.122739)
(-0.00127646 0 0.128346)
(-0.00136877 0 0.111773)
(-0.00147228 0 0.117878)
(-0.00140224 0 0.0998856)
(-0.00155624 0 0.106221)
(-0.00136266 0 0.087578)
(-0.00155011 0 0.0939186)
(-0.00127303 0 0.0752992)
(-0.00147841 0 0.0814472)
(-0.00115506 0 0.0634435)
(-0.00136546 0 0.0692362)
(-0.00102702 0 0.0523267)
(-0.00123294 0 0.0576474)
(-0.000902627 0 0.042164)
(-0.00109805 0 0.0469484)
(-0.000790838 0 0.0330627)
(-0.000972781 0 0.0372971)
(-0.000696851 0 0.0250344)
(-0.000864833 0 0.0287446)
(-0.000623975 0 0.0180219)
(-0.000778758 0 0.0212591)
(-0.000576232 0 0.0119499)
(-0.000714503 0 0.0147572)
(-0.000556476 0 0.00643063)
(-0.000670118 0 0.00916898)
(-0.000681184 0 0.00378219)
(-0.000613747 0 0.11043)
(-0.00130068 0 0.116186)
(0.000297024 0 0.112515)
(-0.000129548 0 0.103967)
(0.000803917 0 0.132172)
(0.000724881 0 0.120539)
(0.000754268 0 0.147948)
(0.000987996 0 0.143613)
(0.000618555 0 0.148024)
(0.000730889 0 0.152306)
(0.00110233 0 0.136572)
(0.00081183 0 0.143572)
(0.00234001 0 0.1309)
(0.0018136 0 0.12892)
(0.0039308 0 0.148034)
(0.00347365 0 0.131836)
(0.00544705 0 0.183975)
(0.00529216 0 0.163088)
(0.00647122 0 0.222359)
(0.00671198 0 0.203911)
(0.00714899 0 0.256956)
(0.00762639 0 0.240153)
(0.00762334 0 0.292151)
(0.00828845 0 0.27331)
(0.00670181 0 0.334554)
(0.00791263 0 0.311104)
(0.00392584 0 0.357769)
(0.0093379 0 0.359092)
(0.0126631 0 0.189982)
(-0.00261018 0 0.353939)
(0.0282346 0 -0.237778)
(0.0395978 0 0.0182497)
(-0.023877 0 -0.20689)
(0.00165474 0 -0.480885)
(-0.0115127 0 0.228225)
(-0.0364118 0 0.0810295)
(-0.00585941 0 0.360955)
(0.0021468 0 0.369715)
(-0.00761652 0 0.325232)
(-0.011359 0 0.350431)
(-0.00749611 0 0.290218)
(-0.00786522 0 0.304944)
(-0.00677166 0 0.265112)
(-0.00785181 0 0.275757)
(-0.00626967 0 0.24566)
(-0.00711627 0 0.254379)
(-0.00612591 0 0.228639)
(-0.00670433 0 0.23701)
(-0.0062262 0 0.209557)
(-0.00671311 0 0.220582)
(-0.00609264 0 0.180383)
(-0.00684096 0 0.198924)
(-0.00502783 0 0.133749)
(-0.00632275 0 0.161917)
(-0.00314658 0 0.0770411)
(-0.00456558 0 0.10513)
(-0.00169132 0 0.0386589)
(-0.00253443 0 0.0482791)
(-0.00100084 0 0.0417706)
(-0.00150413 0 0.0281726)
(-0.000391335 0 0.0758893)
(-0.000890381 0 0.0538909)
(4.46708e-05 0 0.112296)
(-0.000181089 0 0.0961495)
(1.35729e-05 0 0.134333)
(8.91069e-05 0 0.127375)
(-0.000371293 0 0.141682)
(-0.000180843 0 0.141223)
(-0.000843589 0 0.139725)
(-0.000671896 0 0.142735)
(-0.00124267 0 0.132793)
(-0.00114429 0 0.137529)
(-0.00151645 0 0.123178)
(-0.00149836 0 0.128826)
(-0.00166493 0 0.112002)
(-0.00171654 0 0.118151)
(-0.00170664 0 0.0999273)
(-0.00181206 0 0.106301)
(-0.00166617 0 0.0874681)
(-0.00180882 0 0.0938365)
(-0.00156942 0 0.0750793)
(-0.00173395 0 0.0812417)
(-0.00144077 0 0.0631562)
(-0.00161419 0 0.0689496)
(-0.00130079 0 0.0520107)
(-0.00147326 0 0.0573203)
(-0.00116498 0 0.0418509)
(-0.00132997 0 0.0466155)
(-0.00104367 0 0.0327763)
(-0.00119744 0 0.0369852)
(-0.000943063 0 0.024793)
(-0.0010841 0 0.0284733)
(-0.000866865 0 0.0178419)
(-0.000995156 0 0.0210436)
(-0.000817431 0 0.0118452)
(-0.000930641 0 0.0146105)
(-0.000794191 0 0.0063935)
(-0.000886071 0 0.00909666)
(-0.000885232 0 0.00376401)
(-0.000793898 0 0.109731)
(-0.00156141 0 0.115401)
(0.000301288 0 0.111995)
(-0.000216323 0 0.103237)
(0.000945615 0 0.132001)
(0.000809045 0 0.120109)
(0.000968114 0 0.148011)
(0.00117456 0 0.143598)
(0.000887613 0 0.147898)
(0.000960633 0 0.15236)
(0.00148318 0 0.135949)
(0.00110364 0 0.143175)
(0.00293601 0 0.129864)
(0.00225659 0 0.127952)
(0.00482176 0 0.146893)
(0.00417084 0 0.130578)
(0.0066216 0 0.183042)
(0.00628612 0 0.161888)
(0.00786748 0 0.221738)
(0.00793904 0 0.203081)
(0.0087016 0 0.256548)
(0.00902645 0 0.239597)
(0.00930043 0 0.292311)
(0.0098898 0 0.272911)
(0.00850566 0 0.335719)
(0.00936565 0 0.311634)
(0.00649016 0 0.355487)
(0.0114357 0 0.360436)
(0.0159223 0 0.182358)
(0.000260565 0 0.34765)
(0.0275863 0 -0.224944)
(0.0417592 0 0.0104738)
(-0.0244085 0 -0.193209)
(0.000786486 0 -0.446222)
(-0.0143891 0 0.222475)
(-0.038547 0 0.0743499)
(-0.00780958 0 0.359391)
(-1.95937e-05 0 0.365328)
(-0.00912328 0 0.325664)
(-0.0130565 0 0.351307)
(-0.00892926 0 0.289848)
(-0.00898548 0 0.304785)
(-0.00810527 0 0.264558)
(-0.00915854 0 0.275052)
(-0.00751319 0 0.245354)
(-0.00827277 0 0.253848)
(-0.00730076 0 0.22861)
(-0.00778178 0 0.23681)
(-0.00733444 0 0.209498)
(-0.00774041 0 0.220615)
(-0.00709182 0 0.179644)
(-0.00778895 0 0.198673)
(-0.00588289 0 0.131985)
(-0.00715109 0 0.160603)
(-0.00388256 0 0.0749978)
(-0.00527814 0 0.10285)
(-0.00227615 0 0.0372492)
(-0.00315371 0 0.046358)
(-0.00138669 0 0.0408332)
(-0.00196456 0 0.0270568)
(-0.00063785 0 0.0751186)
(-0.00117805 0 0.0529055)
(-0.000120335 0 0.111981)
(-0.000376127 0 0.0954352)
(-0.000113768 0 0.134636)
(-4.998e-05 0 0.127365)
(-0.000494331 0 0.142361)
(-0.000287668 0 0.141801)
(-0.000986241 0 0.14046)
(-0.000777892 0 0.143518)
(-0.0014113 0 0.133393)
(-0.00126598 0 0.138239)
(-0.00170644 0 0.123575)
(-0.00163801 0 0.129343)
(-0.00186828 0 0.112191)
(-0.00186953 0 0.118449)
(-0.00191598 0 0.0999306)
(-0.00197266 0 0.106393)
(-0.00187609 0 0.0873225)
(-0.00197238 0 0.0937558)
(-0.00177659 0 0.0748276)
(-0.00189739 0 0.0810306)
(-0.00164359 0 0.0628421)
(-0.00177591 0 0.0686534)
(-0.00149892 0 0.0516735)
(-0.00163273 0 0.0569824)
(-0.001359 0 0.0415225)
(-0.0014874 0 0.0462728)
(-0.00123479 0 0.0324807)
(-0.00135355 0 0.036666)
(-0.00113278 0 0.0245479)
(-0.00123986 0 0.0281983)
(-0.00105631 0 0.01766)
(-0.0011514 0 0.0208273)
(-0.00100599 0 0.0117315)
(-0.00108802 0 0.0144613)
(-0.000978872 0 0.00634049)
(-0.0010434 0 0.00901232)
(-0.00103586 0 0.0037335)
(-0.000966294 0 0.108921)
(-0.00180294 0 0.114534)
(0.000287358 0 0.111364)
(-0.000310366 0 0.102401)
(0.00106204 0 0.13173)
(0.000870148 0 0.119593)
(0.00116815 0 0.147983)
(0.0013386 0 0.143527)
(0.00115433 0 0.147675)
(0.00118201 0 0.152369)
(0.00185226 0 0.135204)
(0.0013899 0 0.14271)
(0.00348448 0 0.128676)
(0.00266983 0 0.126864)
(0.00561803 0 0.14558)
(0.00479789 0 0.129156)
(0.00766201 0 0.181943)
(0.00717026 0 0.160525)
(0.00910815 0 0.22097)
(0.00902744 0 0.202117)
(0.0100829 0 0.256005)
(0.0102577 0 0.238947)
(0.0107845 0 0.292297)
(0.0113281 0 0.272444)
(0.0101877 0 0.336421)
(0.010664 0 0.312032)
(0.00904122 0 0.352711)
(0.0132832 0 0.3612)
(0.0186326 0 0.175901)
(0.00339348 0 0.341256)
(0.0263743 0 -0.210961)
(0.0423882 0 0.00531261)
(-0.0241747 0 -0.178878)
(0.000149884 0 -0.412522)
(-0.0167035 0 0.217265)
(-0.0391756 0 0.0693691)
(-0.00956801 0 0.357334)
(-0.0022712 0 0.360571)
(-0.0103317 0 0.325812)
(-0.0142868 0 0.351816)
(-0.0100542 0 0.289344)
(-0.00984891 0 0.304559)
(-0.0091717 0 0.263886)
(-0.0101995 0 0.274296)
(-0.00851476 0 0.244939)
(-0.00917163 0 0.253258)
(-0.00824134 0 0.22847)
(-0.00862858 0 0.236553)
(-0.00820383 0 0.209307)
(-0.00854274 0 0.220578)
(-0.00785443 0 0.178757)
(-0.00850952 0 0.198311)
(-0.00653717 0 0.13011)
(-0.00776437 0 0.159171)
(-0.0044782 0 0.0728621)
(-0.00582161 0 0.100502)
(-0.00278286 0 0.0356904)
(-0.00365855 0 0.0443304)
(-0.00174357 0 0.0397289)
(-0.00235411 0 0.025753)
(-0.000881781 0 0.0742273)
(-0.00142911 0 0.0517715)
(-0.000291688 0 0.11158)
(-0.000548857 0 0.0946206)
(-0.000229251 0 0.13488)
(-0.000163717 0 0.127275)
(-0.000580834 0 0.143011)
(-0.000356546 0 0.142335)
(-0.00106889 0 0.141188)
(-0.000830166 0 0.144296)
(-0.00150234 0 0.133994)
(-0.00131971 0 0.138963)
(-0.00180779 0 0.123973)
(-0.00169896 0 0.129879)
(-0.00197748 0 0.112377)
(-0.00193701 0 0.118761)
(-0.00202994 0 0.0999281)
(-0.00204443 0 0.106494)
(-0.00199248 0 0.0871695)
(-0.00204656 0 0.0936802)
(-0.00189411 0 0.0745686)
(-0.00197292 0 0.0808219)
(-0.0017617 0 0.0625215)
(-0.00185241 0 0.0683588)
(-0.00161762 0 0.0513314)
(-0.00171022 0 0.0566461)
(-0.00147857 0 0.0411914)
(-0.00156613 0 0.0459323)
(-0.00135572 0 0.0321852)
(-0.00143391 0 0.0363504)
(-0.00125554 0 0.0243048)
(-0.00132225 0 0.0279285)
(-0.00118081 0 0.017479)
(-0.00123591 0 0.0206162)
(-0.00113104 0 0.0116136)
(-0.00117436 0 0.0143138)
(-0.00110266 0 0.00628003)
(-0.00113072 0 0.0089241)
(-0.00112029 0 0.00369877)
(-0.00113135 0 0.108023)
(-0.00202726 0 0.113599)
(0.000263135 0 0.110637)
(-0.000405775 0 0.101472)
(0.00115995 0 0.131392)
(0.000913886 0 0.118995)
(0.00135106 0 0.147914)
(0.0014808 0 0.1434)
(0.00140565 0 0.147407)
(0.00138504 0 0.152333)
(0.00219564 0 0.134377)
(0.00165673 0 0.142183)
(0.00398219 0 0.127354)
(0.00304833 0 0.125673)
(0.00632928 0 0.144112)
(0.00535921 0 0.127591)
(0.00858527 0 0.180707)
(0.00795473 0 0.159021)
(0.010207 0 0.2201)
(0.0099946 0 0.201036)
(0.0113064 0 0.255393)
(0.0113364 0 0.238215)
(0.0120928 0 0.292186)
(0.0126072 0 0.271919)
(0.0117084 0 0.3368)
(0.0118174 0 0.312288)
(0.0113001 0 0.349733)
(0.0148414 0 0.361472)
(0.0207265 0 0.170708)
(0.00629248 0 0.334972)
(0.0250683 0 -0.196358)
(0.0420834 0 0.00241811)
(-0.0234177 0 -0.164384)
(-0.000149078 0 -0.380198)
(-0.0182977 0 0.212714)
(-0.0387725 0 0.0659557)
(-0.0109351 0 0.355038)
(-0.0042346 0 0.355663)
(-0.0112496 0 0.325799)
(-0.0150889 0 0.352026)
(-0.0109017 0 0.288799)
(-0.010482 0 0.304275)
(-0.00998397 0 0.263175)
(-0.0109803 0 0.273511)
(-0.00927753 0 0.244479)
(-0.00982347 0 0.252624)
(-0.00895416 0 0.228282)
(-0.00925332 0 0.236248)
(-0.0088549 0 0.209049)
(-0.00913263 0 0.22048)
(-0.00841648 0 0.17779)
(-0.00903028 0 0.197857)
(-0.007021 0 0.128171)
(-0.00819715 0 0.157655)
(-0.00493212 0 0.0706478)
(-0.00620854 0 0.0981206)
(-0.00317917 0 0.0339741)
(-0.00402762 0 0.0422339)
(-0.00202376 0 0.0384391)
(-0.0026353 0 0.0243035)
(-0.0010669 0 0.0732)
(-0.0016013 0 0.0505122)
(-0.000410389 0 0.111094)
(-0.000656175 0 0.0937143)
(-0.000295729 0 0.135079)
(-0.000217617 0 0.127109)
(-0.00061508 0 0.143653)
(-0.00036744 0 0.14282)
(-0.00109156 0 0.141932)
(-0.000821201 0 0.145055)
(-0.00152501 0 0.134622)
(-0.00130679 0 0.139688)
(-0.00183383 0 0.124394)
(-0.00168783 0 0.13042)
(-0.00200666 0 0.112581)
(-0.00192807 0 0.119079)
(-0.00206128 0 0.0999382)
(-0.00203679 0 0.1066)
(-0.00202538 0 0.087025)
(-0.00203953 0 0.0936077)
(-0.0019284 0 0.0743153)
(-0.00196636 0 0.0806163)
(-0.00179752 0 0.0622054)
(-0.00184656 0 0.0680677)
(-0.0016552 0 0.0509933)
(-0.00170547 0 0.056314)
(-0.00151821 0 0.0408648)
(-0.00156285 0 0.045597)
(-0.00139769 0 0.0318947)
(-0.00143251 0 0.036041)
(-0.00129998 0 0.024067)
(-0.00132301 0 0.0276653)
(-0.00122741 0 0.0173019)
(-0.00123878 0 0.0204112)
(-0.00117888 0 0.0114965)
(-0.00117902 0 0.0141701)
(-0.00115067 0 0.00621842)
(-0.00113676 0 0.00883646)
(-0.00112499 0 0.0036637)
(-0.00128891 0 0.107049)
(-0.00223944 0 0.112599)
(0.000234738 0 0.10983)
(-0.000498957 0 0.100456)
(0.00124345 0 0.130997)
(0.000946009 0 0.118323)
(0.00151276 0 0.14781)
(0.00160159 0 0.14322)
(0.00163017 0 0.147102)
(0.00156197 0 0.152254)
(0.00250311 0 0.133479)
(0.00189279 0 0.141601)
(0.00442769 0 0.125917)
(0.00338657 0 0.12439)
(0.00696359 0 0.142509)
(0.0058596 0 0.125901)
(0.00940474 0 0.179353)
(0.00864998 0 0.157394)
(0.0111781 0 0.219147)
(0.0108535 0 0.199853)
(0.0123853 0 0.254732)
(0.012277 0 0.23741)
(0.0132346 0 0.292008)
(0.0137279 0 0.271353)
(0.0130282 0 0.336934)
(0.0128266 0 0.312426)
(0.0131694 0 0.34668)
(0.0161032 0 0.361378)
(0.0222354 0 0.166679)
(0.00880075 0 0.328928)
(0.0237918 0 -0.181501)
(0.0411942 0 0.00138053)
(-0.0222454 0 -0.149937)
(-0.000160417 0 -0.349507)
(-0.0192412 0 0.208901)
(-0.0376459 0 0.0639529)
(-0.0119047 0 0.352621)
(-0.00586603 0 0.350772)
(-0.0118844 0 0.325675)
(-0.0155224 0 0.352012)
(-0.0114901 0 0.288242)
(-0.0108975 0 0.303953)
(-0.0105549 0 0.262452)
(-0.0115068 0 0.272711)
(-0.00981168 0 0.243995)
(-0.010243 0 0.251956)
(-0.009453 0 0.228063)
(-0.00966716 0 0.23591)
(-0.00930884 0 0.208741)
(-0.00952258 0 0.220338)
(-0.00880245 0 0.176759)
(-0.00936828 0 0.197332)
(-0.00734906 0 0.126187)
(-0.0084658 0 0.156075)
(-0.00523975 0 0.0683843)
(-0.00644354 0 0.0957157)
(-0.00344073 0 0.0321507)
(-0.00424933 0 0.0400823)
(-0.00219295 0 0.0370167)
(-0.00278508 0 0.022738)
(-0.00116117 0 0.0720674)
(-0.00166818 0 0.0491544)
(-0.000451673 0 0.110529)
(-0.000676564 0 0.0927349)
(-0.000292939 0 0.135222)
(-0.000196061 0 0.126879)
(-0.000583121 0 0.144269)
(-0.000308759 0 0.143261)
(-0.00104726 0 0.142675)
(-0.00074309 0 0.145795)
(-0.0014782 0 0.135258)
(-0.00122277 0 0.140408)
(-0.00178746 0 0.124827)
(-0.00160311 0 0.130963)
(-0.00196062 0 0.112795)
(-0.00184315 0 0.119397)
(-0.00201501 0 0.0999555)
(-0.00195096 0 0.106705)
(-0.00197871 0 0.0868863)
(-0.00195236 0 0.0935345)
(-0.0018816 0 0.0740675)
(-0.00187799 0 0.0804105)
(-0.00175107 0 0.0618948)
(-0.00175747 0 0.0677773)
(-0.00160962 0 0.0506614)
(-0.00161627 0 0.055984)
(-0.00147396 0 0.0405449)
(-0.00147414 0 0.0452649)
(-0.00135516 0 0.0316116)
(-0.00134479 0 0.035736)
(-0.00125935 0 0.0238364)
(-0.00123664 0 0.0274073)
(-0.00118847 0 0.0171304)
(-0.00115377 0 0.020211)
(-0.00114106 0 0.0113827)
(-0.00109519 0 0.0140296)
(-0.00111335 0 0.00615819)
(-0.00105405 0 0.00875035)
(-0.00104126 0 0.00362908)
(-0.0014395 0 0.106006)
(-0.00244327 0 0.111538)
(0.000203024 0 0.108948)
(-0.000589901 0 0.0993608)
(0.00131133 0 0.130544)
(0.000967209 0 0.117584)
(0.00164892 0 0.147663)
(0.00169913 0 0.142995)
(0.00182208 0 0.146753)
(0.00170798 0 0.152139)
(0.00277157 0 0.132514)
(0.00209286 0 0.140968)
(0.00482259 0 0.124378)
(0.00368292 0 0.123022)
(0.00752679 0 0.14079)
(0.00630325 0 0.124098)
(0.0101291 0 0.177896)
(0.00926344 0 0.155659)
(0.0120309 0 0.218116)
(0.0116127 0 0.198585)
(0.0133267 0 0.254026)
(0.0130914 0 0.236546)
(0.0142134 0 0.291765)
(0.0146924 0 0.270762)
(0.0141378 0 0.336861)
(0.013694 0 0.312476)
(0.0146835 0 0.343615)
(0.0170903 0 0.361014)
(0.0232648 0 0.163631)
(0.0109249 0 0.323207)
(0.0225937 0 -0.16668)
(0.0399574 0 0.00182797)
(-0.0208226 0 -0.135683)
(5.17541e-06 0 -0.320562)
(-0.019693 0 0.20581)
(-0.0360611 0 0.0631999)
(-0.0125585 0 0.350149)
(-0.00722018 0 0.346016)
(-0.0122579 0 0.325447)
(-0.0156492 0 0.351812)
(-0.0118334 0 0.287671)
(-0.0111079 0 0.303607)
(-0.0108958 0 0.261715)
(-0.0117892 0 0.271908)
(-0.0101303 0 0.243487)
(-0.0104451 0 0.251269)
(-0.00975194 0 0.227814)
(-0.00988104 0 0.235554)
(-0.00957852 0 0.208382)
(-0.00972323 0 0.220166)
(-0.00901992 0 0.175667)
(-0.00953245 0 0.196753)
(-0.00752022 0 0.124166)
(-0.00857423 0 0.154445)
(-0.00539314 0 0.0660887)
(-0.00652421 0 0.0932906)
(-0.00355562 0 0.0302579)
(-0.00431779 0 0.0378848)
(-0.00223785 0 0.0355088)
(-0.00279592 0 0.0210849)
(-0.00115404 0 0.0708653)
(-0.00162085 0 0.0477282)
(-0.000407876 0 0.109903)
(-0.000602125 0 0.0917049)
(-0.000214142 0 0.135311)
(-9.22397e-05 0 0.126598)
(-0.000478081 0 0.144849)
(-0.000173906 0 0.143661)
(-0.000929403 0 0.143401)
(-0.000589623 0 0.146514)
(-0.00135625 0 0.135888)
(-0.00106213 0 0.141122)
(-0.00166416 0 0.125257)
(-0.0014401 0 0.131503)
(-0.00183584 0 0.113005)
(-0.00167827 0 0.119713)
(-0.00188819 0 0.0999694)
(-0.00178349 0 0.106806)
(-0.00184975 0 0.0867451)
(-0.0017819 0 0.0934569)
(-0.00175088 0 0.0738184)
(-0.00170474 0 0.0802008)
(-0.00161921 0 0.0615846)
(-0.00158202 0 0.0674844)
(-0.00147731 0 0.0503314)
(-0.00143938 0 0.0556528)
(-0.00134181 0 0.0402283)
(-0.00129652 0 0.0449332)
(-0.00122365 0 0.0313326)
(-0.00116708 0 0.0354325)
(-0.00112872 0 0.02361)
(-0.00105926 0 0.0271516)
(-0.00105864 0 0.0169624)
(-0.000976819 0 0.020013)
(-0.00101173 0 0.0112711)
(-0.00091864 0 0.0138905)
(-0.000984205 0 0.00609886)
(-0.000878053 0 0.00866477)
(-0.000864228 0 0.00359456)
(-0.00158539 0 0.104894)
(-0.00264269 0 0.110416)
(0.000165999 0 0.107998)
(-0.000681698 0 0.0981932)
(0.00136096 0 0.130037)
(0.000975203 0 0.116787)
(0.0017563 0 0.147474)
(0.00177139 0 0.142731)
(0.00197866 0 0.146358)
(0.00182066 0 0.151991)
(0.00300043 0 0.131481)
(0.00225502 0 0.140287)
(0.00516902 0 0.122746)
(0.00393707 0 0.121576)
(0.00802354 0 0.138969)
(0.00669259 0 0.122195)
(0.0107653 0 0.17635)
(0.00980022 0 0.153831)
(0.0127735 0 0.217017)
(0.0122789 0 0.197247)
(0.0141379 0 0.253282)
(0.0137912 0 0.235636)
(0.0150377 0 0.291474)
(0.0155082 0 0.270162)
(0.0150485 0 0.336629)
(0.0144285 0 0.312469)
(0.0158921 0 0.340603)
(0.0178332 0 0.360452)
(0.0239219 0 0.161407)
(0.0126988 0 0.317854)
(0.0214834 0 -0.152095)
(0.0385433 0 0.00345371)
(-0.0193161 0 -0.121731)
(0.000246781 0 -0.293363)
(-0.0197951 0 0.203393)
(-0.0342379 0 0.0635193)
(-0.0129617 0 0.34767)
(-0.00831924 0 0.34146)
(-0.0123992 0 0.32512)
(-0.015517 0 0.351437)
(-0.0119495 0 0.287087)
(-0.0111266 0 0.30324)
(-0.0110191 0 0.26097)
(-0.0118408 0 0.271112)
(-0.0102448 0 0.242963)
(-0.0104432 0 0.250574)
(-0.0098609 0 0.227543)
(-0.00990345 0 0.235193)
(-0.00967131 0 0.207983)
(-0.00974211 0 0.219979)
(-0.00907239 0 0.174525)
(-0.00952785 0 0.196132)
(-0.00753414 0 0.122112)
(-0.00852436 0 0.152773)
(-0.00539121 0 0.0637649)
(-0.0064516 0 0.0908475)
(-0.00352328 0 0.0283112)
(-0.00423669 0 0.0356509)
(-0.00215574 0 0.0339415)
(-0.00267176 0 0.0193694)
(-0.00104032 0 0.0696197)
(-0.00145843 0 0.0462605)
(-0.000272642 0 0.109236)
(-0.000427448 0 0.0906453)
(-5.30831e-05 0 0.135358)
(0.000101309 0 0.126281)
(-0.00029428 0 0.145397)
(4.47206e-05 0 0.144028)
(-0.000732842 0 0.144108)
(-0.000354043 0 0.147213)
(-0.00115437 0 0.136508)
(-0.000819036 0 0.141826)
(-0.00145945 0 0.125679)
(-0.0011937 0 0.132037)
(-0.00162814 0 0.113208)
(-0.00142889 0 0.120023)
(-0.00167696 0 0.0999758)
(-0.00153032 0 0.1069)
(-0.0016349 0 0.0865968)
(-0.00152453 0 0.0933718)
(-0.00153284 0 0.0735636)
(-0.00144338 0 0.0799843)
(-0.0013987 0 0.0612703)
(-0.00131734 0 0.0671858)
(-0.00125511 0 0.0499989)
(-0.00117222 0 0.0553175)
(-0.00111867 0 0.0399108)
(-0.00102773 0 0.044599)
(-0.00100012 0 0.0310539)
(-0.000897377 0 0.035128)
(-0.00090512 0 0.0233842)
(-0.000789123 0 0.0268955)
(-0.000835023 0 0.0167949)
(-0.000706433 0 0.0198148)
(-0.000788007 0 0.0111594)
(-0.0006481 0 0.0137511)
(-0.000760336 0 0.00603936)
(-0.000607631 0 0.00857865)
(-0.000592894 0 0.00355976)
(-0.00173155 0 0.103717)
(-0.00284361 0 0.109234)
(0.000120043 0 0.106985)
(-0.000779824 0 0.0969588)
(0.00139037 0 0.129484)
(0.000967152 0 0.11594)
(0.00183362 0 0.147251)
(0.00181757 0 0.142436)
(0.00209872 0 0.145923)
(0.00189965 0 0.151814)
(0.00318862 0 0.130386)
(0.00237841 0 0.13956)
(0.00546696 0 0.121028)
(0.00414733 0 0.120057)
(0.00845648 0 0.137058)
(0.00702769 0 0.120202)
(0.0113195 0 0.174729)
(0.0102642 0 0.151922)
(0.0134146 0 0.215867)
(0.0128581 0 0.19585)
(0.0148283 0 0.252516)
(0.0143878 0 0.234694)
(0.0157208 0 0.291157)
(0.016186 0 0.269567)
(0.0157793 0 0.336289)
(0.0150427 0 0.31243)
(0.0168373 0 0.337695)
(0.0183691 0 0.359747)
(0.0243004 0 0.159894)
(0.0141742 0 0.312879)
(0.0204577 0 -0.137849)
(0.0370751 0 0.00601554)
(-0.0178373 0 -0.108151)
(0.000517392 0 -0.267833)
(-0.0196377 0 0.201575)
(-0.0323201 0 0.0647196)
(-0.0131346 0 0.345216)
(-0.00914934 0 0.337125)
(-0.0123285 0 0.324703)
(-0.015153 0 0.3509)
(-0.0118551 0 0.286496)
(-0.0109615 0 0.302854)
(-0.010937 0 0.260226)
(-0.0116752 0 0.270326)
(-0.0101645 0 0.242437)
(-0.0102483 0 0.249881)
(-0.00978648 0 0.227267)
(-0.00974066 0 0.234837)
(-0.00959147 0 0.207561)
(-0.00958356 0 0.219787)
(-0.00896263 0 0.173347)
(-0.00935616 0 0.195481)
(-0.00739438 0 0.120031)
(-0.00831757 0 0.151069)
(-0.00524146 0 0.061417)
(-0.00623148 0 0.0883931)
(-0.00335312 0 0.0263225)
(-0.00401758 0 0.0333927)
(-0.00195149 0 0.0323332)
(-0.00242335 0 0.0176112)
(-0.00081795 0 0.0683486)
(-0.00118429 0 0.0447689)
(-3.89095e-05 0 0.108543)
(-0.000148651 0 0.0895701)
(0.000199121 0 0.135375)
(0.000392532 0 0.125936)
(-2.33418e-05 0 0.14592)
(0.00035618 0 0.144366)
(-0.00045042 0 0.144802)
(-2.78636e-05 0 0.147893)
(-0.000866576 0 0.137122)
(-0.000486041 0 0.142522)
(-0.00116824 0 0.126095)
(-0.000857496 0 0.132566)
(-0.00133314 0 0.113403)
(-0.00108951 0 0.120326)
(-0.00137752 0 0.0999736)
(-0.00118682 0 0.106986)
(-0.00133091 0 0.0864398)
(-0.00117639 0 0.0932775)
(-0.00122476 0 0.073301)
(-0.0010908 0 0.0797589)
(-0.00108733 0 0.0609497)
(-0.000961032 0 0.0668797)
(-0.000941349 0 0.0496618)
(-0.00081309 0 0.0549765)
(-0.000803324 0 0.0395901)
(-0.000666684 0 0.0442608)
(-0.000683831 0 0.0307731)
(-0.000535164 0 0.0348208)
(-0.000588253 0 0.0231571)
(-0.000426242 0 0.0266378)
(-0.000517739 0 0.0166262)
(-0.000343117 0 0.0196153)
(-0.00047039 0 0.0110468)
(-0.000284521 0 0.0136105)
(-0.0004425 0 0.00597919)
(-0.000244098 0 0.0084918)
(-0.0002288 0 0.0035247)
(-0.00188472 0 0.102477)
(-0.00305349 0 0.107994)
(6.25841e-05 0 0.105916)
(-0.000890227 0 0.0956606)
(0.00139832 0 0.128893)
(0.000940903 0 0.115049)
(0.00188113 0 0.147)
(0.00183775 0 0.142114)
(0.00218216 0 0.145453)
(0.0019457 0 0.151613)
(0.00333446 0 0.129234)
(0.00246237 0 0.138792)
(0.00571459 0 0.119233)
(0.00431103 0 0.118471)
(0.00882678 0 0.135067)
(0.00730779 0 0.118127)
(0.0117965 0 0.173044)
(0.0106593 0 0.149942)
(0.0139623 0 0.214677)
(0.013356 0 0.194406)
(0.015408 0 0.251743)
(0.0148919 0 0.23373)
(0.0162774 0 0.290837)
(0.0167379 0 0.268987)
(0.0163566 0 0.335881)
(0.015552 0 0.312377)
(0.0175763 0 0.334918)
(0.0187471 0 0.358934)
(0.0244949 0 0.158988)
(0.0154334 0 0.308266)
(0.019535 0 -0.123997)
(0.0356454 0 0.00932214)
(-0.0164162 0 -0.0949899)
(0.000831128 0 -0.243865)
(-0.0192643 0 0.200259)
(-0.0303666 0 0.0666184)
(-0.0130769 0 0.342796)
(-0.00969804 0 0.333)
(-0.0120541 0 0.324209)
(-0.0145736 0 0.350218)
(-0.0115609 0 0.285903)
(-0.0106156 0 0.302452)
(-0.0106593 0 0.259491)
(-0.0113037 0 0.269555)
(-0.00989693 0 0.24192)
(-0.00986947 0 0.249197)
(-0.00953298 0 0.226996)
(-0.00939779 0 0.234494)
(-0.00934025 0 0.207126)
(-0.00924985 0 0.219596)
(-0.00869103 0 0.172142)
(-0.00901663 0 0.194808)
(-0.00710493 0 0.117934)
(-0.00795431 0 0.149345)
(-0.00495448 0 0.0590565)
(-0.00587052 0 0.0859415)
(-0.0030584 0 0.0243065)
(-0.00367256 0 0.0311253)
(-0.00163375 0 0.030698)
(-0.00206151 0 0.0158241)
(-0.000488116 0 0.0670627)
(-0.000803047 0 0.0432616)
(0.00029826 0 0.107833)
(0.000235791 0 0.0884848)
(0.000550727 0 0.135368)
(0.000787126 0 0.125571)
(0.000343962 0 0.146423)
(0.000768193 0 0.14468)
(-7.33784e-05 0 0.145484)
(0.000397038 0 0.148558)
(-0.000485035 0 0.137728)
(-5.54238e-05 0 0.14321)
(-0.000783763 0 0.126505)
(-0.000424537 0 0.13309)
(-0.000945141 0 0.113591)
(-0.000654131 0 0.120623)
(-0.000985189 0 0.0999623)
(-0.000747936 0 0.107063)
(-0.000934077 0 0.0862736)
(-0.000733389 0 0.0931739)
(-0.000823885 0 0.07303)
(-0.000643833 0 0.0795249)
(-0.000683222 0 0.0606222)
(-0.000510755 0 0.0665664)
(-0.000534923 0 0.0493195)