/*--------------------------------*- C++ -*----------------------------------*\
  =========                 |
  \\      /  F ield         | OpenFOAM: The Open Source CFD Toolbox
   \\    /   O peration     | Website:  https://openfoam.org
    \\  /    A nd           | Version:  9
     \\/     M anipulation  |
\*---------------------------------------------------------------------------*/
FoamFile
{
    format      ascii;
    class       volScalarField;
    location    "0.06";
    object      alpha.water;
}
// * * * * * * * * * * * * * * * * * * * * * * * * * * * * * * * * * * * * * //

dimensions      [0 0 0 0 0 0 0];

internalField   nonuniform List<scalar> 
5000
(
5.81878e-22
5.7333e-18
2.43083e-16
6.15232e-15
4.61374e-14
5.18959e-13
9.77937e-12
2.20655e-10
4.67994e-09
2.25547e-07
2.85444e-05
0.000232205
0.000183547
0.643423
0.999957
0.999997
1
1
1
1
1
1
1
1
1
1
1
0.999997
0.999995
0.763231
0.0371355
0.000197684
0.000196588
3.42849e-05
2.61134e-06
5.22788e-07
1.08765e-07
2.5757e-08
6.09391e-09
1.29456e-09
3.10607e-10
1.73719e-10
1.49749e-10
1.17314e-10
8.11417e-11
5.10679e-11
3.00225e-11
1.64113e-11
8.87957e-12
2.93965e-12
4.57978e-21
7.45229e-18
2.64342e-16
5.86998e-15
5.6853e-14
5.10541e-13
9.83449e-12
2.10656e-10
4.52601e-09
4.80672e-07
2.77269e-05
7.37594e-05
9.84096e-05
0.574988
0.999758
0.999999
1
1
1
1
1
1
1
1
1
1
1
0.999997
0.999995
0.6559
0.00704329
0.000128401
0.000116663
6.60636e-05
4.23072e-06
6.01711e-07
1.15824e-07
2.77954e-08
7.23317e-09
1.66066e-09
3.10128e-10
1.84069e-10
1.69356e-10
1.43392e-10
1.08025e-10
7.30783e-11
4.596e-11
2.69665e-11
1.56208e-11
5.7609e-12
5.74898e-20
8.67864e-18
3.39782e-16
6.70088e-15
6.39999e-14
4.87524e-13
9.52629e-12
1.96728e-10
6.50899e-09
5.06e-07
2.9231e-05
0.000154383
0.00014955
0.441379
0.998217
0.999998
1
1
1
1
1
1
1
1
1
1
1
1
0.992253
0.439065
0.00105269
0.000101364
5.73368e-05
5.68603e-05
1.28234e-05
6.93332e-07
1.3646e-07
2.84791e-08
7.41446e-09
1.89532e-09
3.07136e-10
1.9943e-10
1.87673e-10
1.67429e-10
1.34424e-10
9.66553e-11
6.41895e-11
3.9704e-11
2.41684e-11
9.67001e-12
7.59509e-20
1.12782e-17
4.21518e-16
7.73307e-15
5.99668e-14
4.3645e-13
8.75901e-12
1.79366e-10
9.41913e-09
4.13979e-07
3.87e-05
0.000306068
0.000182665
0.25721
0.971205
0.999995
1
1
1
1
1
1
1
1
1
1
0.999997
0.999998
0.879417
0.20661
0.00054215
0.000385306
0.000105292
2.3086e-05
1.47995e-05
1.15007e-06
2.03725e-07
3.52332e-08
7.74948e-09
1.9804e-09
2.99597e-10
2.08068e-10
2.00266e-10
1.84776e-10
1.56327e-10
1.18937e-10
8.28825e-11
5.34412e-11
3.37736e-11
1.44227e-11
1.34507e-19
1.51326e-17
4.45705e-16
7.7332e-15
6.46589e-14
3.93951e-13
7.68107e-12
1.94294e-10
1.20804e-08
4.06436e-07
5.86124e-05
0.000304407
0.000119398
0.0964521
0.86265
0.99996
0.999994
0.999999
1
1
1
1
1
1
0.999999
0.999998
0.999994
0.999993
0.567986
0.0389484
0.000495199
0.00052159
0.000389562
2.3919e-05
1.02438e-05
1.38679e-06
2.54097e-07
5.49411e-08
9.8131e-09
2.14202e-09
2.93831e-10
2.07288e-10
2.00448e-10
1.92221e-10
1.71392e-10
1.37656e-10
1.00262e-10
6.69377e-11
4.35969e-11
1.96612e-11
2.1254e-19
1.65512e-17
4.26438e-16
8.02839e-15
7.59745e-14
3.62164e-13
6.90836e-12
2.45246e-10
1.66708e-08
4.42194e-07
5.9313e-05
0.000278775
6.98259e-05
0.0174725
0.580911
0.999261
0.999945
0.999993
0.999999
0.999999
0.999999
0.999999
0.999998
0.999995
0.99999
0.999991
0.999992
0.830312
0.1317
0.000264088
0.000365629
0.000271103
0.000392027
0.000123061
1.94934e-06
1.39524e-06
3.02769e-07
6.52466e-08
1.45972e-08
2.78767e-09
3.11587e-10
2.0378e-10
1.97743e-10
1.95356e-10
1.81893e-10
1.52921e-10
1.15506e-10
7.93243e-11
5.29858e-11
2.50368e-11
2.90868e-19
1.58867e-17
4.00217e-16
8.43588e-15
8.31054e-14
3.39338e-13
6.63042e-12
3.05889e-10
1.62466e-08
1.07279e-06
6.17518e-05
5.34311e-05
6.28705e-05
6.98259e-05
0.200681
0.877955
0.999925
0.99996
0.999985
0.999993
0.999993
0.99999
0.999987
0.99996
0.999987
0.99999
0.902968
0.216342
0.000168085
8.53247e-06
9.53622e-05
4.07562e-05
0.0002145
0.000189845
1.18699e-05
8.47367e-07
2.76493e-07
6.23977e-08
1.66992e-08
3.97429e-09
4.12992e-10
2.05897e-10
1.99402e-10
2.00109e-10
1.90882e-10
1.6582e-10
1.28504e-10
9.0218e-11
6.15886e-11
3.03088e-11
3.12684e-19
1.42304e-17
3.81912e-16
8.26696e-15
7.83579e-14
3.22025e-13
6.88796e-12
3.0118e-10
9.39354e-09
1.80446e-06
4.75411e-05
4.55097e-05
4.64756e-05
0.000355608
0.000645918
0.379616
0.979417
0.999964
0.999975
0.999928
0.999938
0.999989
0.999988
0.999984
0.999986
0.817946
0.212806
0.000172003
2.57243e-06
4.29521e-07
3.64551e-06
1.05909e-05
5.15822e-05
0.000185862
4.86894e-05
3.46715e-07
2.61301e-07
6.24964e-08
1.59713e-08
4.21895e-09
5.97478e-10
2.11505e-10
2.05594e-10
2.08052e-10
2.00542e-10
1.76964e-10
1.39338e-10
9.9665e-11
6.93535e-11
3.51441e-11
2.94301e-19
1.13425e-17
3.52721e-16
7.08355e-15
5.34267e-14
2.9123e-13
6.59477e-12
2.18584e-10
3.89523e-09
3.5449e-06
4.48631e-05
4.53671e-05
0.000201107
0.000440216
9.37617e-05
0.00360316
0.394682
0.890389
0.999964
0.99994
0.999963
0.999988
0.989768
0.854951
0.54834
0.135174
0.000290081
8.95622e-06
4.56148e-07
3.74525e-08
2.14964e-06
4.38551e-05
7.41649e-05
0.000180924
9.18455e-05
4.23276e-07
2.9246e-07
6.08725e-08
1.42971e-08
3.96167e-09
6.52071e-10
2.167e-10
2.12566e-10
2.15088e-10
2.08959e-10
1.85357e-10
1.47369e-10
1.0709e-10
7.55265e-11
3.87908e-11
2.25502e-19
9.21899e-18
3.14772e-16
4.78349e-15
2.04117e-14
2.64057e-13
7.3148e-12
2.23528e-10
4.64444e-09
8.77641e-06
5.22097e-05
4.5583e-05
0.000267237
0.000263002
2.41113e-05
7.93344e-05
0.00122672
0.193401
0.496395
0.670186
0.661486
0.570486
0.357992
0.160872
0.0175498
0.000457193
0.000146352
4.34222e-07
5.62405e-08
3.03677e-08
3.11998e-08
5.11718e-05
8.5704e-05
0.000180024
8.79668e-05
3.67912e-07
2.91546e-07
5.64174e-08
1.2634e-08
3.4198e-09
6.01408e-10
2.16855e-10
2.14123e-10
2.16019e-10
2.11677e-10
1.91155e-10
1.54039e-10
1.13577e-10
8.126e-11
4.13055e-11
1.08256e-19
1.06596e-17
3.26369e-16
3.12148e-15
1.37482e-14
2.95065e-13
8.96158e-12
3.39524e-10
7.49524e-09
8.76164e-06
5.20013e-05
4.54805e-05
7.73454e-05
7.49378e-06
1.16342e-06
7.58486e-06
0.000135707
0.000465316
0.00477874
0.0187499
0.0154684
0.00748007
0.000697219
0.000349931
0.000145256
9.00781e-05
8.47707e-05
3.69933e-06
3.71807e-08
1.75948e-08
1.55602e-08
2.19218e-05
7.68641e-05
8.48759e-05
7.64066e-05
1.21274e-06
2.33673e-07
5.68866e-08
1.0452e-08
3.00995e-09
4.67629e-10
2.13239e-10
2.12723e-10
2.15803e-10
2.10983e-10
1.91842e-10
1.58563e-10
1.18968e-10
8.46382e-11
4.07136e-11
6.58838e-20
1.70622e-17
3.83245e-16
2.08354e-15
1.26673e-14
3.12278e-13
8.90788e-12
3.39744e-10
3.19009e-08
6.16537e-06
4.28501e-05
9.12817e-05
6.26306e-06
1.16371e-06
4.34218e-07
1.20671e-06
1.67309e-05
5.15328e-05
6.71959e-05
8.61276e-05
7.12479e-05
4.87983e-05
3.12471e-05
2.01476e-05
1.4175e-05
6.69754e-06
1.54613e-06
9.37038e-07
6.69335e-08
1.05466e-08
9.38622e-09
9.9049e-06
7.54778e-05
5.86363e-05
3.51743e-05
3.95892e-07
8.92094e-08
6.99342e-08
1.03663e-08
2.731e-09
3.46935e-10
2.0892e-10
2.09661e-10
2.14028e-10
2.09088e-10
1.90834e-10
1.57906e-10
1.18525e-10
8.37866e-11
3.85476e-11
1.68254e-19
2.95681e-17
3.86781e-16
1.01598e-15
1.32394e-14
3.74367e-13
1.13755e-11
3.8283e-10
3.83967e-07
1.06639e-05
2.02936e-05
9.65972e-05
3.46321e-05
2.94015e-06
4.07928e-07
4.1663e-07
9.34225e-07
2.72099e-06
4.74733e-06
7.09835e-06
6.76176e-06
4.49283e-06
1.74336e-06
1.19998e-06
5.22318e-07
2.63502e-07
2.29084e-07
4.06625e-08
1.42634e-08
6.32734e-09
5.89887e-09
9.85067e-06
7.74086e-05
7.63223e-05
4.80138e-06
4.43665e-07
2.13602e-08
7.48561e-08
1.39032e-08
2.22646e-09
2.94534e-10
2.05478e-10
2.05854e-10
2.10319e-10
2.06166e-10
1.88432e-10
1.55352e-10
1.16097e-10
8.09903e-11
3.50042e-11
6.11686e-19
4.22862e-17
3.50099e-16
8.12776e-16
1.49981e-14
4.68203e-13
1.54843e-11
1.73688e-11
4.89166e-07
2.9577e-05
3.30665e-05
9.65269e-05
7.66015e-05
9.27553e-06
3.87328e-07
3.85471e-07
4.09732e-07
5.55469e-07
9.82777e-07
2.8319e-06
4.48806e-06
2.13325e-06
2.33137e-07
6.74955e-08
3.47609e-08
2.05429e-08
6.25633e-09
4.33645e-09
4.15836e-09
4.21092e-09
4.34706e-09
3.73319e-06
7.81398e-05
7.81398e-05
5.78279e-06
6.8633e-08
1.70333e-08
7.47595e-08
1.51234e-08
1.21717e-09
2.46738e-10
2.03906e-10
2.03635e-10
2.06788e-10
2.02727e-10
1.8445e-10
1.50633e-10
1.11475e-10
7.59814e-11
2.97624e-11
1.57295e-18
5.29958e-17
2.87555e-16
8.13911e-16
2.00216e-14
6.53012e-13
1.86921e-11
1.77446e-11
5.67665e-07
2.5483e-05
5.94529e-05
6.50915e-05
7.5716e-05
1.28885e-05
3.85242e-07
3.85234e-07
3.8546e-07
4.04466e-07
5.26613e-07
3.67181e-06
6.83226e-06
4.33788e-06
1.13815e-07
1.2368e-08
7.22248e-09
5.21978e-09
4.19906e-09
4.15623e-09
4.15295e-09
4.15524e-09
4.15799e-09
5.4071e-09
4.60992e-05
7.81431e-05
3.58131e-05
1.70072e-08
1.56117e-08
5.98993e-08
1.46778e-08
3.48831e-10
2.08666e-10
2.03412e-10
2.03378e-10
2.04923e-10
1.99352e-10
1.78573e-10
1.42969e-10
1.0416e-10
6.85245e-11
2.30987e-11
2.88021e-18
6.95622e-17
2.46454e-16
9.07265e-16
2.90902e-14
9.3991e-13
1.76373e-11
2.37486e-11
4.36323e-06
1.32197e-05
5.78784e-05
1.5488e-05
7.45231e-05
1.0308e-05
3.85019e-07
3.85239e-07
3.85245e-07
9.22198e-07
1.91108e-05
2.56361e-05
2.28717e-05
2.4271e-06
1.27623e-08
7.2623e-09
5.19595e-09
4.18752e-09
4.15619e-09
4.15313e-09
4.15262e-09
4.15261e-09
4.1522e-09
4.62453e-09
1.1875e-05
7.81398e-05
7.79579e-05
1.50095e-06
9.84476e-09
7.31749e-09
1.53762e-08
3.51164e-10
2.03681e-10
2.03258e-10
2.03349e-10
2.0402e-10
1.95608e-10
1.70865e-10
1.33489e-10
9.55142e-11
5.92844e-11
1.5934e-11
4.17277e-18
1.16187e-16
3.93774e-16
1.39717e-15
3.90933e-14
1.17532e-12
1.20741e-12
4.3655e-08
4.89002e-06
2.77681e-06
5.25342e-05
1.5548e-05
7.25379e-05
8.01449e-06
3.85386e-07
3.85245e-07
3.85386e-07
4.71597e-06
2.61625e-05
2.57542e-05
3.86051e-06
5.42721e-08
1.55121e-07
2.38874e-07
4.24867e-08
4.19182e-09
4.15439e-09
4.15262e-09
4.15261e-09
4.15256e-09
4.15255e-09
4.28158e-09
3.20105e-06
7.79579e-05
7.77792e-05
1.87227e-05
4.51334e-09
2.52518e-09
1.39757e-08
2.40752e-10
2.03265e-10
2.03231e-10
2.03349e-10
2.03414e-10
1.91259e-10
1.61901e-10
1.23442e-10
8.65283e-11
4.88721e-11
9.40465e-12
6.71871e-18
2.45751e-16
1.08884e-15
3.40581e-15
5.04598e-14
8.09319e-13
8.22545e-13
1.18613e-07
9.19557e-07
1.0689e-06
7.34966e-06
2.48367e-05
7.06607e-05
4.58027e-06
3.86185e-07
3.85386e-07
2.44504e-06
9.25838e-06
2.61625e-05
1.28079e-06
3.0697e-08
2.99273e-08
3.70052e-07
2.27499e-06
1.93159e-06
1.64474e-07
4.17864e-09
4.15436e-09
4.15261e-09
4.15261e-09
4.1563e-09
9.0961e-09
1.29535e-08
4.74961e-05
7.77792e-05
3.96738e-05
2.52443e-09
1.567e-09
6.32942e-09
2.49941e-10
2.03231e-10
2.03231e-10
2.03471e-10
2.02963e-10
1.86192e-10
1.52828e-10
1.14865e-10
7.82222e-11
3.79414e-11
4.66163e-12
1.37706e-17
5.45433e-16
2.8531e-15
9.28593e-15
7.12767e-14
1.16073e-13
7.64712e-10
1.45744e-07
1.3712e-07
2.0866e-06
3.66144e-06
6.09811e-05
4.46814e-05
1.09681e-06
3.90448e-07
3.86172e-07
3.17103e-06
3.69958e-05
5.63614e-06
5.40081e-08
2.9929e-08
3.02013e-08
2.61366e-07
2.33771e-06
2.37575e-06
1.88521e-06
8.85892e-08
4.73609e-09
7.50774e-09
4.23827e-09
4.17903e-09
4.22671e-09
5.44494e-09
8.17327e-06
6.59434e-05
3.21522e-05
1.96447e-08
6.09844e-10
2.08623e-09
2.74637e-10
2.03235e-10
2.03231e-10
2.03947e-10
2.02847e-10
1.80991e-10
1.46001e-10
1.09323e-10
6.99074e-11
2.71858e-11
1.91406e-12
3.18884e-17
1.13739e-15
6.26789e-15
2.15416e-14
1.42601e-13
3.02778e-12
1.2445e-09
8.74928e-08
1.46975e-07
9.38935e-06
7.84996e-06
6.11154e-05
1.4696e-05
4.00481e-07
3.97528e-07
3.90448e-07
3.97533e-07
7.87449e-05
7.24351e-06
9.4446e-07
3.11314e-08
2.99289e-08
3.11314e-08
5.08335e-07
2.37107e-06
2.37279e-06
7.79041e-07
8.818e-09
9.45723e-09
4.33031e-09
4.22628e-09
4.38396e-09
2.7314e-05
5.19797e-06
7.98444e-06
1.046e-05
1.20723e-07
3.01288e-10
3.25404e-10
2.52334e-10
2.03284e-10
2.03336e-10
2.05224e-10
2.03076e-10
1.77617e-10
1.44314e-10
1.06117e-10
5.93506e-11
1.7292e-11
5.88595e-13
7.06357e-17
2.14721e-15
1.19255e-14
4.11457e-14
3.11092e-13
2.40323e-11
1.80547e-09
3.82038e-09
6.77208e-08
1.66272e-05
2.20598e-05
6.11194e-05
1.46192e-05
4.41554e-07
4.00455e-07
3.97479e-07
0.000147331
8.70962e-05
3.57467e-06
9.14914e-07
5.04877e-08
3.3136e-08
3.40577e-08
3.62712e-08
1.58848e-06
2.37253e-06
1.81274e-06
8.19826e-08
5.49293e-09
4.53608e-09
4.38403e-09
7.78438e-06
3.88275e-05
4.7773e-06
2.58274e-06
1.48029e-06
8.59952e-07
2.58592e-10
2.16088e-10
2.14284e-10
2.03316e-10
2.04649e-10
2.07511e-10
2.03325e-10
1.7881e-10
1.48653e-10
9.98669e-11
4.50178e-11
9.24712e-12
8.22315e-14
1.3881e-16
3.62342e-15
2.01824e-14
6.95508e-14
5.86337e-13
4.1548e-11
1.49987e-09
1.51824e-09
1.26788e-06
7.70662e-06
2.02137e-05
6.11194e-05
1.68062e-05
4.92271e-07
4.03842e-07
0.000263994
0.000363767
8.83333e-05
9.71522e-07
9.41603e-07
1.64732e-06
1.85317e-06
3.45449e-07
3.6272e-08
1.41242e-07
2.35208e-06
2.35205e-06
3.63761e-07
5.28095e-09
4.78468e-09
5.09491e-09
3.48269e-05
3.91067e-05
1.49306e-05
3.08072e-06
1.96484e-06
1.5747e-06
2.66311e-10
2.41052e-10
2.40094e-10
2.03334e-10
2.05009e-10
2.09527e-10
2.05231e-10
1.84202e-10
1.48534e-10
8.5256e-11
2.84594e-11
3.95004e-12
3.96716e-15
2.37926e-16
5.45754e-15
3.09082e-14
1.07751e-13
9.13596e-13
3.5024e-11
6.67201e-10
1.50668e-08
1.87848e-06
5.83083e-07
6.58478e-06
6.11194e-05
1.41585e-05
3.1657e-06
0.00018858
0.000367262
0.000364982
7.69702e-05
1.00728e-06
9.71526e-07
3.08915e-06
3.10104e-06
2.51567e-06
2.08617e-07
2.81131e-08
1.2424e-06
2.09296e-06
3.45224e-07
6.01113e-09
5.28103e-09
1.08654e-06
3.91067e-05
3.91944e-05
3.67256e-05
3.57821e-06
4.66379e-06
1.64668e-06
2.89055e-10
2.96681e-10
4.19529e-10
2.03406e-10
2.03843e-10
2.15118e-10
2.16555e-10
1.98806e-10
1.37439e-10
6.04989e-11
1.40831e-11
1.27944e-12
2.18805e-16
3.55543e-16
7.34006e-15
4.35165e-14
1.51347e-13
1.03547e-12
2.47135e-11
1.70246e-11
3.33283e-08
1.39755e-06
2.79169e-07
7.03063e-07
6.10001e-05
9.73656e-06
9.68599e-06
0.000366555
0.000367695
0.0003677
2.24599e-05
2.14633e-06
2.04677e-06
3.10015e-06
3.10445e-06
3.10015e-06
8.11812e-07
1.43061e-08
1.44276e-08
2.67404e-07
2.31324e-07
9.61848e-09
6.01113e-09
2.84839e-06
3.91616e-05
3.91944e-05
2.65358e-05
3.75699e-06
4.67139e-06
1.87032e-06
2.98607e-10
3.65057e-10
5.47843e-10
2.03899e-10
2.09161e-10
2.43636e-10
2.40333e-10
1.92594e-10
1.05998e-10
3.3025e-11
5.21818e-12
2.99756e-13
-9.73632e-19
4.59331e-16
8.66857e-15
5.61443e-14
1.93647e-13
8.6949e-13
3.44802e-12
1.62807e-10
1.11631e-07
1.24257e-07
1.89888e-07
1.33968e-05
5.62139e-05
8.80284e-06
2.19492e-05
0.000367695
0.000367842
0.000169717
2.6217e-06
2.41469e-06
2.89303e-06
3.08708e-06
3.09921e-06
1.92294e-06
2.34979e-07
2.76828e-09
1.87907e-09
2.64912e-09
4.8467e-08
1.45931e-08
7.49105e-09
6.38013e-06
3.91555e-05
3.91944e-05
4.95674e-06
4.80504e-06
4.69913e-06
1.56127e-06
2.81745e-10
4.12903e-10
5.4788e-10
2.14403e-10
2.21858e-10
2.64671e-10
2.61124e-10
1.62096e-10
6.05018e-11
1.31597e-11
1.41813e-12
4.74473e-14
-2.78619e-19
5.11841e-16
9.07885e-15
6.58212e-14
2.26219e-13
5.94017e-13
4.95604e-13
1.40402e-09
1.1079e-07
3.26514e-08
2.00616e-07
5.17562e-05
9.90034e-06
8.86986e-06
0.000254199
0.000367842
0.000367695
6.24861e-05
3.02079e-06
2.93464e-06
4.43287e-06
1.52398e-06
1.68386e-07
2.413e-09
2.60243e-09
2.02172e-09
1.79228e-09
1.84227e-09
2.61594e-09
6.13039e-09
6.43822e-09
1.15693e-05
3.89798e-05
2.99464e-05
3.68396e-07
3.39893e-06
4.67139e-06
6.45985e-07
2.6311e-10
4.049e-10
5.47898e-10
2.20564e-10
2.49704e-10
2.64671e-10
2.53961e-10
1.04895e-10
2.37045e-11
3.74267e-12
2.84292e-13
5.28502e-15
-7.30429e-20
5.15232e-16
8.96187e-15
6.96043e-14
2.51176e-13
3.6745e-13
3.81065e-13
2.69018e-09
4.45559e-08
9.92359e-09
1.36751e-06
5.21162e-05
1.01961e-05
1.1271e-05
0.000367626
0.000367729
0.000294728
8.77962e-06
5.14866e-06
1.3194e-05
4.54331e-06
9.94678e-09
2.41137e-09
1.83655e-09
1.79911e-09
1.79232e-09
1.79055e-09
1.79753e-09
1.79149e-09
1.96678e-09
2.63609e-07
2.18593e-05
3.8843e-05
4.26548e-06
1.45158e-07
2.71531e-06
4.61706e-06
9.78541e-11
2.37737e-10
4.16719e-10
4.96349e-10
2.28169e-10
2.66826e-10
2.65937e-10
2.10139e-10
4.54808e-11
6.10261e-12
7.7678e-13
4.12933e-14
5.75827e-16
-1.81495e-20
5.05921e-16
8.5514e-15
6.89633e-14
2.70192e-13
2.69502e-13
2.97353e-11
3.54491e-09
2.8833e-09
4.45758e-09
3.93062e-06
5.2157e-05
2.36862e-05
1.56057e-05
0.000367435
0.000367617
0.000133936
1.25114e-05
1.69784e-05
1.33753e-05
1.51216e-06
3.61858e-08
1.98482e-08
2.3504e-09
1.79804e-09
1.79047e-09
1.79052e-09
1.78924e-09
1.7415e-09
1.79136e-09
3.56478e-06
2.34791e-05
2.54959e-05
1.03012e-07
6.16484e-08
1.00487e-06
1.16128e-06
1.17377e-10
2.48267e-10
3.27015e-10
3.58289e-10
2.47218e-10
2.68141e-10
2.56455e-10
1.16861e-10
1.20891e-11
1.12843e-12
1.31878e-13
5.41608e-15
7.7041e-17
-4.35333e-21
4.77998e-16
7.75028e-15
6.61138e-14
2.81528e-13
2.74591e-13
7.90313e-11
3.40573e-09
1.40224e-09
2.78378e-09
3.68102e-06
5.21387e-05
4.41292e-05
2.28475e-05
0.000347811
0.000367431
8.70944e-05
3.06651e-05
1.65427e-05
1.30528e-07
1.14477e-07
1.66468e-07
4.13446e-07
2.24918e-07
7.21512e-09
1.79645e-09
1.78049e-09
1.77412e-09
1.74278e-09
1.74087e-09
1.65866e-06
2.16511e-05
1.19935e-06
3.07536e-08
2.51372e-08
4.66138e-08
5.1202e-09
2.34442e-10
2.61146e-10
2.79047e-10
2.99708e-10
2.80621e-10
2.67173e-10
1.90954e-10
3.91543e-11
1.82506e-12
2.02198e-13
2.17716e-14
8.52172e-16
1.12769e-17
-1.01855e-21
4.22776e-16
6.63582e-15
5.99475e-14
2.84471e-13
4.66772e-13
1.00061e-10
2.11785e-09
9.79363e-10
1.33728e-09
2.57772e-06
5.2157e-05
1.30599e-05
8.13852e-05
0.000344733
0.000282836
4.64743e-05
1.32304e-05
1.333e-07
1.14404e-07
1.13687e-07
3.11593e-07
4.79787e-07
4.79174e-07
9.75602e-08
1.88705e-09
1.79458e-09
1.76567e-09
1.74278e-09
5.78837e-07
6.97926e-06
5.99027e-06
2.53003e-08
6.13822e-09
5.78668e-09
1.33031e-08
1.10633e-09
2.70669e-10
2.71222e-10
2.92115e-10
3.09817e-10
2.81693e-10
2.25326e-10
8.74411e-11
7.94295e-12
2.60333e-13
4.40818e-14
4.05589e-15
1.51426e-16
1.33358e-18
-2.33964e-22
3.49012e-16
5.59338e-15
5.30859e-14
2.82856e-13
1.08696e-12
9.36887e-11
8.92331e-10
7.46416e-10
7.76367e-10
5.86935e-07
5.21387e-05
3.25074e-06
6.63865e-05
0.000339685
0.000148396
4.43068e-05
3.6334e-07
2.36332e-07
1.38761e-07
1.13679e-07
1.13834e-07
4.52793e-07
4.79787e-07
1.99521e-07
1.98354e-09
1.81635e-09
1.79477e-09
1.78542e-09
2.77805e-06
1.01791e-05
2.26717e-07
5.54207e-09
1.73873e-09
1.99845e-09
3.69462e-09
5.8829e-10
2.89094e-10
2.90564e-10
3.22483e-10
3.18066e-10
2.43423e-10
1.31857e-10
2.50586e-11
9.98088e-13
6.48987e-14
1.05469e-14
8.27046e-16
2.83633e-17
9.47844e-20
-5.29843e-23
2.87136e-16
5.09251e-15
4.87589e-14
2.80553e-13
1.61878e-12
7.79263e-11
4.91188e-10
3.61733e-10
4.63359e-10
8.01443e-06
3.09835e-05
2.62426e-06
4.36352e-05
0.000333823
0.000214802
1.52087e-05
7.30252e-07
3.47109e-07
1.90099e-06
1.28445e-06
1.13724e-07
3.00001e-07
4.79174e-07
2.9973e-07
3.77383e-09
1.82494e-09
1.81294e-09
1.82495e-09
1.39419e-06
1.01791e-05
3.75083e-07
1.42744e-09
7.06779e-10
9.87822e-10
1.20445e-09
3.95115e-10
3.08633e-10
3.08377e-10
3.22716e-10
2.98231e-10
1.53533e-10
5.14864e-11
4.79343e-12
1.41894e-13
1.82975e-14
2.39641e-15
1.64624e-16
5.30816e-18
1.37192e-20
-1.18637e-23
2.71446e-16
5.13491e-15
4.78456e-14
2.76866e-13
1.80686e-12
5.83651e-11
3.4072e-10
2.38149e-10
3.02875e-10
2.28418e-05
2.70358e-06
2.62426e-06
8.97322e-05
0.000330802
0.000238083
1.10847e-05
1.90418e-06
6.82866e-06
6.97395e-06
1.8835e-06
2.22582e-08
1.00192e-07
4.7494e-07
2.9132e-07
3.71371e-09
2.05763e-09
1.82493e-09
1.16522e-06
1.58381e-05
8.50003e-06
2.69034e-09
6.92715e-10
4.89441e-10
6.63443e-10
6.88903e-10
3.65461e-10
3.44684e-10
3.36797e-10
3.11075e-10
1.99758e-10
6.79131e-11
1.41943e-11
7.63246e-13
3.4575e-14
4.5895e-15
5.15311e-16
3.28838e-17
9.48077e-19
3.27149e-21
-2.63164e-24
2.84221e-16
5.51936e-15
4.86183e-14
2.72051e-13
1.78534e-12
4.11636e-11
2.31693e-10
1.89763e-10
1.92156e-07
2.30834e-05
1.70561e-05
2.40492e-06
8.92207e-05
0.000327623
0.000324764
7.83145e-05
2.69383e-05
1.781e-05
3.07155e-06
1.89692e-08
1.22405e-08
1.17001e-08
3.68914e-07
2.22194e-07
3.98245e-09
2.30049e-09
2.24061e-09
3.36454e-06
2.07776e-05
5.52549e-06
8.80077e-10
4.29532e-10
4.4315e-10
5.60101e-10
5.16825e-10
3.78497e-10
3.68054e-10
3.29386e-10
2.30324e-10
8.89474e-11
2.28787e-11
3.15099e-12
1.28512e-13
9.23661e-15
1.04737e-15
1.09666e-16
6.82568e-18
1.91035e-19
6.89778e-22
-5.79102e-25
3.45078e-16
6.74666e-15
5.20343e-14
2.70762e-13
1.68373e-12
2.78301e-11
1.49443e-10
1.30843e-10
1.44243e-07
2.34272e-05
2.36763e-05
2.28486e-06
4.74617e-05
0.000327016
0.000327916
0.000192882
3.34002e-05
1.28279e-06
7.54393e-08
2.26545e-08
1.17001e-08
1.15421e-08
2.57312e-08
5.66917e-08
7.10761e-09
4.19023e-09
3.56477e-09
4.33171e-06
2.11536e-05
6.47439e-06
4.29979e-10
3.13495e-10
4.28685e-10
5.17599e-10
4.78988e-10
3.89313e-10
3.56089e-10
2.56996e-10
1.13732e-10
3.09283e-11
6.5599e-12
6.33885e-13
2.65499e-14
2.24261e-15
2.3292e-16
2.38552e-17
1.4141e-18
4.29354e-20
1.44944e-22
-1.26522e-25
5.20329e-16
9.65467e-15
6.10321e-14
2.74285e-13
1.50369e-12
1.846e-11
9.75722e-11
7.28427e-11
1.90543e-08
2.35306e-05
2.35038e-05
1.76313e-06
0.000122836
0.000327723
0.000327918
0.000166931
8.41912e-07
4.29077e-07
4.78169e-07
4.61554e-07
4.26335e-08
8.60392e-09
6.21932e-09
5.6206e-09
5.90261e-09
4.32783e-09
1.17583e-06
1.91684e-05
2.15927e-05
1.05263e-05
2.78338e-10
2.7203e-10
4.29254e-10
5.07504e-10
4.66906e-10
3.75509e-10
2.84291e-10
1.39751e-10
4.18067e-11
9.83642e-12
1.70586e-12
1.24034e-13
6.31039e-15
5.06395e-16
5.28224e-17
5.25701e-18
2.81287e-19
9.25234e-21
3.03478e-23
-2.74603e-26
9.10111e-16
1.52597e-14
7.97075e-14
2.88545e-13
1.27736e-12
1.23041e-11
6.72315e-11
4.10963e-11
7.53619e-11
1.39974e-05
2.23749e-05
1.40774e-06
0.000245468
0.000327383
0.000327723
8.63673e-05
4.28586e-07
2.90707e-07
4.39534e-07
6.40894e-06
2.49497e-06
1.59503e-08
5.58449e-09
5.4147e-09
5.29388e-09
6.94869e-09
2.29916e-06
2.22647e-05
2.20178e-05
7.40861e-06
1.89112e-10
2.53999e-10
4.37983e-10
5.02722e-10
4.27303e-10
2.99629e-10
1.64831e-10
5.51901e-11
1.37396e-11
3.00628e-12
4.08022e-13
2.39872e-14
1.48299e-15
1.1255e-16
1.21866e-17
1.15186e-18
5.90661e-20
1.98316e-21
6.33041e-24
-5.9229e-27
1.65407e-15
2.5086e-14
1.13553e-13
3.24718e-13
1.08926e-12
8.13329e-12
4.38582e-11
2.52183e-11
4.11025e-11
2.76755e-06
3.93918e-06
1.33794e-06
0.000118576
0.000325383
0.000295152
2.65885e-05
2.90147e-07
2.32329e-07
2.29447e-07
9.09471e-06
6.76347e-06
3.47267e-07
5.32467e-09
5.28543e-09
5.29852e-09
8.16082e-09
7.47405e-06
2.22421e-05
2.22421e-05
3.69774e-07
1.64597e-10
2.29844e-10
4.50263e-10
4.83209e-10
3.32057e-10
1.85753e-10
7.16754e-11
1.88703e-11
4.49011e-12
8.58043e-13
9.13016e-14
4.87866e-15
3.34778e-16
2.57357e-17
2.79063e-18
2.48798e-19
1.32962e-20
4.23229e-22
1.31543e-24
-1.26984e-27
2.95552e-15
4.12493e-14
1.70547e-13
4.00619e-13
1.01701e-12
5.16823e-12
1.7207e-11
1.35396e-11
4.1658e-07
1.06982e-05
2.00855e-06
1.34831e-06
5.23985e-05
0.000319921
0.000158305
1.42494e-06
2.46329e-07
2.2945e-07
2.29053e-07
9.38881e-06
9.9464e-06
1.18697e-06
5.96189e-09
5.49741e-09
5.63698e-09
1.22667e-06
2.21404e-05
2.22948e-05
2.07665e-05
-2.96587e-10
1.4517e-10
2.79169e-10
4.42694e-10
4.14438e-10
2.07843e-10
9.08883e-11
2.66797e-11
6.36302e-12
1.42481e-12
2.24377e-13
1.95066e-14
1.093e-15
7.38472e-17
5.98868e-18
6.29807e-19
5.27376e-20
2.90937e-21
8.993e-23
2.72267e-25
-2.70654e-28
5.10607e-15
6.64499e-14
2.60945e-13
5.36674e-13
1.03041e-12
3.10744e-12
2.42739e-12
4.91146e-12
5.31169e-06
1.09493e-05
4.25992e-06
1.32552e-06
9.23372e-05
0.000313363
0.000109681
3.37688e-06
2.44399e-07
2.29083e-07
2.2944e-07
9.7645e-06
9.89534e-06
1.23541e-06
6.1434e-09
5.93202e-09
6.50159e-09
2.48609e-06
2.21437e-05
2.22359e-05
7.37418e-06
-1.45976e-09
1.53457e-10
2.86821e-10
4.18065e-10
2.8352e-10
1.04898e-10
3.79512e-11
9.48874e-12
2.13115e-12
4.21874e-13
5.41484e-14
3.99784e-15
2.48385e-16
1.64707e-17
1.3821e-18
1.40906e-19
1.12745e-20
6.33466e-22
1.90278e-23
5.61483e-26
-5.73571e-29
8.51282e-15
1.03733e-13
3.95187e-13
7.48266e-13
1.08456e-12
1.67849e-12
1.62869e-12
2.42697e-12
4.7169e-06
1.09417e-05
2.68063e-06
1.33403e-06
0.000218266
0.000309715
9.03162e-05
5.11136e-06
2.41068e-07
2.26151e-07
2.2944e-07
9.86376e-06
9.94198e-06
9.36583e-07
7.19937e-09
7.48913e-09
2.74938e-07
1.66554e-05
2.19407e-05
2.20845e-05
9.63995e-08
1.30242e-10
1.42811e-10
2.86025e-10
3.53804e-10
1.49847e-10
4.56841e-11
1.46741e-11
3.2914e-12
6.80349e-13
1.1498e-13
1.23291e-14
8.22249e-16
5.53612e-17
3.77666e-18
3.14925e-19
3.12447e-20
2.50604e-21
1.37257e-22
4.00958e-24
1.15304e-26
-1.20873e-29
1.37055e-14
1.55728e-13
5.79064e-13
1.05722e-12
1.19315e-12
1.21449e-12
1.31733e-12
6.97638e-08
9.26063e-07
1.05606e-05
1.907e-07
0.000108844
0.000255244
0.000251229
8.37595e-05
1.47224e-06
2.25751e-07
2.13923e-07
6.43109e-07
9.81235e-06
8.61703e-06
2.98408e-07
1.23849e-08
7.8076e-09
2.55639e-06
2.16883e-05
2.19437e-05
1.00514e-05
7.74697e-10
1.36854e-10
1.37338e-10
2.61329e-10
2.51008e-10
6.45619e-11
1.85848e-11
5.42651e-12
1.09028e-12
2.02106e-13
2.90133e-14
2.68803e-15
1.81451e-16
1.22032e-17
8.66993e-19
7.11531e-20
6.82842e-21
5.60835e-22
2.96173e-23
8.41707e-25
2.36418e-27
-2.53349e-30
2.1288e-14
2.2379e-13
8.03259e-13
1.45481e-12
1.2639e-12
1.25323e-12
3.64588e-09
1.28273e-07
5.67284e-08
1.29976e-06
1.1803e-07
0.000219379
0.000254489
0.000170881
4.10237e-05
3.02554e-07
2.13068e-07
2.08581e-07
5.17549e-07
9.90748e-06
4.82786e-06
4.08049e-08
1.65436e-08
1.2385e-08
6.16314e-06
2.03657e-05
1.21657e-05
8.17359e-08
1.18675e-10
1.21794e-10
1.29211e-10
2.21318e-10
1.38563e-10
2.49994e-11
7.37164e-12
1.90693e-12
3.38929e-13
5.57219e-14
6.85752e-15
5.62019e-16
4.15174e-17
2.73511e-18
1.9661e-19
1.59516e-20
1.52839e-21
1.2396e-22
6.36632e-24
1.76091e-25
4.83262e-28
-5.28274e-31
3.1781e-14
3.07583e-13
1.04524e-12
1.82841e-12
1.34381e-12
1.3981e-12
2.13194e-08
3.08953e-08
3.29921e-08
5.49502e-08
9.96969e-08
4.39902e-05
0.000105004
5.15812e-05
9.67276e-06
2.28448e-07
2.0874e-07
2.08886e-07
2.08886e-07
9.99937e-06
1.79056e-06
6.19915e-08
7.27369e-08
2.94498e-06
6.11821e-06
2.8303e-06
5.24048e-07
7.88117e-09
1.32224e-10
9.3255e-11
1.09263e-10
1.65568e-10
6.1172e-11
9.46781e-12
2.83662e-12
6.2668e-13
9.83843e-14
1.43501e-14
1.54956e-15
1.19633e-16
9.40187e-18
6.25943e-19
4.42744e-20
3.57215e-21
3.51145e-22
2.72887e-23
1.3637e-24
3.67183e-26
9.84855e-29
-1.09616e-31
4.53503e-14
4.05272e-13
1.27716e-12
1.95777e-12
1.41413e-12
1.60214e-10
2.20434e-08
8.95885e-09
1.3636e-07
3.38994e-07
1.18746e-07
1.24841e-07
3.54855e-05
4.62346e-05
2.69584e-06
2.14622e-07
2.11821e-07
2.08886e-07
6.18938e-06
9.9512e-06
3.3243e-07
7.87325e-08
5.45603e-07
5.66436e-06
5.89879e-06
1.40499e-07
4.53299e-08
1.14921e-09
9.17019e-11
7.28396e-11
9.25301e-11
1.10077e-10
2.30512e-11
3.60417e-12
1.03289e-12
1.90903e-13
2.67626e-14
3.49113e-15
3.40694e-16
2.7572e-17
2.09931e-18
1.43104e-19
9.9457e-21
8.21596e-22
7.93759e-23
5.98576e-24
2.91231e-25
7.64482e-27
2.00197e-29
-2.26414e-32
6.1331e-14
5.0929e-13
1.47065e-12
1.93375e-12
5.56077e-12
3.70473e-10
1.37417e-08
5.99935e-09
1.53001e-06
7.54408e-07
1.24841e-07
2.57724e-05
0.000145831
6.53833e-05
4.28925e-07
2.1279e-07
2.11504e-07
1.47542e-06
9.69745e-06
4.9207e-06
6.59387e-08
1.18417e-07
3.6441e-06
5.26643e-06
3.99255e-06
3.09755e-08
1.03464e-08
3.94693e-10
4.4776e-11
6.05805e-11
7.74579e-11
6.13787e-11
7.91465e-12
1.35758e-12
3.48708e-13
5.40256e-14
6.88166e-15
8.14484e-16
7.41959e-17
6.44962e-18
4.73698e-19
3.24314e-20
2.20995e-21
1.91457e-22
1.78709e-23
1.30885e-24
6.20409e-26
1.58877e-27
4.06907e-30
-4.65699e-33
7.78478e-14
5.98313e-13
1.61677e-12
1.84288e-12
3.44378e-11
9.54773e-10
1.30294e-09
3.56278e-09
1.67675e-06
4.71392e-07
1.43579e-07
0.000146877
0.000153742
3.4167e-05
2.07419e-06
2.10839e-07
2.11281e-07
1.20929e-06
9.6915e-06
8.4937e-06
5.50449e-08
2.32292e-07
4.87007e-06
5.01695e-06
4.54014e-07
8.01763e-09
2.31583e-09
1.61178e-10
5.14298e-11
5.05624e-11
6.11603e-11
2.66547e-11
2.61924e-12
4.92436e-13
1.08352e-13
1.4362e-14
1.69387e-15
1.86428e-16
1.67586e-17
1.49027e-18
1.09267e-19
7.33156e-21
5.00996e-22
4.4067e-23
4.00936e-24
2.85433e-25
1.31883e-26
3.29603e-28
8.26399e-31
-9.54223e-34
9.21585e-14
6.4356e-13
1.71714e-12
2.06464e-12
8.35361e-11
1.10616e-09
8.62671e-10
1.29996e-09
1.68881e-06
3.68876e-07
6.72401e-05
0.00015653
0.000112921
2.72921e-05
3.22532e-06
2.11255e-07
2.11058e-07
6.5924e-07
4.49854e-06
8.83978e-06
4.43868e-08
2.76905e-07
2.00957e-06
2.4049e-06
7.79165e-09
2.13606e-09
6.12945e-10
6.52774e-11
4.53441e-11
4.39976e-11
4.09004e-11
9.34125e-12
8.62997e-13
1.68383e-13
3.11534e-14
3.64139e-15
4.05063e-16
4.26423e-17
3.99336e-18
3.40356e-19
2.52854e-20
1.65557e-21
1.17076e-22
1.01057e-23
8.96832e-25
6.21155e-26
2.80071e-27
6.82966e-29
1.66048e-31
-1.94858e-34
1.02331e-13
6.5403e-13
1.78247e-12
3.14964e-12
8.89807e-11
6.80355e-10
6.53171e-10
7.42483e-07
1.6767e-06
3.70133e-07
0.000154062
0.000156025
8.34683e-05
4.7705e-05
3.1274e-06
2.13856e-07
2.11066e-07
2.1106e-07
1.1571e-05
7.26717e-06
2.56386e-09
1.79556e-07
7.04154e-08
4.26397e-08
2.66814e-09
6.81467e-10
2.51418e-10
5.15125e-11
3.89304e-11
3.70877e-11
2.07146e-11
2.87989e-12
2.83845e-13
5.37406e-14
8.40711e-15
8.948e-16
9.56121e-17
9.82499e-18
9.50673e-19
7.79159e-20
5.82025e-21
3.74022e-22
2.71595e-23
2.31063e-24
2.00122e-25
1.34969e-26
5.94429e-28
1.41458e-29
3.37193e-32
-3.96729e-35
1.07979e-13
6.56771e-13
1.80461e-12
3.80756e-12
6.93913e-11
7.3321e-11
3.61822e-09
1.37802e-06
1.35923e-06
3.82369e-07
0.000149723
6.85154e-05
6.67311e-05
2.62885e-05
3.40456e-07
2.96154e-07
7.65547e-07
5.00606e-06
1.81823e-05
6.59072e-07
8.50984e-10
1.28309e-08
1.73553e-08
7.89629e-09
7.28772e-10
2.54044e-10
1.09043e-10
4.29245e-11
3.37767e-11
2.50556e-11
8.2148e-12
8.48049e-13
9.16309e-14
1.60342e-14
2.16632e-15
2.16116e-16
2.26889e-17
2.32137e-18
2.24126e-19
1.82282e-20
1.33707e-21
8.43798e-23
6.27683e-24
5.27037e-25
4.45729e-26
2.92986e-27
1.2611e-28
2.93041e-30
6.8694e-33
-8.05703e-36
1.10103e-13
6.58914e-13
1.78617e-12
2.99455e-12
3.09925e-11
3.10202e-11
5.00373e-07
1.37309e-06
4.24839e-07
3.71879e-07
0.000110797
4.35293e-05
5.13079e-05
1.2055e-05
3.06945e-07
3.2416e-07
3.32382e-06
2.22671e-05
1.89051e-05
8.86468e-10
3.75287e-10
1.48847e-09
4.38171e-09
1.86086e-09
2.62526e-10
1.28873e-10
6.66984e-11