/*--------------------------------*- C++ -*----------------------------------*\
  =========                 |
  \\      /  F ield         | OpenFOAM: The Open Source CFD Toolbox
   \\    /   O peration     | Website:  https://openfoam.org
    \\  /    A nd           | Version:  9
     \\/     M anipulation  |
\*---------------------------------------------------------------------------*/
FoamFile
{
    format      ascii;
    class       surfaceScalarField;
    location    "0.06";
    object      alphaPhi0.water;
}
// * * * * * * * * * * * * * * * * * * * * * * * * * * * * * * * * * * * * * //

dimensions      [0 3 -1 0 0 0 0];

internalField   nonuniform List<scalar> 
9850
(
-1.36902e-24
4.53522e-25
-9.20514e-24
7.52999e-23
-4.83459e-22
2.55979e-21
-5.46113e-21
5.65692e-20
-6.02169e-20
5.59677e-19
-6.78665e-19
8.54626e-18
0
2.21747e-16
0
6.33539e-15
0
1.7875e-13
0
6.08546e-12
-3.53552e-12
2.49012e-10
1.04534e-09
1.03374e-09
9.19972e-08
4.02073e-09
4.78044e-07
3.53328e-07
3.81013e-07
4.27593e-07
3.3915e-07
3.6705e-07
3.57053e-07
2.88616e-07
3.9474e-07
2.51622e-07
4.23983e-07
2.60168e-07
4.38989e-07
2.82265e-07
4.43776e-07
2.39542e-07
4.44897e-07
2.25459e-07
4.43712e-07
2.05822e-07
4.41164e-07
1.86363e-07
4.40009e-07
1.73065e-07
4.43818e-07
1.74485e-07
4.53392e-07
1.96991e-07
4.62551e-07
2.42692e-07
4.52915e-07
3.23939e-07
1.41746e-07
3.11616e-07
5.59294e-10
1.50304e-08
0
4.16289e-10
1.89928e-11
2.26263e-10
0
1.03987e-10
0
1.3626e-11
0
2.89911e-12
0
6.45298e-13
0
1.5818e-13
0
3.93661e-14
3.41453e-16
9.14708e-15
3.39753e-16
2.07946e-15
3.09626e-16
7.90787e-16
2.61697e-16
4.88741e-16
1.92322e-16
3.50328e-16
1.26113e-16
2.35123e-16
7.67298e-17
1.45461e-16
4.38415e-17
8.41338e-17
2.36398e-17
4.54703e-17
1.16243e-17
2.40603e-17
8.68319e-18
-2.87196e-25
7.43541e-25
-9.75619e-24
9.0042e-23
-3.85256e-22
2.82244e-21
-5.61172e-21
5.63835e-20
-5.46772e-20
6.37229e-19
-6.19367e-19
7.45208e-18
0
1.88174e-16
0
5.18624e-15
0
1.55647e-13
0
7.32751e-12
7.80414e-12
2.43996e-10
7.69105e-10
6.46231e-10
5.29783e-08
2.22974e-09
4.39946e-07
3.60942e-07
3.48785e-07
5.25524e-07
3.32475e-07
3.83374e-07
3.65151e-07
2.55941e-07
4.04737e-07
2.12036e-07
4.28968e-07
2.35937e-07
4.37422e-07
2.73811e-07
4.37465e-07
2.39499e-07
4.35545e-07
2.27379e-07
4.32087e-07
2.0928e-07
4.24714e-07
1.93735e-07
4.1345e-07
1.8433e-07
4.04796e-07
1.83139e-07
4.07738e-07
1.94048e-07
4.18787e-07
2.31594e-07
4.10457e-07
3.29023e-07
8.16818e-08
2.37031e-07
4.75364e-11
3.25382e-09
0
1.57246e-10
7.15324e-12
9.64298e-11
1.51454e-12
1.01043e-10
0
2.07402e-11
0
3.25268e-12
0
6.76842e-13
0
1.54999e-13
0
3.93029e-14
2.78076e-16
9.70335e-15
3.53803e-16
2.0169e-15
3.13235e-16
8.13136e-16
2.82473e-16
5.32823e-16
2.27769e-16
4.15597e-16
1.60916e-16
3.02094e-16
1.04296e-16
1.99984e-16
6.36029e-17
1.22936e-16
3.6723e-17
7.06254e-17
1.94749e-17
3.9667e-17
1.55262e-17
-1.47948e-25
1.29074e-24
-1.1179e-23
1.03875e-22
-4.24151e-22
3.67681e-21
-5.87927e-21
6.72892e-20
-4.76329e-20
6.40587e-19
-5.22656e-19
6.33988e-18
0
1.5715e-16
0
4.32886e-15
0
1.6045e-13
0
6.15626e-12
3.32738e-11
2.75114e-10
4.39747e-10
1.51569e-09
7.10368e-09
4.15195e-10
3.99227e-07
3.30994e-07
3.53261e-07
6.21343e-07
3.64155e-07
3.72477e-07
4.01664e-07
2.18432e-07
4.30416e-07
1.83284e-07
4.42026e-07
2.24328e-07
4.39083e-07
2.76753e-07
4.31969e-07
2.46613e-07
4.26273e-07
2.33074e-07
4.22389e-07
2.13165e-07
4.13589e-07
2.02535e-07
3.90857e-07
2.07061e-07
3.59627e-07
2.14369e-07
3.43627e-07
2.10047e-07
3.6533e-07
2.09565e-07
2.96319e-07
3.0264e-07
1.20801e-08
1.0802e-07
0
2.07946e-09
4.6261e-11
1.05831e-10
1.05966e-13
8.61509e-11
1.39842e-11
5.71677e-11
0
3.19676e-11
0
3.82961e-12
0
8.05122e-13
0
1.63599e-13
0
3.90009e-14
1.95491e-16
9.73888e-15
3.35451e-16
1.91358e-15
3.13191e-16
8.20632e-16
2.95437e-16
5.70125e-16
2.52864e-16
4.70146e-16
1.89949e-16
3.63391e-16
1.29884e-16
2.55117e-16
8.32646e-17
1.65023e-16
5.05207e-17
9.93185e-17
2.835e-17
5.83119e-17
2.43203e-17
-1.66231e-25
1.47911e-24
-1.26196e-23
1.33419e-22
-4.88359e-22
4.14723e-21
-5.47517e-21
7.12286e-20
-3.74561e-20
5.91454e-19
-4.12637e-19
5.18455e-18
0
1.26639e-16
0
3.62241e-15
0
1.56032e-13
0
4.43153e-12
9.006e-11
3.76887e-10
5.03085e-10
1.02353e-09
1.16255e-09
1.84217e-10
3.94875e-07
2.00047e-07
4.46125e-07
7.01984e-07
4.57043e-07
3.6168e-07
4.73108e-07
2.02364e-07
4.73096e-07
1.83296e-07
4.63248e-07
2.34176e-07
4.46197e-07
2.93804e-07
4.3028e-07
2.6253e-07
4.19867e-07
2.43487e-07
4.18655e-07
2.14377e-07
4.19542e-07
2.01648e-07
3.99875e-07
2.26728e-07
3.51307e-07
2.62937e-07
3.09667e-07
2.5167e-07
3.34707e-07
1.83073e-07
2.20933e-07
1.67034e-07
2.76724e-09
2.37812e-08
0
9.68635e-10
7.86694e-12
1.94015e-10
0
1.88322e-10
0
3.81745e-11
9.6902e-13
2.45748e-11
0
4.31282e-12
0
9.45615e-13
0
2.0128e-13
0
4.15811e-14
1.75643e-16
9.83212e-15
3.07721e-16
1.81608e-15
3.00432e-16
8.03416e-16
2.93139e-16
5.79187e-16
2.61957e-16
5.01354e-16
2.08178e-16
4.0974e-16
1.49677e-16
3.0415e-16
9.99239e-17
2.05967e-16
6.28964e-17
1.28733e-16
3.68686e-17
7.82501e-17
3.43841e-17
-2.14789e-25
2.19232e-24
-1.26234e-23
1.57206e-22
-4.17655e-22
4.19328e-21
-5.45126e-21
7.11393e-20
-3.29039e-20
6.47971e-19
-2.94588e-19
4.50945e-18
0
1.08319e-16
0
3.55931e-15
0
1.67157e-13
4.07577e-13
4.08198e-12
3.38948e-11
4.15978e-10
4.76356e-10
8.96614e-10
2.69737e-09
1.66131e-10
3.04569e-07
5.67083e-08
6.35375e-07
5.67885e-07
6.06254e-07
3.9177e-07
5.67387e-07
2.41208e-07
5.20922e-07
2.29759e-07
4.87975e-07
2.67123e-07
4.59441e-07
3.22339e-07
4.35213e-07
2.86757e-07
4.18646e-07
2.60054e-07
4.20394e-07
2.12629e-07
4.42138e-07
1.79902e-07
4.52295e-07
2.1657e-07
4.15784e-07
2.99443e-07
3.8025e-07
2.87142e-07
4.26727e-07
1.32327e-07
7.66375e-08
3.14994e-08
1.32648e-09
1.0983e-09
0
3.73085e-10
3.65592e-12
1.33722e-10
4.31005e-11
2.19185e-10
0
5.64873e-11
0
1.4574e-11
0
3.84343e-12
0
9.36763e-13
0
2.36741e-13
0
5.21499e-14
1.65398e-16
1.08623e-14
2.76375e-16
1.78825e-15
2.71105e-16
7.89518e-16
2.72783e-16
5.75353e-16
2.55346e-16
5.13801e-16
2.14157e-16
4.40902e-16
1.61375e-16
3.4414e-16
1.11488e-16
2.42622e-16
7.22087e-17
1.5652e-16
4.38417e-17
9.79106e-17
4.49686e-17
-2.21031e-25
2.7912e-24
-1.03309e-23
1.59373e-22
-3.45818e-22
3.91487e-21
-6.01078e-21
7.54525e-20
-3.07308e-20
7.48754e-19
-1.95608e-19
4.06818e-18
0
1.01214e-16
0
4.25323e-15
0
1.97828e-13
2.18547e-12
4.75001e-12
1.01238e-10
3.56229e-10
2.88623e-10
2.37443e-10
2.90248e-09
9.96158e-11
1.3817e-07
2.05804e-08
7.47322e-07
1.86193e-07
7.30273e-07
4.28267e-07
6.31983e-07
3.39251e-07
5.49062e-07
3.12672e-07
5.07749e-07
3.08433e-07
4.77273e-07
3.52813e-07
4.47867e-07
3.16162e-07
4.23418e-07
2.84502e-07
4.21497e-07
2.14548e-07
4.58982e-07
1.42411e-07
5.07249e-07
1.68296e-07
5.15292e-07
2.9136e-07
5.37119e-07
2.63671e-07
2.69897e-07
5.76544e-08
1.43047e-09
8.29794e-11
0
1.42429e-11
9.20604e-11
2.5727e-11
2.83446e-11
9.70969e-14
1.81822e-10
2.26724e-10
1.82727e-12
1.8853e-10
0
9.55439e-12
1.25955e-13
3.35758e-12
0
8.91862e-13
0
2.28018e-13
0
5.98439e-14
6.51833e-17
1.37958e-14
2.4634e-16
1.90569e-15
2.35484e-16
7.97122e-16
2.47319e-16
5.68919e-16
2.40092e-16
5.22423e-16
2.10647e-16
4.65058e-16
1.65154e-16
3.77289e-16
1.17176e-16
2.74269e-16
7.76313e-17
1.81446e-16
4.85374e-17
1.16312e-16
5.54799e-17
-1.90887e-25
3.09829e-24
-7.80791e-24
1.46306e-22
-2.92024e-22
3.66979e-21
-6.04059e-21
7.72859e-20
-2.72858e-20
7.70042e-19
-1.37495e-19
3.74914e-18
0
9.72804e-17
0
4.54499e-15
0
1.98544e-13
2.55362e-12
1.39498e-11
3.18081e-11
2.57365e-10
3.87295e-11
1.27762e-10
2.99423e-10
8.81114e-11
3.42999e-08
2.53729e-10
3.37792e-07
7.6824e-09
6.78752e-07
2.40013e-07
6.0332e-07
4.14994e-07
5.38424e-07
3.7738e-07
5.17554e-07
3.29287e-07
4.97058e-07
3.73289e-07
4.67558e-07
3.45648e-07
4.36255e-07
3.15795e-07
4.22246e-07
2.28548e-07
4.48845e-07
1.15796e-07
4.92998e-07
1.24135e-07
4.99925e-07
2.82889e-07
3.37386e-07
1.41372e-07
1.10902e-09
0
4.93439e-11
0
9.55137e-13
0
4.691e-11
0
6.01912e-11
0
5.85039e-11
1.86477e-11
3.85546e-11
1.62651e-10
0
4.31213e-11
0
2.37352e-12
0
7.96916e-13
0
2.023e-13
0
5.74597e-14
0
1.51449e-14
2.30745e-16
2.36023e-15
2.22978e-16
8.11509e-16
2.23774e-16
5.77403e-16
2.20302e-16
5.37163e-16
2.00966e-16
4.88524e-16
1.62138e-16
4.05728e-16
1.1734e-16
3.00981e-16
7.92888e-17
2.03129e-16
5.08758e-17
1.33001e-16
6.56662e-17
-1.37213e-25
3.04857e-24
-5.8157e-24
1.22936e-22
-2.40907e-22
3.46062e-21
-4.82594e-21
7.38515e-20
-2.13744e-20
6.83324e-19
-1.15332e-19
3.42449e-18
0
9.23358e-17
0
3.94764e-15
0
1.24716e-13
1.74605e-12
2.41288e-11
2.26059e-11
2.20628e-10
1.32562e-11
1.33008e-10
4.66435e-13
9.19553e-11
8.44475e-10
2.85045e-10
4.79682e-08
0
3.87116e-07
1.38565e-08
5.13502e-07
3.24249e-07
5.11058e-07
3.79419e-07
5.20678e-07
3.19285e-07
5.15042e-07
3.78857e-07
4.94204e-07
3.66456e-07
4.72042e-07
3.37951e-07
4.56009e-07
2.4443e-07
4.45874e-07
1.25144e-07
4.19678e-07
1.47798e-07
2.21438e-07
1.22754e-07
0
0
0
0
0
0
9.14234e-13
2.75196e-13
6.31352e-12
0
2.80627e-11
1.08931e-11
5.17233e-11
2.76865e-11
7.38461e-11
1.30653e-10
1.80602e-12
1.13589e-10
0
3.332e-12
8.48476e-15
8.16225e-13
0
1.93608e-13
0
5.03406e-14
0
1.41429e-14
1.90208e-16
2.58234e-15
2.05794e-16
8.21575e-16
2.0255e-16
5.91689e-16
2.01443e-16
5.57802e-16
1.86763e-16
5.11413e-16
1.53205e-16
4.29018e-16
1.12706e-16
3.22357e-16
7.76739e-17
2.21301e-16
5.09864e-17
1.47415e-16
7.43456e-17
-8.28518e-26
2.6123e-24
-4.12816e-24
9.52045e-23
-1.9427e-22
3.07849e-21
-2.41511e-21
5.6213e-20
-1.23156e-20
3.54963e-19
-1.00293e-19
2.97338e-18
0
8.45944e-17
0
3.11781e-15
0
1.29442e-13
2.012e-12
5.10081e-11
2.03077e-11
2.77014e-10
1.58693e-11
1.36659e-10
1.52769e-10
2.55654e-10
2.81199e-10
8.01215e-11
9.31733e-10
4.04286e-12
4.07941e-08
0
3.76819e-07
6.63001e-09
4.79807e-07
2.22988e-07
5.11766e-07
2.85054e-07
5.2093e-07
3.68476e-07
5.32377e-07
3.53694e-07
5.5313e-07
3.15621e-07
5.52145e-07
1.66343e-07
3.55092e-07
7.81304e-08
8.84689e-08
4.15819e-08
-3.15651e-10
0
0
-1.57845e-11
0
-3.38716e-13
7.41918e-14
4.75102e-17
5.15496e-13
1.25109e-15
1.35607e-11
8.04669e-13
6.64281e-11
2.76877e-11
5.08769e-11
6.02061e-11
8.65859e-11
1.45206e-10
2.50722e-12
1.28846e-10
0
4.34687e-12
5.66064e-15
8.86742e-13
0
1.8606e-13
0
4.23876e-14
0
1.19893e-14
1.37546e-16
2.34684e-15
1.74366e-16
7.68404e-16
1.78778e-16
5.96167e-16
1.79154e-16
5.6511e-16
1.68283e-16
5.24291e-16
1.3881e-16
4.44824e-16
1.03459e-16
3.38255e-16
7.23878e-17
2.35765e-16
4.80326e-17
1.59124e-16
8.02385e-17
-4.44251e-26
1.64024e-24
-3.1074e-24
8.70993e-23
-1.48453e-22
2.87002e-21
-7.85733e-22
3.43241e-20
-4.72729e-21
1.51243e-19
-7.59263e-20
2.84215e-18
0
9.23603e-17
0
3.43174e-15
0
1.66275e-13
1.62729e-12
7.38163e-11
2.08332e-11
2.72606e-10
1.41694e-11
1.37546e-10
1.08417e-10
3.10879e-10
9.02313e-11
2.33277e-11
2.4117e-11
0
4.01048e-10
0
2.27437e-08
0
2.08597e-07
0
3.02083e-07
2.47469e-08
3.26335e-07
7.60412e-08
3.60823e-07
5.38104e-08
3.01523e-07
2.48289e-08
1.45325e-07
0
3.61122e-08
0
1.14066e-09
0
2.14589e-10
0
0
5.08005e-12
0
1.02049e-13
1.88519e-16
2.20024e-15
1.07962e-13
3.52735e-16
5.34102e-12
9.50538e-14
7.53257e-11
1.89974e-11
9.02594e-11
5.67499e-11
4.69002e-11
8.30977e-11
4.89098e-13
1.01414e-10
0
3.65896e-12
9.84392e-15
7.65347e-13
0
1.65232e-13
0
3.59126e-14
0
9.77663e-15
1.13884e-16
1.8811e-15
1.44075e-16
7.00588e-16
1.49787e-16
5.8941e-16
1.5192e-16
5.63549e-16
1.44847e-16
5.24314e-16
1.22188e-16
4.51303e-16
9.22378e-17
3.50524e-16
6.53609e-17
2.4814e-16
4.37502e-17
1.68833e-16
8.22126e-17
-2.51875e-26
7.73425e-25
-2.89038e-24
1.07939e-22
-7.09014e-23
3.00526e-21
-3.48109e-22
2.28515e-20
-2.79154e-21
1.27288e-19
-5.45212e-20
3.15304e-18
0
1.0142e-16
0
4.12574e-15
0
1.91603e-13
1.33976e-12
7.00914e-11
1.90091e-11
2.67891e-10
1.46194e-11
1.38267e-10
2.4463e-11
0
6.25029e-13
0
1.69645e-12
0
1.70438e-11
0
1.51804e-10
0
1.63554e-09
0
5.16282e-09
0
1.00173e-08
0
8.9048e-09
0
3.6238e-09
0
9.87013e-10
0
6.92053e-10
0
1.53202e-10
0
5.78302e-11
0
1.25457e-11
8.74121e-13
0
2.89511e-13
0
7.85057e-15
2.5765e-14
1.49938e-15
4.14246e-13
1.04387e-14
3.77992e-11
4.59256e-12
5.51011e-11
4.79232e-11
1.24536e-11
1.60151e-12
1.12929e-11
5.86972e-11
0
3.1809e-12
0
4.4645e-13
0
1.66824e-13
0
3.11947e-14
0
8.46077e-15
9.357e-17
1.34282e-15
1.0829e-16
6.40535e-16
1.21951e-16
5.74458e-16
1.24634e-16
5.59552e-16
1.18768e-16
5.20545e-16
1.02042e-16
4.50575e-16
7.92059e-17
3.53687e-16
5.63489e-17
2.52648e-16
3.69411e-17
1.71206e-16
8.02286e-17
-1.64294e-26
6.72259e-25
-2.50965e-24
1.90928e-22
-2.66223e-23
3.41875e-21
-1.39538e-22
1.43226e-20
-1.66178e-21
1.22598e-19
-3.63618e-20
3.21845e-18
0
9.81722e-17
0
3.99285e-15
4.8086e-14
6.81033e-13
4.78237e-12
9.07199e-11
2.64216e-11
1.34852e-10
1.63915e-11
2.45564e-10
0
1.46199e-11
3.22207e-14
1.20736e-12
3.74869e-13
2.33152e-13
1.55073e-12
7.35558e-15
6.90536e-12
0
2.35511e-11
0
4.74977e-11
0
7.12692e-11
0
4.2221e-11
0
2.79439e-11
0
2.04187e-11
0
2.0028e-11
0
1.1268e-11
0
4.09063e-12
0
6.20616e-13
0
9.07909e-14
0
0
7.23586e-15
1.57509e-14
1.29715e-15
1.61808e-13
5.7069e-15
2.68358e-11
4.41815e-12
4.4484e-11
5.46847e-11
2.90154e-12
6.92358e-11
1.49086e-12
1.50447e-11
0
1.13863e-12
0
1.08644e-13
3.54864e-15
1.86391e-13
0
3.13524e-14
0
7.29268e-15
7.9263e-17
1.0258e-15
8.61949e-17
5.99905e-16
9.44665e-17
5.61068e-16
9.76935e-17
5.49536e-16
9.3626e-17
5.12778e-16
8.10767e-17
4.45838e-16
6.30206e-17
3.51107e-16
4.47087e-17
2.51214e-16
2.88088e-17
1.68673e-16
7.41307e-17
4.72818e-27
2.3053e-24
1.96245e-25
3.17546e-22
-2.61871e-24
3.42425e-21
-2.30585e-23
7.97643e-21
-6.75711e-22
1.2775e-19
-1.93787e-20
4.02495e-18
0
1.34148e-16
0
4.6425e-15
4.25319e-13
4.74328e-12
6.4393e-12
2.29801e-10
8.17113e-12
1.52311e-10
3.28148e-11
2.49766e-10
0
1.03882e-10
5.57905e-13
5.15029e-12
1.67182e-14
2.66338e-13
9.74359e-14
1.12324e-13
7.9795e-14
0
3.78672e-13
0
1.15663e-12
0
2.13159e-12
0
2.00232e-12
-5.57914e-14
1.24327e-12
-1.32832e-13
6.76197e-13
0
6.74563e-13
0
4.10129e-13
0
2.45496e-13
0
1.07522e-13
0
7.0111e-15
0
1.92651e-15
7.645e-16
9.11737e-15
5.91248e-16
9.09068e-14
4.08874e-15
9.29553e-12
4.75236e-12
2.39098e-11
5.95126e-11
1.10401e-11
8.58927e-11
0
9.11047e-12
3.94604e-15
8.5348e-13
0
6.07405e-14
1.61586e-14
1.79383e-13
0
4.05582e-14
0
5.36933e-15
5.41766e-17
8.39743e-16
6.43588e-17
5.75725e-16
6.95799e-17
5.48232e-16
7.25716e-17
5.36348e-16
7.03102e-17
5.02765e-16
6.1105e-17
4.37516e-16
4.72606e-17
3.42699e-16
3.31688e-17
2.43638e-16
2.06508e-17
1.61061e-16
6.54387e-17
5.64167e-26
8.30076e-24
2.93765e-24
4.21534e-22
1.63405e-23
2.87121e-21
3.22383e-23
7.42907e-21
4.95046e-22
1.50087e-19
1.05072e-20
5.11263e-18
2.55913e-18
1.7234e-16
1.43141e-14
5.32424e-15
2.16547e-12
6.17454e-12
1.52334e-11
2.03291e-10
1.35031e-11
3.62186e-10
3.48841e-11
2.52054e-10
5.7718e-12
1.14172e-10
1.87847e-13
1.13939e-11
5.28105e-14
3.15769e-13
4.69043e-14
1.98872e-13
-9.499e-17
8.55001e-14
2.80634e-14
0
2.4559e-13
2.78846e-13
1.17808e-12
6.97638e-14
4.05633e-13
0
4.25388e-15
-4.32194e-13
3.41471e-15
-1.21869e-14
2.3824e-14
0
2.02317e-14
0
1.26099e-14
0
3.75842e-15
0
3.06748e-15
9.39807e-16
3.09507e-15
1.24762e-15
6.88147e-15
1.50648e-15
9.26118e-14
3.58685e-15
9.60769e-12
1.77852e-12
2.12465e-11
5.78743e-11
1.86123e-11
9.19341e-11
0
2.35892e-11
1.65473e-15
2.90607e-13
5.82432e-17
5.42941e-14
1.28655e-14
1.77119e-13
0
4.03954e-14
0
2.35425e-15
3.67858e-17
6.599e-16
4.51625e-17
5.62733e-16
4.81314e-17
5.4352e-16
5.02002e-17
5.27855e-16
4.88091e-17
4.93147e-16
4.21327e-17
4.25021e-16
3.2111e-17
3.2817e-16
2.20538e-17
2.30665e-16
1.29605e-17
1.48618e-16
5.35661e-17
2.39282e-25
1.89597e-23
6.70419e-24
5.24107e-22
2.98247e-23
2.33323e-21
8.5599e-23
7.39894e-21
2.42631e-21
2.17905e-19
9.42746e-20
7.34812e-18
2.77456e-17
2.10462e-16
1.86558e-14
6.33108e-15
2.97158e-12
1.48905e-11
2.5917e-11
9.80236e-11
3.79868e-11
2.89783e-10
1.80851e-11
5.78124e-11
1.29038e-11
9.56403e-11
1.23351e-13
1.13296e-11
7.38943e-14
3.43204e-13
2.40527e-14
2.43118e-13
4.73651e-15
2.0197e-13
1.67353e-14
2.50211e-13
1.21257e-13
1.1794e-12
1.46545e-12
-2.29044e-12
1.79225e-12
-2.56132e-12
2.51503e-13
-7.96099e-13
0
-6.13809e-15
1.3789e-16
-2.85487e-17
3.30297e-15
4.77331e-16
2.99748e-15
2.10325e-16
3.13643e-15
1.01506e-15
3.0209e-15
1.26229e-15
2.82199e-15
1.5175e-15
3.02413e-15
1.81469e-15
3.94866e-14
2.94314e-15
4.74807e-12
2.26336e-13
1.41951e-11
1.60138e-11
1.97191e-11
9.7045e-11
1.01634e-12
1.03616e-10
9.48714e-14
1.13295e-12
6.9572e-16
3.87607e-14
3.41828e-15
3.93783e-14
0
3.91258e-14
0
1.1318e-15
2.48171e-17
5.86278e-16
2.76333e-17
5.58441e-16
2.90704e-17
5.41584e-16
3.01809e-17
5.23675e-16
2.89695e-17
4.83859e-16
2.44515e-17
4.08689e-16
1.80591e-17
3.08708e-16
1.18868e-17
2.13597e-16
6.35933e-18
1.31832e-16
3.92366e-17
5.98806e-25
3.10322e-23
1.22641e-23
7.28334e-22
3.98253e-23
2.21344e-21
1.61082e-22
8.98672e-21
6.0772e-21
3.14987e-19
5.05853e-19
1.02894e-17
3.75246e-16
3.68517e-16
1.89482e-13
4.45029e-14
4.69025e-12
4.04177e-11
7.39793e-12
3.4497e-11
2.96165e-11
2.39736e-10
8.45597e-12
4.93747e-11
9.34408e-12
5.02913e-11
1.10269e-13
7.76683e-12
9.11777e-14
3.56717e-13
4.57783e-14
2.715e-13
2.31292e-14
2.35117e-13
5.72363e-13
9.43418e-13
3.45544e-12
9.28332e-13
5.04417e-12
-6.83797e-12
3.33062e-12
-4.59582e-12
0
-1.6314e-13
0
-1.42305e-14
3.0461e-15
0
2.8276e-15
1.23091e-15
3.10131e-15
1.39833e-15
3.13862e-15
1.19885e-15
3.03191e-15
1.44092e-15
2.80889e-15
1.74275e-15
2.57368e-15
2.11466e-15
1.61991e-14
2.94545e-15
6.70973e-13
3.87212e-14
8.3765e-12
3.85971e-12
1.72753e-11
9.88215e-11
9.40719e-12
1.21554e-10
9.35074e-14
1.18494e-11
1.50207e-16
6.60469e-14
2.77274e-16
1.0211e-14
9.72293e-16
4.21415e-14
0
9.46894e-16
1.04528e-17
5.72143e-16
1.10423e-17
5.5745e-16
1.14552e-17
5.41047e-16
1.17926e-17
5.21538e-16
1.09595e-17
4.73779e-16
8.77436e-18
3.88983e-16
5.99249e-18
2.86887e-16
3.47703e-18
1.94972e-16
1.45917e-18
1.11804e-16
2.50962e-17
1.11105e-24
4.43487e-23
2.69989e-23
1.35711e-21
8.58542e-23
4.73943e-21
3.41847e-22
1.66378e-20
1.13703e-20
4.10634e-19
3.4245e-18
1.2384e-17
1.47404e-15
3.03663e-16
5.30521e-13
8.5343e-13
3.30001e-12
1.84965e-11
9.16688e-12
2.57948e-11
3.35358e-11
9.26512e-11
7.35905e-12
4.52205e-11
1.30484e-11
3.28203e-11
1.39643e-13
5.9231e-12
1.08318e-13
3.70298e-13
7.14935e-14
2.96575e-13
2.33221e-13
5.58729e-13
6.56697e-13
4.41348e-12
5.51024e-12
-6.44187e-13
5.98381e-12
-5.46301e-12
0
-3.82034e-13
5.99771e-15
-1.70193e-14
1.24369e-13
-9.85607e-14
1.66078e-13
-1.76956e-13
1.0686e-14
1.34133e-15
3.58752e-15
9.27781e-15
3.25379e-15
1.65843e-15
3.10215e-15
1.59604e-15
2.88443e-15
1.95769e-15
2.59087e-15
2.40628e-15
5.93495e-15
3.14615e-15
1.70773e-13
9.16497e-15
5.6005e-12
2.94354e-12
1.86177e-11
9.87193e-11
1.35822e-11
1.32958e-10
2.79762e-13
7.04696e-11
1.79836e-15
3.29531e-13
1.0875e-16
7.38911e-15
6.46728e-17
1.57905e-14
-3.27001e-18
6.76508e-16
-3.81729e-18
5.72205e-16
-4.85405e-18
5.58164e-16
-5.41514e-18
5.41622e-16
-5.71642e-18
5.20524e-16
-5.55785e-18
4.62586e-16
-5.02919e-18
3.68131e-16
-4.43068e-18
2.66333e-16
-3.49066e-18
1.76798e-16
-1.35682e-18
8.99958e-17
1.36782e-17
2.19946e-24
7.67663e-23
7.35855e-23
3.04372e-21
3.01985e-22
1.46876e-20
1.02952e-21
4.59153e-20
1.90124e-20
5.35316e-19
2.23321e-17
9.8534e-18
1.12817e-14
2.58538e-15
1.46535e-13
1.30878e-12
1.04618e-12
1.96231e-12
1.20043e-12
1.41074e-11
1.63067e-11
6.19231e-12
3.89e-11
1.5109e-10
1.54805e-11
3.42442e-11
1.66988e-13
2.72332e-12
1.27929e-13
3.69338e-13
1.29213e-13
3.19258e-13
1.51006e-12
2.14214e-12
3.28237e-12
1.32596e-11
7.34526e-12
-1.42604e-12
3.31315e-13
-3.57986e-13
3.01256e-14
-3.61694e-14
4.66515e-14
-1.49763e-14
1.16922e-12
-1.40066e-13
1.51878e-12
-4.10687e-13
7.60984e-13
-6.15209e-14
9.79432e-15
1.41774e-13
2.67519e-15
9.62745e-15
3.37831e-15
2.2177e-15
2.99985e-15
2.33959e-15
2.82631e-15
2.68883e-15
3.0835e-15
3.34558e-15
1.41911e-13
1.97049e-14
4.77812e-12
7.19881e-13
1.515e-11
2.53267e-11
1.32819e-11
1.22464e-10
1.94323e-13
7.72318e-11
0
5.15345e-13
-7.28568e-17
4.29818e-15
-1.04624e-16
3.20116e-15
-1.76034e-17
7.56151e-16
-1.851e-17
5.73046e-16
-2.07978e-17
5.60276e-16
-2.23785e-17
5.43797e-16
-2.30789e-17
5.20704e-16
-2.12246e-17
4.50663e-16
-1.77436e-17
3.5026e-16
-1.38989e-17
2.51508e-16
-8.63993e-18
1.60051e-16
-2.04995e-18
6.7865e-17
6.36591e-18
5.33003e-24
1.69956e-22
1.95621e-22
6.71057e-21
9.46623e-22
3.6639e-20
3.30655e-21
1.23211e-19
4.20471e-20
8.13891e-19
7.79292e-17
1.48909e-17
2.05674e-14
1.33592e-14
1.79003e-13
9.76176e-13
4.66412e-13
1.62342e-12
3.91153e-12
6.66277e-11
1.38105e-11
2.96318e-11
2.24509e-11
1.743e-10
7.86398e-12
1.55293e-11
3.29874e-13
6.9897e-13
2.38596e-13
3.69386e-13
4.32843e-13
3.4772e-13
3.7432e-12
3.73312e-12
8.09301e-12
4.03993e-11
0
-2.23448e-12
2.28286e-14
-6.52868e-13
3.41869e-14
-2.80882e-14
2.79621e-14
-1.89116e-14
1.34361e-12
-2.77022e-14
1.9038e-12
-4.59825e-13
2.03537e-12
-9.62187e-14
5.64826e-13
2.59365e-13
1.4676e-15
1.2537e-13
0
5.9834e-15
3.46117e-15
6.15928e-15
2.65286e-15
3.17593e-15
3.29833e-15
3.74527e-15
3.13866e-14
1.31386e-14
1.38496e-12
7.91282e-12
1.4171e-11
6.99094e-12
5.95453e-12
3.35597e-11
3.22e-14
3.74592e-11
-2.23062e-18
3.46125e-13
-2.67234e-16
2.51886e-15
-9.55057e-17
1.48416e-15
-3.04969e-17
7.86734e-16
-3.44185e-17
5.77002e-16
-3.77236e-17
5.63521e-16
-4.02263e-17
5.48204e-16
-4.06712e-17
5.22364e-16
-3.63418e-17
4.41537e-16
-3.00048e-17
3.4255e-16
-2.22733e-17
2.4321e-16
-1.12437e-17
1.41604e-16
-1.59155e-18
4.66726e-17
2.43862e-18
1.40525e-23
3.98251e-22
4.66521e-22
1.35364e-20
2.39356e-21
7.58227e-20
8.77939e-21
2.66794e-19
1.30783e-19
1.81387e-18
1.87511e-16
7.00856e-17
1.22496e-14
1.61468e-14
1.13138e-13
1.99795e-13
2.07978e-12
1.81334e-12
1.04219e-11
1.32835e-10
6.76454e-12
8.38822e-11
3.28083e-11
1.7604e-10
1.1888e-13
1.66577e-11
2.63049e-13
6.04732e-13
1.35252e-13
4.01854e-13
1.98873e-13
5.86379e-13
4.42054e-13
4.64377e-12
1.65488e-11
4.78382e-11
0
-2.21696e-12
7.4309e-14
-6.9629e-13
2.52276e-14
-1.09872e-14
3.68585e-14
-3.47521e-14
1.7773e-13
-1.5315e-14
1.8709e-12
-1.03821e-14
2.06233e-12
-1.47497e-13
2.07659e-12
3.86191e-13
4.94975e-14
6.22408e-13
0
2.42271e-14
3.96875e-15
6.80283e-15
3.96485e-15
3.69708e-15
7.61843e-15
4.26901e-15
1.44484e-12
8.13069e-13
8.7399e-12
6.51216e-11
1.09007e-12
9.98225e-12
1.32219e-12
6.66439e-12
1.56296e-13
0
-1.34825e-15
6.77071e-13
-2.04243e-16
1.26068e-15
-6.45313e-17
8.14906e-16
-4.72815e-17
6.85278e-16
-5.26863e-17
5.8253e-16
-5.6474e-17
5.68239e-16
-5.97227e-17
5.55845e-16
-5.9134e-17
5.25414e-16
-5.25704e-17
4.4135e-16
-4.32148e-17
3.43858e-16
-2.90159e-17
2.36274e-16
-1.10528e-17
1.16225e-16
-8.3082e-19
2.78776e-17
6.66866e-19
3.45016e-23
8.52605e-22
9.80708e-22
2.44587e-20
5.08835e-21
1.37057e-19
1.89358e-20
4.79358e-19
6.92017e-19
3.98053e-18
1.70297e-16
3.44646e-16
3.63168e-15
1.65715e-14
5.01264e-14
1.66186e-13
4.26836e-12
2.56981e-12
2.25488e-11
6.30854e-11
1.261e-11
9.67518e-11
3.55065e-11
1.79682e-10
0
2.61892e-11
2.65073e-13
8.00181e-13
2.23698e-13
4.92779e-13
2.58396e-13
1.63552e-12
3.94966e-11
3.61503e-10
1.9237e-12
2.32076e-11
0
-1.07176e-12
7.12337e-14
-9.21014e-13
3.71419e-14
-1.74985e-13
5.20012e-14
-1.23891e-13
6.22719e-14
-4.65749e-14
4.49339e-14
-1.55208e-14
1.75741e-12
-3.00104e-14
1.88194e-12
4.07443e-13
4.32986e-13
6.67721e-13
0
1.07887e-13
5.49366e-15
7.46457e-15
4.687e-15
4.21371e-15
4.55554e-14
7.26337e-15
9.46107e-12
3.34813e-11
9.9646e-12
6.22104e-11
2.93091e-13
1.68588e-11
1.13796e-13
5.29858e-12
-1.2651e-13
1.596e-12
-5.86575e-16
4.32889e-12
-1.51782e-16
8.77109e-16
-6.82995e-17
7.50619e-16
-6.64341e-17
6.51128e-16
-7.24008e-17
5.88551e-16
-7.75848e-17
5.76353e-16
-8.1254e-17
5.66018e-16
-7.94316e-17
5.298e-16
-7.24343e-17
4.49867e-16
-5.70712e-17
3.54917e-16
-3.16867e-17
2.17165e-16
-8.44858e-18
8.24467e-17
-2.62571e-19
1.37006e-17
1.15979e-19
7.38463e-23
1.58979e-21
1.81172e-21
3.92922e-20
9.4613e-21
2.21553e-19
3.54427e-20
7.76016e-19
1.1107e-18
6.9176e-18
1.09514e-16
3.9433e-16
2.70784e-15
1.14284e-14
1.30812e-13
4.23695e-14
3.37109e-12
1.27339e-11
1.42431e-11
5.4249e-12
1.18235e-11
6.17962e-11
3.46195e-11
1.83423e-10
4.50906e-14
2.73608e-11
4.751e-13
1.14999e-12
1.0221e-12
2.28531e-12
1.26727e-10
4.13019e-10
6.6277e-11
3.84912e-10
1.48057e-12
3.33826e-12
1.19555e-12
-1.67394e-12
9.15934e-13
-9.56463e-13
1.47086e-12
-1.42761e-12
1.28406e-12
-2.44939e-12
1.12665e-13
-4.91845e-13
1.18275e-13
-3.56431e-14
1.31089e-12
-4.95347e-16
1.96012e-12
2.68369e-13
1.98396e-12
1.01032e-12
1.7071e-14
2.27541e-13
1.27774e-14
1.3587e-14
1.44225e-14
5.23835e-15
5.47941e-12
3.26811e-13
1.56689e-11
6.38519e-11
9.43341e-12
6.68502e-11
0
6.44063e-11
-9.86329e-14
7.7286e-12
-5.71095e-13
1.11384e-11
-4.68251e-16
5.0361e-12
-1.72012e-16
8.7779e-16
-1.03375e-16
8.37397e-16
-8.90512e-17
8.59251e-16
-9.46947e-17
5.94807e-16
-1.00667e-16
5.80976e-16
-1.04625e-16
5.7834e-16
-1.03598e-16
5.44483e-16
-9.43402e-17
4.7295e-16
-6.64988e-17
3.53714e-16
-2.77108e-17
1.7371e-16
-4.92485e-18
4.71986e-17
-6.86309e-20
5.33481e-18
2.43279e-20
1.36175e-22
2.56765e-21
2.95412e-21
5.61423e-20
1.5761e-20
3.25669e-19
5.94387e-20
1.15188e-18
9.49552e-19
9.10861e-18
1.09984e-16
2.93401e-16
4.49012e-15
5.4148e-15
7.89556e-14
2.58368e-13
1.65641e-12
1.42427e-11
2.87181e-12
1.65233e-12
5.4462e-12
2.34461e-11
3.37598e-11
1.81648e-10
7.50465e-12
1.98018e-11
3.76382e-11
7.6672e-12
1.32553e-10
5.27561e-10
1.28617e-10
4.208e-10
1.72691e-10
3.12088e-10
2.8972e-12
-7.42519e-12
1.4804e-12
-2.15929e-12
1.413e-12
-1.78857e-12
3.00282e-12
-2.8467e-12
3.18181e-12
-2.53893e-12
9.28944e-13
-1.63949e-12
2.22309e-13
-1.87459e-13
1.49075e-13
4.92396e-16
1.8955e-12
4.44608e-14
8.80276e-13
3.19485e-13
2.31203e-14
2.04285e-13
1.48107e-14
1.23092e-14
1.92885e-14
6.5145e-15
8.41663e-12
2.85775e-12
1.28755e-11
6.13414e-11
6.13272e-12
7.24347e-11
1.78818e-13
6.53471e-11
-1.1649e-12
9.48196e-12
-1.44537e-12
1.31725e-11
-3.54166e-16
5.18217e-12
-2.75133e-16
9.09579e-16
-2.1515e-16
1.0378e-15
-1.17356e-16
1.46954e-15
-1.22386e-16
6.01157e-16
-1.2655e-16
5.84173e-16
-1.32766e-16
6.10584e-16
-1.36687e-16
5.96222e-16
-1.16296e-16
4.97137e-16
-6.38313e-17
3.06981e-16
-1.83821e-17
1.10489e-16
-2.1515e-18
2.08304e-17
-1.74479e-20
1.61499e-18
5.55437e-21
2.16679e-22
3.58568e-21
4.26727e-21
7.08839e-20
2.38866e-20
4.39989e-19
8.81956e-20
1.54444e-18
7.64164e-19
9.34979e-18
5.30124e-17
1.7162e-16
5.58215e-15
1.29237e-15
2.36075e-13
6.20847e-13
7.66215e-13
2.34349e-12
8.20332e-13
3.30375e-12
1.99334e-12
1.98495e-11
3.25242e-11
1.80115e-10
9.07091e-12
1.69273e-11
8.0536e-11
2.9153e-11
1.68387e-10
4.70699e-10
1.88395e-10
3.92232e-10
1.80045e-10
1.65837e-10
2.8885e-12
-2.69263e-12
0
-2.13683e-12
2.5066e-12
0
3.33288e-12
-3.55875e-12
3.35119e-12
-2.54243e-12
3.0376e-12
-1.22208e-12
9.14678e-14
-1.18333e-13
1.45756e-14
2.73664e-15
4.19599e-14
3.95237e-16
2.19212e-13
0
6.14758e-14
2.66914e-14
1.31077e-14
1.22809e-14
4.63678e-14
9.9486e-15
9.86866e-12
6.97783e-12
8.1374e-12
6.45989e-11
1.84388e-12
7.92471e-11
-2.02044e-12
2.78147e-11
-2.38197e-12
1.05328e-11
-1.16648e-12
1.36255e-11
-4.6426e-16
5.28002e-12
-3.93978e-16
9.69513e-16
-3.36338e-16
1.26851e-15
-1.54338e-16
1.61288e-15
-1.50855e-16
6.11514e-16
-1.70152e-16
6.1888e-16
-1.7824e-16
6.9271e-16
-1.73333e-16
6.63185e-16
-1.18656e-16
4.65673e-16
-4.60725e-17
2.08822e-16
-8.96937e-18
5.27834e-17
-7.10271e-19
7.03039e-18
-4.19922e-21
3.88308e-19
1.34314e-21
2.95372e-22
4.28428e-21
5.38715e-21
7.8165e-20
3.29308e-20
5.41241e-19
1.15996e-19
1.8856e-18
5.16239e-19
6.78605e-18
8.1918e-17
7.09928e-17
2.13777e-14
5.9204e-15
1.24073e-13
9.97075e-13
2.5095e-13
3.18863e-13
1.44876e-12
1.92832e-12
3.65911e-11
2.2369e-10
2.2668e-11
5.58743e-11
7.83111e-12
1.88275e-11
6.74328e-11
1.73971e-10
1.87324e-10
3.56496e-10
2.05845e-10
3.686e-10
1.30228e-11
9.05591e-12
4.23872e-12
-1.79144e-12
1.64449e-12
-2.10724e-12
4.13561e-12
-7.61822e-13
3.28158e-12
-2.46961e-12
2.04186e-12
-1.64067e-12
5.02272e-13
-3.38012e-13
0
-1.23416e-14
5.72408e-16
6.47534e-16
3.04492e-15
5.92098e-16
1.15158e-14
6.10793e-17
3.11186e-14
0
1.69022e-14
1.14143e-14
1.21702e-13
1.86716e-14
7.87351e-12
1.66455e-11
3.10848e-12
7.09719e-11
-5.27038e-13
8.39132e-11
-2.27334e-12
2.06626e-12
-3.81878e-12
7.50106e-12
-2.47307e-12
1.36379e-11
-6.85988e-16
3.84012e-12
-5.15951e-16
9.81471e-16
-4.12189e-16
1.32949e-15
-1.68856e-16
1.69455e-15
-1.85394e-16
6.57635e-16
-2.13548e-16
6.77463e-16
-2.19257e-16
7.24617e-16
-1.9273e-16
6.80204e-16
-9.07921e-17
3.55556e-16
-2.37904e-17
1.01184e-16
-3.25523e-18
1.86855e-17
-1.8512e-19
1.88176e-18
-1.01482e-21
8.03688e-20
3.25735e-22
3.46065e-22
4.47554e-21
6.0356e-21
7.89586e-20
4.1018e-20
5.99504e-19
1.34741e-19
2.13084e-18
4.66566e-19
4.27812e-18
6.18332e-17
2.42172e-17
4.60212e-15
2.26046e-14
9.16206e-14
8.73415e-13
1.36855e-13
3.56158e-13
8.7925e-12
3.20992e-12
1.64761e-11
2.4793e-10
1.18763e-11
3.68308e-11
6.69389e-12
1.8255e-11
1.65876e-10
6.18289e-10
1.92658e-10
3.31278e-10
2.50168e-10
3.16778e-10
6.6362e-12
3.10049e-12
1.60216e-14
-1.56344e-12
3.14013e-12
-8.20005e-12
2.00099e-12
-6.93852e-12
2.00402e-13
-6.6588e-13
1.18361e-13
-8.46059e-14
3.58259e-15
-6.68354e-15
2.37308e-15
-3.10121e-16
1.8413e-15
4.59921e-16
1.72412e-15
1.01507e-15
1.95122e-15
1.31946e-15
3.53174e-15
5.62937e-16
9.10652e-15
7.37411e-15
1.13495e-13
2.07108e-14
2.48245e-12
3.25592e-11
-1.52805e-13
7.75993e-11
-2.92182e-12
3.21606e-11
-1.78884e-12
8.08088e-13
-2.51275e-12
5.7888e-12
-8.08875e-13
1.36026e-11
-9.02826e-16
1.48462e-12
-6.00022e-16
9.10036e-16
-4.76073e-16
1.30571e-15
-2.00046e-16
1.70666e-15
-2.33068e-16
6.78659e-16
-2.48104e-16
7.59966e-16
-2.31207e-16
7.39397e-16
-1.69161e-16
6.3722e-16
-4.76386e-17
1.95017e-16
-8.82236e-18
3.41268e-17
-9.33604e-19
5.11161e-18
-4.33169e-20
4.2792e-19
-2.47004e-22
1.66721e-20
7.81761e-23
3.68011e-22
4.47641e-21
6.32691e-21
7.74184e-20
4.62172e-20
6.07784e-19
1.37488e-19
2.31578e-18
4.85005e-19
3.13536e-18
1.9321e-16
3.71559e-17
6.97975e-15
3.14539e-14
4.24338e-14
2.35156e-14
3.95273e-13
2.87931e-13
2.70909e-12
1.72088e-11
3.23395e-11
2.51224e-10
8.42657e-12
4.61847e-11
1.09118e-10
3.26475e-11
1.95352e-10
5.24809e-10
2.08614e-10
3.22745e-10
7.68655e-11
6.9875e-11
0
6.87561e-13
5.89501e-12
-1.11451e-11
9.70281e-12
-1.83849e-11
4.88241e-13
-5.60678e-12
5.27577e-14