/*--------------------------------*- C++ -*----------------------------------*\
  =========                 |
  \\      /  F ield         | OpenFOAM: The Open Source CFD Toolbox
   \\    /   O peration     | Website:  https://openfoam.org
    \\  /    A nd           | Version:  9
     \\/     M anipulation  |
\*---------------------------------------------------------------------------*/
FoamFile
{
    format      ascii;
    class       volScalarField;
    location    "0.06";
    object      p;
}
// * * * * * * * * * * * * * * * * * * * * * * * * * * * * * * * * * * * * * //

dimensions      [1 -1 -2 0 0 0 0];

internalField   nonuniform List<scalar> 
5000
(
0.907561
0.898195
0.887276
0.873828
0.856549
0.834351
0.805782
0.768384
0.718089
0.651339
0.596762
0.665145
0.915617
20.2724
28.5132
28.0609
28.1745
28.6301
29.0049
29.188
29.3037
29.3618
29.3441
29.2419
29.0202
28.6264
28.0208
27.1778
26.0093
18.5844
0.656793
0.513515
0.526944
0.526506
0.546613
0.571668
0.602695
0.637138
0.672166
0.706018
0.737885
0.767548
0.795086
0.820696
0.844587
0.866945
0.887931
0.907672
0.926264
0.943566
0.901388
0.892422
0.882264
0.870046
0.854733
0.835978
0.813263
0.784978
0.750731
0.714144
0.709383
0.866528
1.25077
18.3006
28.3166
27.8203
28.0451
28.6582
29.0963
29.2799
29.3952
29.4614
29.4596
29.3878
29.2039
28.8377
28.2446
27.5548
26.7863
14.0372
0.509753
0.550712
0.560841
0.566635
0.574746
0.591815
0.616059
0.645435
0.67707
0.708812
0.739395
0.768241
0.795214
0.820394
0.843936
0.866001
0.886731
0.906246
0.924624
0.941767
0.895699
0.887305
0.877892
0.866895
0.853736
0.838412
0.82095
0.800751
0.779916
0.766624
0.78312
0.925802
1.20954
10.1052
26.8959
27.0303
27.7232
28.6431
29.1991
29.3994
29.5166
29.5986
29.6372
29.6347
29.5734
29.3719
28.949
28.7213
28.3241
6.59935
0.564179
0.591482
0.597894
0.596284
0.597777
0.608935
0.62787
0.652962
0.68159
0.711404
0.740794
0.768888
0.795348
0.820141
0.843362
0.865142
0.885612
0.904882
0.923022
0.939974
0.89041
0.882582
0.873901
0.864099
0.852964
0.840663
0.827589
0.813844
0.802046
0.802619
0.832874
0.955331
1.09803
2.28918
25.2999
26.1826
27.3852
28.7038
29.3479
29.5457
29.6572
29.7539
29.8423
29.9499
30.0572
30.0665
29.7501
30.1565
24.0765
3.12369
0.642934
0.600755
0.600931
0.603074
0.606391
0.616746
0.634234
0.657356
0.684298
0.712903
0.741499
0.769083
0.795194
0.819713
0.842689
0.864233
0.884467
0.903503
0.92141
0.938172
0.885447
0.878091
0.87008
0.861338
0.851867
0.841977
0.832298
0.82343
0.81794
0.826
0.865481
0.990953
1.03656
0.673382
20.0658
26.5762
27.5269
29.0097
29.5707
29.6951
29.7833
29.8913
30.0286
30.2727
30.5194
30.5345
29.822
30.544
11.6131
1.42861
0.66592
0.669605
0.642635
0.613888
0.615375
0.624671
0.639929
0.661127
0.686545
0.714049
0.74192
0.769046
0.794853
0.819136
0.841897
0.863226
0.883239
0.902051
0.919745
0.936344
0.880702
0.873725
0.866282
0.858385
0.850179
0.842072
0.83472
0.829165
0.828921
0.843507
0.893899
0.985165
0.994078
1.04538
9.48435
28.3998
28.5051
29.438
29.7941
29.7986
29.8409
29.9713
30.154
30.552
30.7982
30.2198
29.1792
22.1653
3.23268
0.642671
0.632578
0.634186
0.701869
0.620191
0.625633
0.632831
0.6468
0.666172
0.689808
0.715955
0.742888
0.769386
0.794759
0.818715
0.841195
0.86226
0.882013
0.900569
0.918036
0.934492
0.876088
0.869394
0.862381
0.855083
0.847717
0.840731
0.834685
0.83064
0.833124
0.851688
0.896835
0.972006
0.951759
0.966463
3.37755
21.3749
28.9628
29.2874
29.8514
29.7893
29.7676
29.9584
30.1601
30.829
31.1839
29.9716
25.9739
5.77411
0.649349
0.652803
0.643902
0.646402
0.653194
0.664606
0.634282
0.640358
0.653362
0.671426
0.693688
0.718618
0.744575
0.770331
0.79514
0.818642
0.840729
0.861429
0.88082
0.898974
0.915908
0.931856
0.871557
0.865042
0.858296
0.851343
0.844389
0.837842
0.8321
0.827711
0.829034
0.846799
0.877063
0.926688
0.92507
0.958185
0.895412
7.68516
26.9995
28.8142
29.8156
29.6506
29.4802
29.7462
30.021
31.522
32.8398
24.178
5.63255
0.714384
0.673878
0.665269
0.664173
0.660492
0.644396
0.716028
0.640539
0.648453
0.660055
0.677075
0.698257
0.722071
0.747032
0.77196
0.796084
0.819007
0.840585
0.860827
0.879815
0.89763
0.914231
0.929945
0.86708
0.860639
0.853991
0.847145
0.840219
0.833475
0.827062
0.820932
0.818241
0.829078
0.847195
0.871325
0.886494
0.940585
0.868102
0.792322
9.27936
23.0805
30.329
29.7241
28.9882
29.3524
29.7346
23.1267
10.639
3.57611
0.515638
0.648947
0.658833
0.664306
0.66665
0.662409
0.660174
0.715051
0.663287
0.662888
0.671338
0.685904
0.705101
0.727283
0.75091
0.774747
0.79798
0.820165
0.841124
0.860835
0.879366
0.896813
0.913192
0.928698
0.862646
0.856182
0.849481
0.842529
0.835326
0.827909
0.820126
0.811391
0.803672
0.806048
0.815836
0.826297
0.87726
0.848014
0.826849
0.771108
0.800791
3.83203
10.8691
18.9171
19.1241
13.9865
5.86165
2.21854
1.02373
0.832504
0.669456
0.67714
0.674939
0.674967
0.67408
0.673003
0.674302
0.726274
0.674702
0.672667
0.681065
0.694816
0.712848
0.73372
0.756043
0.778686
0.800875
0.822167
0.842362
0.861409
0.879347
0.896248
0.912168
0.927271
0.858262
0.851693
0.844815
0.837585
0.829892
0.821531
0.812033
0.800488
0.788323
0.784715
0.788621
0.800347
0.793892
0.802402
0.797381
0.765913
0.750191
0.73008
0.770576
0.800437
0.769099
0.743152
0.715379
0.725831
0.729778
0.730052
0.701517
0.688087
0.686508
0.685217
0.683463
0.678558
0.684892
0.681696
0.682769
0.679424
0.68976
0.703853
0.721347
0.741155
0.762206
0.783568
0.804567
0.824788
0.844029
0.862223
0.87939
0.895594
0.910913
0.925558
0.853948
0.847209
0.840063
0.832432
0.82412
0.814711
0.803438
0.789269
0.773532
0.766054
0.762546
0.787899
0.788122
0.783699
0.776182
0.757433
0.738973
0.724902
0.728922
0.72979
0.72817
0.726148
0.721198
0.71817
0.71997
0.720782
0.704618
0.699141
0.697688
0.695944
0.693971
0.691669
0.699952
0.694071
0.69396
0.697743
0.705714
0.71767
0.733015
0.750774
0.769928
0.789584
0.809102
0.828018
0.846131
0.863348
0.879659
0.89511
0.909781
0.923923
0.849729
0.842773
0.835304
0.827195
0.8182
0.807729
0.794747
0.778123
0.759038
0.746434
0.742998
0.771343
0.761949
0.764055
0.759249
0.748126
0.734092
0.725222
0.725549
0.726032
0.725096
0.723313
0.721158
0.720514
0.72192
0.720947
0.712441
0.707853
0.706465
0.704752
0.702158
0.698253
0.721645
0.717372
0.716742
0.718563
0.724107
0.733491
0.746237
0.761555
0.778496
0.796199
0.814008
0.831479
0.848355
0.864509
0.879908
0.894549
0.908464
0.922027
0.845637
0.838431
0.83061
0.821995
0.812303
0.800818
0.786302
0.767528
0.745562
0.730405
0.726742
0.749724
0.74849
0.746599
0.744243
0.737876
0.728518
0.723222
0.722851
0.722915
0.722201
0.722211
0.72218
0.72244
0.722449
0.720704
0.716536
0.714125
0.713517
0.71294
0.711681
0.709419
0.735539
0.734501
0.728473
0.731725
0.737361
0.745924
0.757226
0.770836
0.786012
0.802036
0.818324
0.834455
0.850162
0.865305
0.879848
0.89378
0.907041
0.920034
0.841701
0.834224
0.826047
0.816937
0.806589
0.794224
0.778522
0.758258
0.734918
0.716053
0.715292
0.7223
0.735485
0.730772
0.730651
0.727297
0.721116
0.717499
0.717165
0.718014
0.719842
0.721123
0.722071
0.72271
0.722542
0.721382
0.719566
0.718836
0.719432
0.720605
0.72199
0.723791
0.729294
0.749434
0.736553
0.740886
0.746795
0.7549
0.76527
0.777667
0.791522
0.80624
0.821307
0.836337
0.851078
0.865386
0.879229
0.89264
0.905572
0.918275
0.837955
0.830195
0.821673
0.81211
0.80119
0.788137
0.771653
0.750586
0.726532
0.705732
0.706402
0.706639
0.723469
0.716736
0.718658
0.717137
0.712769
0.709959
0.712092
0.719402
0.72223
0.719276
0.721113
0.722166
0.722409
0.722049
0.721638
0.722115
0.723732
0.726128
0.728892
0.731544
0.733108
0.758456
0.758281
0.750009
0.754511
0.761511
0.770826
0.782118
0.79487
0.808518
0.822577
0.83668
0.850583
0.864152
0.877357
0.890265
0.902939
0.915865
0.834427
0.826386
0.81754
0.807579
0.796184
0.782635
0.765732
0.744577
0.721212
0.701763
0.693277
0.702558
0.711114
0.705415
0.70855
0.707863
0.704311
0.701672
0.707749
0.71299
0.713223
0.716565
0.719276
0.720851
0.721634
0.721969
0.722449
0.723718
0.726032
0.729265
0.733159
0.737358
0.741634
0.762144
0.768472
0.751119
0.756751
0.76387
0.772878
0.783612
0.795677
0.808582
0.821875
0.835204
0.848323
0.861085
0.873424
0.885352
0.896821
0.907786
0.831142
0.822836
0.81369
0.803383
0.79161
0.777735
0.760729
0.740143
0.717461
0.700445
0.69264
0.693186
0.703358
0.697596
0.700414
0.699719
0.696367
0.69366
0.698988
0.702526
0.70899
0.713553
0.716768
0.719443
0.720335
0.72088
0.721799
0.723377
0.725876
0.729328
0.733676
0.738777
0.744454
0.750631
0.776037
0.754062
0.756559
0.763129
0.771824
0.782262
0.793989
0.806504
0.819367
0.832243
0.844913
0.857262
0.869266
0.880988
0.89247
0.903417
0.828122
0.819573
0.810149
0.799541
0.787467
0.77339
0.756458
0.736534
0.715067
0.698516
0.690584
0.69555
0.691673
0.692672
0.694118
0.692631
0.688896
0.686258
0.689177
0.696994
0.704461
0.709947
0.713757
0.716629
0.718047
0.718743
0.719624
0.721012
0.72305
0.725794
0.729203
0.733171
0.737869
0.738779
0.765709
0.751873
0.751317
0.758341
0.767377
0.778063
0.78991
0.80242
0.815178
0.827884
0.840354
0.852505
0.864341
0.875932
0.887308
0.898023
0.825386
0.816616
0.806935
0.796061
0.783741
0.769529
0.752741
0.733435
0.713042
0.696916
0.687726
0.695698
0.688505
0.68941
0.688882
0.686337
0.682178
0.688214
0.681277
0.690774
0.699624
0.705944
0.710285
0.712998
0.714779
0.715678
0.716119
0.716968
0.718091
0.719472
0.720962
0.722169
0.731791
0.731048
0.733757
0.738422
0.741637
0.749998
0.760064
0.771512
0.783864
0.796659
0.809533
0.822239
0.834644
0.846704
0.858451
0.86997
0.88126
0.891732
0.822949
0.813982
0.804065
0.792954
0.780422
0.766109
0.74951
0.730896
0.71197
0.698442
0.689197
0.6964
0.686396
0.686954
0.684733
0.68047
0.679733
0.67767
0.672151
0.684342
0.694719
0.701739
0.706486
0.709349
0.710827
0.711826
0.711897
0.711955
0.712127
0.712247
0.712266
0.712661
0.730117
0.717272
0.721275
0.725857
0.732523
0.741318
0.752061
0.764119
0.77692
0.78999
0.802992
0.815722
0.828095
0.840102
0.851791
0.863255
0.874457
0.884632
0.820833
0.81169
0.80156
0.79023
0.777501
0.763092
0.746675
0.728741
0.711389
0.697195
0.690011
0.695515
0.684555
0.68526
0.682019
0.695621
0.716289
0.661912
0.664453
0.678645
0.689997
0.697606
0.702472
0.705448
0.706798
0.7076
0.707562
0.70663
0.706115
0.705401
0.704595
0.708781
0.713196
0.705627
0.709297
0.714953
0.72276
0.732457
0.743986
0.756613
0.76977
0.783014
0.796055
0.808745
0.821039
0.832951
0.844529
0.85587
0.866902
0.876694
0.819053
0.809761
0.799439
0.787903
0.774971
0.760414
0.744056
0.726475
0.710343
0.696549
0.688827
0.692339
0.683015
0.683
0.681016
0.708641
0.700442
0.649497
0.659802
0.674741
0.686194
0.693908
0.698848
0.701382
0.702684
0.702799
0.702774
0.701426
0.700501
0.699358
0.698352
0.699758
0.700175
0.699188
0.699632
0.705604
0.713937
0.724475
0.736582
0.749578
0.762898
0.776144
0.789082
0.801615
0.813732
0.825452
0.836811
0.847906
0.858644
0.867955
0.817629
0.808211
0.797721
0.785986
0.772827
0.758036
0.741496
0.723906
0.707566
0.693682
0.686995
0.688123
0.680943
0.682868
0.692457
0.693668
0.683901
0.651127
0.65887
0.671984
0.682844
0.690316
0.695277
0.697444
0.69849
0.698353
0.697567
0.696383
0.694989
0.693547
0.692513
0.693526
0.69383
0.689344
0.692037
0.698593
0.707335
0.718248
0.730549
0.743554
0.756732
0.769733
0.782375
0.794596
0.806401
0.817795
0.828794
0.839498
0.849801
0.858541
0.816577
0.807061
0.796424
0.784498
0.771089
0.755977
0.739048
0.720923
0.703683
0.688323
0.680095
0.676821
0.673677
0.679189
0.686358
0.683746
0.658642
0.65473
0.659153
0.670096
0.679971
0.686993
0.691456
0.693628
0.694422
0.694079
0.692968
0.69128
0.689123
0.686544
0.683276
0.691648
0.688384
0.685409
0.688141
0.694321
0.702971
0.71381
0.725935
0.738627
0.751391
0.763926
0.776094
0.787854
0.799204
0.810128
0.820626
0.830801
0.84054
0.848647
0.815916
0.80633
0.795572
0.783466
0.769797
0.754298
0.736821
0.71773
0.698727
0.680824
0.676748
0.671984
0.661688
0.663587
0.681904
0.672404
0.658454
0.657312
0.659442
0.668768
0.677249
0.683888
0.688004
0.690072
0.690643
0.690098
0.688721
0.686636
0.683882
0.680598
0.676872
0.687929
0.680621
0.681176
0.684535
0.691911
0.699405
0.710422
0.722313
0.73455
0.746747
0.758681
0.770254
0.781437
0.792214
0.802548
0.81243
0.82197
0.831058
0.838506
0.815665
0.806041
0.795192
0.782933
0.769014
0.753109
0.735016
0.714894
0.69392
0.674391
0.670009
0.663624
0.653348
0.676867
0.677267
0.655318
0.657818
0.6555
0.660166
0.666508
0.674926
0.681057
0.684864
0.68673
0.687168
0.686537
0.68506
0.682855
0.680067
0.677118
0.676122
0.683002
0.672265
0.676808
0.681585
0.690214
0.697529
0.708219
0.71961
0.731211
0.742711
0.753943
0.764833
0.775349
0.785461
0.795118
0.804309
0.813153
0.821546
0.828345
0.81584
0.806216
0.795319
0.782946
0.768812
0.752543
0.733875
0.713017
0.690792
0.671826
0.66284
0.651885
0.646947
0.670046
0.674007
0.641983
0.649614
0.651135
0.656795
0.663936
0.672369
0.678312
0.681867
0.683584
0.683997
0.683405
0.68196
0.679714
0.676752
0.673113
0.676739
0.674488
0.670868
0.674364
0.679833
0.687561
0.696582
0.70686
0.717603
0.728448
0.739166
0.74963
0.759776
0.769564
0.77895
0.787879
0.796347
0.804476
0.812168
0.81835
0.816459
0.80688
0.795986
0.783552
0.76926
0.752714
0.733556
0.712145
0.689127
0.669476
0.657013
0.646183
0.633994
0.658504
0.66941
0.635861
0.642326
0.645793
0.652555
0.661415
0.669723
0.675557
0.678925
0.680569
0.681067
0.680654
0.679416
0.677352
0.67458
0.671496
0.676578
0.668208
0.670158
0.674048
0.679907
0.687495
0.696389
0.706024
0.716008
0.72604
0.735943
0.745615
0.75499
0.764021
0.772657
0.78085
0.788599
0.796027
0.803044
0.808658
0.817534
0.808055
0.797225
0.784796
0.770424
0.753692
0.734113
0.71209
0.688008
0.666445
0.652413
0.634522
0.622693
0.658582
0.639787
0.633524
0.635716
0.641196
0.649551
0.658772
0.666888
0.672589
0.675879
0.67754
0.678232
0.678126
0.677252
0.675605
0.673297
0.671841
0.669296
0.668714
0.670664
0.674761
0.680689
0.688051
0.696428
0.70537
0.714562
0.723776
0.732873
0.741759
0.750367
0.758645
0.766544
0.774022
0.781088
0.787858
0.794247
0.799344
0.819076
0.809762
0.799067
0.786727
0.772368
0.75555
0.735643
0.713049
0.688032
0.666349
0.648368
0.634955
0.620062
0.661234
0.637506
0.633613
0.633482
0.638547
0.64694
0.655931
0.663725
0.669183
0.672488
0.674281
0.675267
0.675557
0.67513
0.674006
0.672171
0.674077
0.66917
0.669627
0.671809
0.675926
0.681661
0.688621
0.696393
0.704616
0.713035
0.721468
0.729795
0.737929
0.745801
0.753359
0.760562
0.767375
0.773811
0.77998
0.785802
0.790437
0.821094
0.812015
0.80154
0.789388
0.775156
0.75838
0.738303
0.71525
0.689573
0.666223
0.646015
0.636681
0.622894
0.655902
0.62557
0.632631
0.631301
0.636595
0.644556
0.653028
0.66024
0.66538
0.668683
0.670639
0.671943
0.672679
0.672756
0.672138
0.671173
0.673319
0.669193
0.670098
0.672627
0.676788
0.682296
0.68881
0.695981
0.703525
0.71123
0.718946
0.726566
0.734004
0.741194
0.74809
0.754659
0.76087
0.766742
0.772376
0.777696
0.781922
0.823588
0.814827
0.804665
0.792813
0.778845
0.762267
0.742237
0.718769
0.692611
0.671465
0.658259
0.638056
0.624498
0.652618
0.626528
0.630969
0.628787
0.634377
0.6435
0.64985
0.656454
0.661244
0.664379
0.66643
0.668018
0.669173
0.669726
0.669466
0.673222
0.670115
0.669326
0.670262
0.672894
0.676978
0.682226
0.688319
0.694958
0.701906
0.708989
0.716077
0.723068
0.729883
0.736464
0.742771
0.748777
0.75446
0.759837
0.765007
0.76989
0.773756
0.82656
0.8182
0.808452
0.797025
0.783477
0.767283
0.747607
0.724038
0.697998
0.675729
0.654214
0.641663
0.63045
0.647765
0.642965
0.621028
0.624473
0.632778
0.638613
0.646357
0.652359
0.656545
0.659377
0.661455
0.663263
0.664798
0.665861
0.666213
0.673197
0.667398
0.667845
0.669289
0.672119
0.676173
0.681221
0.686976
0.693184
0.699647
0.706215
0.71277
0.719222
0.725498
0.73155
0.737347
0.742868
0.748094
0.753046
0.757817
0.762327
0.765876
0.830003
0.82213
0.812901
0.802027
0.789069
0.773473
0.754503
0.731462
0.705955
0.68331
0.660673
0.647756
0.643143
0.642895
0.648358
0.622446
0.6174
0.625787
0.635544
0.642988
0.647822
0.651131
0.65347
0.655492
0.657453
0.659322
0.660682
0.661432
0.668944
0.663242
0.664472
0.666654
0.669896
0.674115
0.679122
0.684682
0.690594
0.696695
0.702859
0.708982
0.714985
0.720809
0.726414
0.731779
0.736888
0.741726
0.746316
0.750749
0.754945
0.758212
0.833904
0.826603
0.817998
0.807806
0.795608
0.780836
0.762844
0.74085
0.715846
0.69375
0.668717
0.651391
0.642411
0.648111
0.647976
0.613358
0.614277
0.62444
0.633291
0.639153
0.64251
0.644791
0.646578
0.648442
0.650521
0.652605
0.654335
0.65762
0.66091
0.65824
0.659761
0.66263
0.666361
0.670866
0.675964
0.681466
0.68721
0.693067
0.69893
0.704715
0.710355
0.715806
0.72104
0.726044
0.730806
0.735316
0.739599
0.743749
0.747678
0.750692
0.838245
0.831595
0.823717
0.814332
0.803054
0.789331
0.772545
0.751987
0.728034
0.704071
0.679272
0.661146
0.667315
0.66562
0.648358
0.616066
0.617697
0.62458
0.631065
0.635402
0.636402
0.637354
0.638515
0.640152
0.642285
0.644655
0.646818
0.650989
0.653272
0.651263
0.65401
0.657562
0.661819
0.666665
0.671936
0.677472
0.683144
0.688846
0.694492
0.700015
0.705365
0.710511
0.715438
0.72014
0.724611
0.728842
0.732862
0.73677
0.740472
0.743253
0.842997
0.837078
0.830021
0.821564
0.811357
0.798899
0.783566
0.764773
0.74255
0.720452
0.698058
0.681816
0.665036
0.680733
0.649989
0.624152
0.621882
0.625181
0.628253
0.630744
0.629583
0.628766
0.629243
0.630559
0.632568
0.634859
0.636642
0.642307
0.643831
0.644946
0.647854
0.651845
0.656566
0.661763
0.667249
0.67288
0.678543
0.684153
0.689641
0.694959
0.700075
0.70497
0.709639
0.714086
0.718306
0.722294
0.726084
0.729781
0.733283
0.735845
0.848126
0.843009
0.836862
0.829447
0.820457
0.809457
0.795799
0.778858
0.758037
0.736928
0.717568
0.701753
0.688493
0.695673
0.642354
0.633454
0.627302
0.626071
0.624744
0.623923
0.621603
0.619043
0.618845
0.619811
0.621719
0.624095
0.62747
0.630912
0.633272
0.636088
0.640432
0.645323
0.650678
0.656315
0.66208
0.667857
0.673558
0.679118
0.68449
0.689644
0.694564
0.699245
0.703693
0.707915
0.711914
0.715684
0.719264
0.722769
0.726087
0.728434
0.853592
0.84934
0.844185
0.83792
0.830283
0.820906
0.809133
0.794109
0.775642
0.75519
0.732453
0.714192
0.693202
0.711153
0.651877
0.643127
0.632858
0.626295
0.620283
0.616307
0.611767
0.608457
0.607542
0.608113
0.609939
0.612786
0.616309
0.62046
0.621069
0.626516
0.63223
0.638211
0.64435
0.650517
0.656617
0.662577
0.668344
0.673879
0.679158
0.684172
0.688921
0.693413
0.69766
0.701677
0.705471
0.709035
0.712416
0.715735
0.718874
0.721006
0.859345
0.856017
0.851927
0.846909
0.840754
0.833151
0.823488
0.810621
0.794016
0.773195
0.747586
0.726352
0.708597
0.720394
0.666571
0.650831
0.636909
0.625584
0.615286
0.608069
0.601566
0.597197
0.595639
0.595688
0.596947
0.600033
0.604822
0.60841
0.612234
0.617975
0.624503
0.631298
0.638088
0.644724
0.65113
0.657258
0.663082
0.668589
0.673779
0.678659
0.683246
0.687556
0.691611
0.695431
0.699023
0.702385
0.705566
0.708698
0.711653
0.713565
0.86533
0.862976
0.860017
0.85633
0.851768
0.846078
0.838716
0.828377
0.813596
0.792344
0.765539
0.743606
0.747356
0.717907
0.679203
0.657052
0.640068
0.624445
0.610147
0.599672
0.591146
0.585854
0.583639
0.583173
0.583944
0.590184
0.593689
0.596038
0.6025
0.609791
0.617359
0.624907
0.632237
0.639243
0.645875
0.652113
0.657952
0.663404
0.668485
0.673222
0.67764
0.681765
0.685624
0.689242
0.692629
0.695782
0.698756
0.701691
0.704452
0.706139
0.871489
0.870151
0.868376
0.866087
0.863202
0.859541
0.854622
0.847144
0.835102
0.816328
0.790312
0.810496
0.77155
0.722602
0.685655
0.663019
0.64296
0.623069
0.605043
0.591648
0.580901
0.575163
0.572128
0.571255
0.572158
0.579117
0.580434
0.586157
0.59408
0.602541
0.611034
0.619236
0.627002
0.634275
0.641043
0.647314
0.653109
0.658459
0.6634
0.667968
0.672199
0.676124
0.679774
0.683179
0.686348
0.689281
0.692036
0.694761
0.697314
0.698768
0.877758
0.877467
0.876916
0.87607
0.874914
0.873355
0.870974
0.866444
0.857832
0.842265
0.821496
0.792768
0.767543
0.731723
0.696455
0.67055
0.645669
0.621246
0.599836
0.584411
0.57181
0.565437
0.561614
0.560373
0.56218
0.564854
0.570801
0.578695
0.587627
0.5969
0.605985
0.61459
0.622605
0.629999
0.636787
0.642999
0.648679
0.653873
0.65863
0.662996
0.667012
0.670714
0.674137
0.677309
0.680245
0.682944
0.685466
0.687966
0.690296
0.691514
0.884072
0.884848
0.885541
0.886159
0.886748
0.887298
0.887456
0.885767
0.880461
0.868349
0.85165
0.832332
0.80134
0.750512
0.711665
0.677867
0.647014
0.618424
0.594648
0.576932
0.564157
0.556705
0.552284
0.552368
0.553579
0.557995
0.564814
0.57356
0.583221
0.592995
0.602382
0.611144
0.619203
0.626554
0.633231
0.639282
0.644766
0.649741
0.654266
0.65839
0.662159
0.66561
0.66878
0.6717
0.674384
0.676832
0.679108
0.681367
0.68346
0.684441
0.890364
0.892212
0.89415
0.896228
0.898546
0.901145
0.90371
0.904516
0.901647
0.891038
0.872889
0.843824
0.817454
0.765554
0.722976
0.683195
0.646957
0.614767
0.590848
0.570327
0.557321
0.549426
0.544927
0.545028
0.547185
0.552848
0.560952
0.570558
0.58074
0.590766
0.600222
0.608932
0.616855
0.624012
0.630453
0.636243
0.641451
0.646144
0.650383
0.654223
0.657708
0.660878
0.663769
0.666414
0.668827
0.67101
0.673024
0.675028
0.676872
0.677617
0.896568
0.899477
0.902645
0.906155
0.91016
0.914716
0.919495
0.922469
0.92102
0.910876
0.893879
0.875626
0.845148
0.775746
0.732909
0.687537
0.646493
0.611426
0.585428
0.564793
0.551239
0.543583
0.540289
0.540325
0.543531
0.550434
0.559509
0.569731
0.580165
0.590189
0.599491
0.607957
0.61558
0.622405
0.628497
0.633934
0.638791
0.64314
0.647044
0.650555
0.653721
0.656578
0.659165
0.661514
0.663638
0.665539
0.667281
0.669016
0.670599
0.671116
0.902618
0.906565
0.910931
0.915831
0.921468
0.927902
0.934742
0.939843
0.93957
0.929998
0.912682
0.902137
0.843844
0.79399
0.7417
0.690653
0.646039
0.609439
0.581564
0.561589
0.546959
0.539838
0.536599
0.538004
0.542882
0.550866
0.560624
0.571108
0.581476
0.591236
0.600165
0.608204
0.615377
0.621745
0.627388
0.63239
0.636829
0.640778
0.644298
0.647441
0.650252
0.652768
0.655026
0.657057
0.658876
0.660484
0.661942
0.663397
0.664711
0.665007
0.90845
0.913398
0.918919
0.925159
0.932365
0.940616
0.949402
0.956555
0.957298
0.949486
0.945946
0.914947
0.857367
0.805532
0.74726
0.693136
0.646318
0.608649
0.580189
0.559145
0.546062
0.539188
0.536936
0.539305
0.545433
0.554126
0.564181
0.574561
0.584562
0.593815
0.602176
0.609629
0.616221
0.622027
0.627135
0.63163
0.635593
0.639091
0.642184
0.644922
0.647347
0.649497
0.651404
0.653101
0.6546
0.655903
0.657069
0.658235
0.659273
0.659356
0.914001
0.919904
0.926528
0.934046
0.942747
0.952728
0.963344
0.972582
0.974131
0.966276
0.970214
0.911376
0.867223
0.810342
0.752493
0.696484
0.647966
0.609553
0.58405
0.56027
0.547985
0.541874
0.540731
0.544144
0.551006
0.560016
0.569953
0.579887
0.589257
0.597798
0.605429
0.612164
0.618069
0.623228
0.62773
0.631662
0.635097
0.638102
0.640733
0.643035
0.645048
0.646809
0.648348
0.649694
0.650862
0.651852
0.652719
0.653589
0.654343
0.654223
0.91921
0.926012
0.933676
0.942403
0.952503
0.964112
0.976394
0.987655
0.991049
0.987035
0.968145
0.928804
0.876198
0.818383
0.758386
0.700786
0.651539
0.614824
0.586845
0.564466
0.552801
0.547766
0.547746
0.552013
0.559279
0.568206
0.577655
0.586854
0.595375
0.603039
0.609809
0.615726
0.620863
0.62531
0.629154
0.632476
0.635346
0.637825
0.639963
0.641805
0.643386
0.64474
0.645897
0.646882
0.647709
0.64838
0.648942
0.649509
0.649975
0.649661
0.924017
0.931658
0.940289
0.950141
0.961532
0.974634
0.988575
1.00072
1.00547
1.00116
0.973508
0.940228
0.886292
0.826877
0.764004
0.705236
0.65757
0.621325
0.590967
0.571506
0.560829
0.556842
0.55778
0.562589
0.569867
0.578327
0.586981
0.595216
0.602721
0.609383
0.615199
0.620224
0.624538
0.628227
0.631375
0.634055
0.636331
0.638259
0.639885
0.641249
0.642384
0.64332
0.644084
0.6447
0.645179
0.645526
0.64578
0.646039
0.646214
0.645713
0.928368
0.936778
0.946295
0.957177
0.969737
0.984175
0.999304
1.01216
1.01722
1.01174
0.988219
0.953885
0.895347
0.833587
0.769075
0.710109
0.666647
0.628137
0.600527
0.58144
0.571886
0.568849
0.570473
0.575442
0.582341
0.590006
0.597623
0.604727
0.611099
0.616676
0.621476
0.625564
0.629019
0.631923
0.634351
0.636369
0.638036
0.639398
0.6405
0.641375
0.642055
0.642565
0.642931
0.643172
0.643302
0.643321
0.643265
0.643212
0.643092
0.642413
0.932212
0.941314
0.951626
0.963429
0.977031
0.99264
1.00909
1.02278
1.03065
1.0297
0.99607
0.965695
0.900945
0.838707
0.773584
0.715999
0.673805
0.635982
0.611198
0.593858
0.58558
0.583344
0.585337
0.590087
0.596266
0.60288
0.60929
0.615153
0.620321
0.624764
0.628518
0.631648
0.63423
0.636336
0.638035
0.639383
0.640432
0.641224
0.641796
0.642179
0.642401
0.642484
0.642449
0.642315
0.642092
0.641785
0.641417
0.64105
0.640635
0.639784
0.935506
0.945215
0.956218
0.968819
0.983328
0.999956
1.01777
1.0328
1.04292
1.04079
1.0093
0.970485
0.907528
0.842804
0.778083
0.723946
0.681595
0.647952
0.623738
0.608335
0.601397
0.599799
0.601842
0.606037
0.611233
0.616621
0.621718
0.626279
0.630209
0.633504
0.636206
0.638378
0.640087
0.641399
0.642371
0.643052
0.643486
0.643709
0.643755
0.643649
0.643415
0.643072
0.642639
0.642131
0.641558
0.640924
0.640246
0.639566
0.638855
0.637838
0.938213
0.948433
0.96001
0.973262
0.988505
1.00591
1.02478
1.04094
1.05221
1.04947
1.01875
0.975475
0.913136
0.846727
0.783523
0.734443
0.69145
0.660836
0.637867
0.6246
0.618912
0.617712
0.619492
0.622861
0.626886
0.630939
0.634671
0.637911
0.640604
0.642761
0.644426
0.645656
0.64651
0.647042
0.647299
0.647324
0.647154
0.64682
0.646348
0.64576
0.645077
0.644316
0.64349
0.642612
0.641692
0.640736
0.639751
0.638759
0.637753
0.636576
0.940302
0.95093
0.962949
0.976675
0.992425
1.01028
1.02953
1.04597
1.05511
1.05209
1.03631
0.980988
0.915351
0.850733
0.790904
0.743916
0.704491
0.673169
0.65345
0.642399
0.637766
0.636652
0.637867
0.640193
0.642923
0.645589
0.647945
0.649878
0.651362
0.652413
0.653073
0.653391
0.653416
0.653191
0.652757
0.652146
0.65139
0.650513
0.649537
0.648481
0.647361
0.64619
0.64498
0.64374
0.642479
0.641206
0.639919
0.638619
0.637323
0.635991
0.941753
0.952676
0.964998
0.979012
0.995041
1.01307
1.03225
1.049
1.05889
1.05515
1.04012
0.984015
0.91717
0.855708
0.79964
0.756063
0.719606
0.69322
0.671376
0.661722
0.657672
0.65625
0.656615
0.657734
0.659097
0.660363
0.661366
0.662033
0.662353
0.662345
0.662045
0.661493
0.660725
0.659777
0.658679
0.657459
0.656139
0.65474
0.65328
0.651771
0.650228
0.64866
0.647077
0.645485
0.643893
0.642309
0.640727
0.639127
0.637546
0.636064
0.942555
0.953656
0.966144
0.98027
0.996384
1.01444
1.0335
1.05076
1.05933
1.05513
1.03938
0.979902
0.920206
0.861896
0.809851
0.769899
0.736696
0.71195
0.691756
0.682453
0.678291
0.676158
0.67543
0.67523
0.675199
0.675089
0.674787
0.674247
0.673464
0.672457
0.671252
0.669876
0.668359
0.666726
0.664999
0.663199
0.661344
0.659448
0.657524
0.655583
0.653634
0.651685
0.649742
0.64781
0.645898
0.644015
0.642147
0.640254
0.638397
0.636771
0.942703
0.953867
0.966381
0.980465
0.996448
1.01437
1.03332
1.05119
1.05883
1.05902
1.0354
0.981885
0.92444
0.869178
0.821038
0.783055
0.754769
0.729076
0.713144
0.70392
0.699121
0.695997
0.694024
0.692459
0.691052
0.689618
0.688081
0.686409
0.684598
0.682658
0.680607
0.678462
0.676244
0.673968
0.671651
0.669306
0.666945
0.664579
0.662216
0.659863
0.657528
0.655216
0.65293
0.650673
0.648453
0.646283
0.644141
0.641967
0.639843
0.638079
0.942203
0.953315
0.965717
0.979599
0.995206
1.01263
1.03102
1.04752
1.05821
1.05925
1.02954
0.982232
0.928652
0.877189
0.833003
0.797574
0.770445
0.749252
0.734637
0.725294
0.719629
0.715404
0.712139
0.709228
0.706505
0.703828
0.701144
0.698425
0.695665
0.692865
0.690033
0.687177
0.684308
0.681435
0.678567
0.675713
0.672879
0.670072
0.667296
0.664557
0.661857
0.659202
0.65659
0.654024
0.651513
0.64907
0.646666
0.644225
0.641847
0.639953
0.941065
0.952018
0.964173
0.977693
0.992735
1.0094
1.02725
1.0496
1.06013
1.05856
1.02562
0.982313
0.932757
0.885584
0.845488
0.813448
0.788704
0.76971
0.755736
0.74609
0.73945
0.734099
0.729572
0.725387
0.721439
0.71762
0.713888
0.710215
0.70659
0.703005
0.699458
0.69595
0.692483
0.689059
0.685683
0.682357
0.679084
0.675866
0.672706
0.669604
0.666563
0.663585
0.660669
0.657813
0.655027
0.652326
0.649677
0.646984
0.644367
0.642351
0.939308
0.950002
0.961793
0.974807
0.989183
1.00511
1.02279
1.04085
1.05361
1.05373
1.02256
0.981773
0.93661
0.894134
0.858215
0.829436
0.807063
0.789595
0.776106
0.766002
0.758344
0.751896
0.74618
0.740824
0.735764
0.730915
0.72624
0.721711
0.717306
0.713012
0.708817
0.704716
0.700704
0.696777
0.692935
0.689175
0.685497
0.6819
0.678383
0.674946
0.671588
0.668311
0.66511
0.661984
0.658942
0.656002
0.653125
0.650197
0.647357
0.645229
0.93696
0.947304
0.958625
0.970993
0.984541
0.999642
1.01669
1.0345
1.04497
1.04732
1.0175
0.981112
0.940487
0.902688
0.870824
0.845161
0.824923
0.808686
0.795465
0.7848
0.77614
0.768666
0.761868
0.755462
0.749413
0.743652
0.738143
0.732852
0.727754
0.722825
0.71805
0.713414
0.708909
0.704526
0.70026
0.696105
0.692057
0.688112
0.684268
0.680522
0.676873
0.67332
0.669858
0.666483
0.663206
0.660046
0.656959
0.653815
0.65077
0.648541
0.934055
0.943966
0.954717
0.966305
0.978773
0.992442
1.00956
1.02302
1.04352
1.03964
1.01368
0.980665
0.944354
0.911026
0.883003
0.86023
0.841883
0.826649
0.813565
0.802309
0.792718
0.784325
0.776572
0.769249
0.76234
0.755785
0.749548
0.743591
0.737881
0.732392
0.7271
0.721988
0.717041
0.712248
0.7076
0.703087
0.698704
0.694444
0.690303
0.686276
0.682362
0.678557
0.674856
0.671255
0.667764
0.664404
0.661126
0.657788
0.654557
0.652238
0.930634
0.940042
0.950138
0.960851
0.972133
0.984454
0.998241
1.01404
1.03483
1.03291
1.00781
0.97957
0.94787
0.918818
0.894425
0.874329
0.857668
0.843259
0.830242
0.818424
0.808009
0.798823
0.790255
0.782152
0.774512
0.767279
0.760416
0.753883
0.747642
0.741662
0.735916
0.730383
0.725046
0.719888
0.714898
0.710066
0.705382
0.700838
0.69643
0.69215
0.687997
0.683966
0.680051
0.676247
0.672564
0.669023
0.665575
0.662062
0.658663
0.656269
0.926747
0.935596
0.944976
0.954764
0.964886
0.976401
0.988887
1.00415
1.01961
1.02053
1.00204
0.977893
0.950744
0.925762
0.904798
0.887197
0.87207
0.858374
0.845402
0.833093
0.821986
0.812144
0.8029
0.794153
0.785904