/*--------------------------------*- C++ -*----------------------------------*\
  =========                 |
  \\      /  F ield         | OpenFOAM: The Open Source CFD Toolbox
   \\    /   O peration     | Website:  https://openfoam.org
    \\  /    A nd           | Version:  9
     \\/     M anipulation  |
\*---------------------------------------------------------------------------*/
FoamFile
{
    format      ascii;
    class       volScalarField;
    location    "0.06";
    object      p_rgh;
}
// * * * * * * * * * * * * * * * * * * * * * * * * * * * * * * * * * * * * * //

dimensions      [1 -1 -2 0 0 0 0];

internalField   nonuniform List<scalar> 
5000
(
-0.0453321
-0.0546982
-0.0656178
-0.0790656
-0.0963441
-0.118542
-0.147112
-0.184509
-0.234809
-0.301769
-0.383304
-0.508793
-0.212002
-593.181
-924.339
-924.83
-924.719
-924.263
-923.888
-923.705
-923.59
-923.532
-923.549
-923.651
-923.873
-924.267
-924.873
-925.712
-926.88
-708.919
-35.6469
-0.627562
-0.613089
-0.459025
-0.408767
-0.381723
-0.350302
-0.31578
-0.280734
-0.246877
-0.215008
-0.185346
-0.157807
-0.132197
-0.108307
-0.0859483
-0.0649629
-0.0452213
-0.0266297
-0.00932702
-0.0495436
-0.058509
-0.0686675
-0.0808857
-0.0961989
-0.114953
-0.137668
-0.165954
-0.200205
-0.237244
-0.267888
-0.154473
0.206347
-528.878
-922.385
-923.111
-922.886
-922.273
-921.835
-921.651
-921.536
-921.47
-921.472
-921.544
-921.727
-922.094
-922.687
-923.374
-924.141
-610.006
-7.13217
-0.522198
-0.500919
-0.447056
-0.380204
-0.359688
-0.334983
-0.305522
-0.273869
-0.242121
-0.211537
-0.182691
-0.155718
-0.130537
-0.106995
-0.0849308
-0.0642
-0.0446851
-0.026307
-0.00916431
-0.0532703
-0.0616648
-0.0710771
-0.0820748
-0.0952338
-0.110558
-0.128019
-0.148219
-0.16906
-0.182826
-0.193561
-0.169526
0.118791
-409.28
-920.383
-921.937
-921.246
-920.326
-919.77
-919.57
-919.453
-919.371
-919.332
-919.335
-919.396
-919.597
-920.02
-920.248
-913.301
-410.592
-1.38276
-0.453583
-0.405432
-0.406591
-0.36335
-0.340691
-0.321229
-0.296034
-0.267387
-0.237568
-0.208176
-0.180082
-0.153621
-0.128828
-0.105608
-0.0838271
-0.0633571
-0.0440876
-0.025947
-0.00899581
-0.0565973
-0.0644252
-0.0731068
-0.082908
-0.094043
-0.106345
-0.119419
-0.133164
-0.144971
-0.14478
-0.150746
-0.281236
-0.0217872
-241.994
-894.466
-920.82
-919.622
-918.303
-917.659
-917.462
-917.35
-917.253
-917.165
-917.057
-916.95
-916.941
-917.255
-916.849
-808.852
-193.289
-0.81698
-0.710775
-0.445689
-0.365775
-0.354617
-0.331349
-0.312966
-0.289685
-0.262717
-0.234106
-0.205509
-0.177925
-0.151814
-0.127295
-0.104319
-0.0827749
-0.0625402
-0.0435045
-0.0255974
-0.00883592
-0.0595981
-0.0669543
-0.0749654
-0.0837073
-0.0931788
-0.103068
-0.112748
-0.121615
-0.127117
-0.119429
-0.134901
-0.241483
-0.0212083
-91.3321
-795.307
-918.432
-917.513
-916.035
-915.475
-915.35
-915.262
-915.154
-915.017
-914.772
-914.525
-914.509
-915.217
-914.495
-525.568
-36.2876
-0.746643
-0.767873
-0.670196
-0.35374
-0.339341
-0.321684
-0.305357
-0.28397
-0.258509
-0.230998
-0.203125
-0.176
-0.150193
-0.125909
-0.103148
-0.0818198
-0.061807
-0.0429942
-0.0253008
-0.00870095
-0.0623811
-0.0693587
-0.0768017
-0.0846989
-0.0929046
-0.101012
-0.108363
-0.113918
-0.114178
-0.0999926
-0.105066
-0.220563
-0.0147908
-16.3593
-538.759
-913.988
-914.526
-913.639
-913.288
-913.284
-913.242
-913.111
-912.928
-912.527
-912.276
-912.855
-913.897
-761.048
-121.791
-0.54922
-0.654979
-0.564314
-0.610558
-0.438833
-0.319287
-0.311567
-0.296569
-0.276973
-0.253289
-0.227131
-0.200195
-0.173698
-0.148325
-0.124369
-0.101888
-0.0808236
-0.0610704
-0.0425144
-0.0250478
-0.00859173
-0.0650338
-0.0717279
-0.0787406
-0.0860387
-0.0934049
-0.10039
-0.106436
-0.110481
-0.108013
-0.0904422
-0.102344
-0.0193499
-0.0484719
-0.0403072
-186.24
-805.002
-912.088
-911.797
-911.256
-911.325
-911.347
-911.154
-910.949
-910.255
-909.925
-911.141
-823.92
-198.568
-0.449802
-0.296341
-0.386877
-0.333038
-0.489597
-0.455003
-0.318
-0.30156
-0.28802
-0.269754
-0.247449
-0.222508
-0.196547
-0.170791
-0.145982
-0.12248
-0.100393
-0.079693
-0.0603018
-0.0421474
-0.0252135
-0.009265
-0.0676027
-0.074117
-0.0808635
-0.087816
-0.0947701
-0.101318
-0.107059
-0.111449
-0.110134
-0.0940538
-0.1067
-0.0551692
-0.0576937
-0.314613
-0.649761
-349.417
-892.848
-910.311
-909.321
-909.441
-909.621
-909.403
-909.128
-907.623
-906.307
-744.175
-194.966
-0.386152
-0.267695
-0.274293
-0.278407
-0.288604
-0.343159
-0.397511
-0.344301
-0.291031
-0.279349
-0.262143
-0.240917
-0.217093
-0.192128
-0.1672
-0.143076
-0.120153
-0.0985744
-0.0783325
-0.0593447
-0.0415295
-0.0249282
-0.00921469
-0.0701176
-0.0765584
-0.0832062
-0.0900526
-0.096978
-0.103722
-0.110136
-0.116266
-0.11896
-0.111438
-0.132006
-0.108347
-0.238991
-0.408769
-0.156881
-3.51837
-361.183
-811.493
-906.834
-907.417
-908.174
-907.834
-897.883
-778.267
-503.687
-123.919
-0.693151
-0.296636
-0.278792
-0.272927
-0.27256
-0.315848
-0.346461
-0.391538
-0.359902
-0.274706
-0.266134
-0.251351
-0.23211
-0.209918
-0.186288
-0.162451
-0.139218
-0.117033
-0.0960741
-0.076363
-0.0578318
-0.0403848
-0.0240059
-0.00849906
-0.0725895
-0.0790535
-0.0857544
-0.0927065
-0.0999096
-0.107326
-0.115109
-0.123845
-0.131568
-0.137387
-0.168179
-0.151526
-0.307656
-0.332945
-0.130913
-0.23825
-1.28057
-177.798
-453.848
-608.173
-599.837
-519.954
-329.546
-149.019
-16.3083
-0.529887
-0.402515
-0.258501
-0.260349
-0.260297
-0.261185
-0.310043
-0.341007
-0.377159
-0.342721
-0.262912
-0.254443
-0.240472
-0.222399
-0.201518
-0.179193
-0.15655
-0.134361
-0.113068
-0.0928739
-0.0738265
-0.0558887
-0.0389871
-0.0230671
-0.00796464
-0.0750112
-0.0815803
-0.0884584
-0.0956881
-0.103382
-0.111742
-0.12124
-0.132786
-0.144958
-0.156727
-0.193135
-0.17533
-0.211493
-0.137858
-0.136977
-0.174432
-0.309608
-0.637027
-4.61811
-17.6141
-14.5859
-7.16409
-0.86794
-0.533697
-0.338923
-0.287205
-0.310791
-0.248636
-0.2468
-0.248073
-0.249825
-0.275154
-0.320045
-0.33071
-0.321741
-0.25498
-0.243731
-0.229474
-0.211936
-0.192121
-0.171068
-0.149706
-0.128707
-0.108486
-0.0892446
-0.0710501
-0.0538838
-0.0376799
-0.022361
-0.00771516
-0.0773639
-0.0841029
-0.0912483
-0.0988794
-0.107191
-0.116601
-0.127873
-0.142042
-0.157809
-0.170994
-0.208632
-0.228339
-0.149017
-0.148695
-0.155533
-0.175002
-0.207904
-0.254355
-0.264907
-0.281652
-0.269429
-0.250564
-0.239185
-0.231886
-0.224529
-0.216761
-0.228132
-0.233042
-0.233686
-0.235377
-0.237349
-0.248857
-0.301582
-0.291795
-0.270077
-0.233936
-0.22568
-0.213707
-0.198306
-0.18054
-0.161384
-0.141728
-0.12221
-0.103294
-0.0851808
-0.0679639
-0.0516523
-0.0362015
-0.0215306
-0.00738829
-0.0796205
-0.0865767
-0.0940459
-0.102154
-0.111149
-0.12162
-0.134602
-0.151227
-0.170667
-0.192816
-0.205192
-0.247689
-0.199554
-0.168024
-0.17048
-0.18161
-0.196124
-0.206654
-0.208208
-0.209908
-0.210531
-0.210208
-0.20981
-0.209949
-0.207914
-0.208647
-0.217121
-0.221535
-0.222897
-0.224603
-0.227197
-0.240242
-0.279572
-0.282836
-0.217065
-0.211199
-0.205263
-0.195928
-0.183125
-0.167797
-0.150853
-0.13315
-0.115342
-0.0978705
-0.0809948
-0.0648404
-0.0494418
-0.0348005
-0.0208858
-0.0073225
-0.0817509
-0.0889566
-0.0967776
-0.105392
-0.115085
-0.12657
-0.141085
-0.159859
-0.182278
-0.224384
-0.23128
-0.267092
-0.249866
-0.189382
-0.183503
-0.189869
-0.199249
-0.20468
-0.205447
-0.207096
-0.209344
-0.207152
-0.205423
-0.20501
-0.204971
-0.206703
-0.210857
-0.213267
-0.213874
-0.214451
-0.215711
-0.221427
-0.264242
-0.26528
-0.204272
-0.195726
-0.190042
-0.181532
-0.170176
-0.156552
-0.141376
-0.125351
-0.109064
-0.0929327
-0.0772256
-0.0620824
-0.04754
-0.0336071
-0.0203461
-0.00735369
-0.0837241
-0.0912015
-0.0993789
-0.108489
-0.118836
-0.131202
-0.146904
-0.167167
-0.191033
-0.232932
-0.265097
-0.263302
-0.25994
-0.206569
-0.19513
-0.198485
-0.204666
-0.2083
-0.208747
-0.210806
-0.2119
-0.208313
-0.20346
-0.202727
-0.202891
-0.204048
-0.205863
-0.206593
-0.205998
-0.204824
-0.20344
-0.20164
-0.23875
-0.248234
-0.221982
-0.184555
-0.178645
-0.170581
-0.160169
-0.147759
-0.133904
-0.119185
-0.104119
-0.0890883
-0.0743481
-0.0600396
-0.0461965
-0.0327859
-0.019854
-0.00715083
-0.0855086
-0.0932689
-0.101791
-0.111354
-0.122274
-0.135327
-0.151811
-0.172877
-0.200957
-0.229927
-0.270456
-0.231113
-0.268745
-0.216237
-0.205161
-0.206682
-0.21105
-0.214355
-0.229002
-0.227711
-0.222334
-0.206427
-0.202362
-0.201304
-0.201059
-0.201418
-0.201829
-0.201352
-0.199735
-0.19734
-0.194575
-0.191923
-0.201311
-0.237094
-0.237102
-0.174839
-0.168961
-0.161959
-0.152651
-0.141345
-0.128594
-0.114945
-0.100886
-0.0867839
-0.0728807
-0.0593117
-0.0461063
-0.0331983
-0.020524
-0.00759827
-0.0870748
-0.0951156
-0.103961
-0.113923
-0.125317
-0.138867
-0.15577
-0.176964
-0.204791
-0.222295
-0.276586
-0.233256
-0.277165
-0.223464
-0.213307
-0.213993
-0.217545
-0.224171
-0.237837
-0.23222
-0.211833
-0.204986
-0.202368
-0.20087
-0.199906
-0.199536
-0.199056
-0.197787
-0.195473
-0.19224
-0.188346
-0.184147
-0.182814
-0.231124
-0.224631
-0.187618
-0.164755
-0.157633
-0.148636
-0.13789
-0.125825
-0.11292
-0.0996267
-0.086298
-0.0731783
-0.0604165
-0.0480775
-0.03615
-0.0246806
-0.0137157
-0.0883972
-0.0967032
-0.10585
-0.116157
-0.12793
-0.141804
-0.15881
-0.179506
-0.202923
-0.220076
-0.233651
-0.249169
-0.281092
-0.226151
-0.219481
-0.220175
-0.225418
-0.234384
-0.244585
-0.21819
-0.210578
-0.206014
-0.203111
-0.202186
-0.200979
-0.198811
-0.197744
-0.196166
-0.193668
-0.190215
-0.185868
-0.180771
-0.175098
-0.212539
-0.214952
-0.201922
-0.162983
-0.156412
-0.147722
-0.137278
-0.12555
-0.113035
-0.100173
-0.0872969
-0.0746261
-0.0622775
-0.050274
-0.0385519
-0.0270697
-0.0161225
-0.089455
-0.0980041
-0.107429
-0.118037
-0.130111
-0.144187
-0.16112
-0.181177
-0.202636
-0.220974
-0.23035
-0.277927
-0.266862
-0.22591
-0.223817
-0.2253
-0.231588
-0.265232
-0.233567
-0.220633
-0.213144
-0.207658
-0.20406
-0.203091
-0.201708
-0.200563
-0.198034
-0.19657
-0.194534
-0.191787
-0.188379
-0.18441
-0.179713
-0.18629
-0.212316
-0.195177
-0.166278
-0.159237
-0.150202
-0.139515
-0.127667
-0.115157
-0.1024
-0.0896938
-0.0772235
-0.0650721
-0.0532369
-0.0416453
-0.0302695
-0.0195547
-0.0902299
-0.0989993
-0.108681
-0.119554
-0.131874
-0.146087
-0.162876
-0.182261
-0.202708
-0.227288
-0.235069
-0.27582
-0.240553
-0.226572
-0.227097
-0.229635
-0.233801
-0.29943
-0.240964
-0.225706
-0.21602
-0.209699
-0.205359
-0.203083
-0.203005
-0.202108
-0.200209
-0.198656
-0.197533
-0.196148
-0.194657
-0.19345
-0.208808
-0.189322
-0.189162
-0.186761
-0.174089
-0.165618
-0.155552
-0.144104
-0.131752
-0.118957
-0.106083
-0.0933767
-0.080972
-0.0689113
-0.0571644
-0.0456451
-0.034355
-0.023883
-0.090704
-0.0996714
-0.109588
-0.120699
-0.133231
-0.147544
-0.164145
-0.182761
-0.201745
-0.230388
-0.244592
-0.273039
-0.240601
-0.227103
-0.229286
-0.233546
-0.368395
-0.315479
-0.244765
-0.230146
-0.218981
-0.211944
-0.207198
-0.204337
-0.204276
-0.203993
-0.203411
-0.201773
-0.201531
-0.20141
-0.201391
-0.208097
-0.218976
-0.200742
-0.194735
-0.189147
-0.181915
-0.172336
-0.161592
-0.149534
-0.136733
-0.123663
-0.110662
-0.0979314
-0.0855585
-0.0735511
-0.0618624
-0.0503986
-0.0391967
-0.0290219
-0.0908588
-0.100001
-0.110132
-0.121461
-0.13419
-0.1486
-0.165018
-0.182952
-0.201457
-0.221515
-0.24009
-0.271842
-0.242443
-0.22688
-0.23004
-0.45651
-0.526714
-0.330232
-0.248123
-0.233905
-0.223195
-0.215773
-0.209534
-0.206276
-0.205022
-0.206234
-0.206272
-0.205392
-0.205581
-0.206295
-0.207101
-0.23463
-0.234113
-0.219663
-0.205201
-0.198528
-0.190365
-0.179235
-0.167706
-0.155079
-0.141922
-0.128678
-0.115636
-0.102947
-0.0906524
-0.0787402
-0.0671622
-0.0558218
-0.0447895
-0.0349972
-0.0906762
-0.0999689
-0.110291
-0.121826
-0.134759
-0.149315
-0.165674
-0.183268
-0.201094
-0.21371
-0.226887
-0.272937
-0.239582
-0.229606
-0.400099
-0.534864
-0.54099
-0.330185
-0.250843
-0.235871
-0.226343
-0.21864
-0.213168
-0.208537
-0.207071
-0.208059
-0.208857
-0.208617
-0.209234
-0.210376
-0.212365
-0.245512
-0.245175
-0.243918
-0.213349
-0.208363
-0.197289
-0.185255
-0.173148
-0.160152
-0.146832
-0.133586
-0.120648
-0.108115
-0.0959974
-0.0842774
-0.0729186
-0.0618232
-0.051085
-0.041774
-0.0901386
-0.099556
-0.110047
-0.121781
-0.13494
-0.149731
-0.166272
-0.183892
-0.201469
-0.214339
-0.22141
-0.274963
-0.235654
-0.233684
-0.547725
-0.547547
-0.557319
-0.277008
-0.250844
-0.237639
-0.227735
-0.220267
-0.215302
-0.211059
-0.209291
-0.209428
-0.210443
-0.211594
-0.212787
-0.214226
-0.217837
-0.249756
-0.249481
-0.242488
-0.219138
-0.213411
-0.202128
-0.18952
-0.177219
-0.164214
-0.151036
-0.138034
-0.125393
-0.113171
-0.101366
-0.089973
-0.0789737
-0.0682689
-0.0579664
-0.0492268
-0.0892285
-0.0987442
-0.109381
-0.121308
-0.134717
-0.149829
-0.166758
-0.184984
-0.202234
-0.217654
-0.237833
-0.279853
-0.240094
-0.246478
-0.552175
-0.55492
-0.40074
-0.253447
-0.248838
-0.238328
-0.228628
-0.221617
-0.21609
-0.21239
-0.211386
-0.211728
-0.21284
-0.214569
-0.216696
-0.219268
-0.228303
-0.249589
-0.252888
-0.224882
-0.222012
-0.215737
-0.204247
-0.191995
-0.179871
-0.167179
-0.154415
-0.141879
-0.129712
-0.117952
-0.106601
-0.0956772
-0.0851797
-0.0750048
-0.0652649
-0.0571586
-0.0879273
-0.0975133
-0.108272
-0.120377
-0.134046
-0.149546
-0.167024
-0.186213
-0.205146
-0.223201
-0.273828
-0.240798
-0.250164
-0.469783
-0.554078
-0.563446
-0.301811
-0.249259
-0.247051
-0.239078
-0.22797
-0.220107
-0.215842
-0.213774
-0.213202
-0.213747
-0.215124
-0.21721
-0.219967
-0.223251
-0.237418
-0.251111
-0.250262
-0.223
-0.222377
-0.216151
-0.205022
-0.193421
-0.181531
-0.169293
-0.157096
-0.145162
-0.13359
-0.122407
-0.11163
-0.101295
-0.0914138
-0.0818738
-0.0727856
-0.0653372
-0.0862168
-0.0958408
-0.106689
-0.118948
-0.132867
-0.148773
-0.166868
-0.187028
-0.20797
-0.228722
-0.278828
-0.247444
-0.258688
-0.556238
-0.555931
-0.512107
-0.251973
-0.251021
-0.253603
-0.239467
-0.226964
-0.220827
-0.217019
-0.215153
-0.214715
-0.215346
-0.216823
-0.219028
-0.221817
-0.225001
-0.245454
-0.253877
-0.23346
-0.225205
-0.222742
-0.215827
-0.204352
-0.193663
-0.182272
-0.170671
-0.159171
-0.147939
-0.137049
-0.126533
-0.116421
-0.106764
-0.0975723
-0.0887283
-0.0803358
-0.0735367
-0.0840792
-0.0937032
-0.1046
-0.116974
-0.131107
-0.147376
-0.166048
-0.186905
-0.209131
-0.231628
-0.28397
-0.269328
-0.267002
-0.560205
-0.556407
-0.378347
-0.261554
-0.264049
-0.255149
-0.237343
-0.227583
-0.221625
-0.218055
-0.216337
-0.215924
-0.216516
-0.217961
-0.220207
-0.223169
-0.230011
-0.244288
-0.248353
-0.229144
-0.225611
-0.22099
-0.213402
-0.203338
-0.19306
-0.182317
-0.171471
-0.160754
-0.15029
-0.140143
-0.130356
-0.12097
-0.11204
-0.103572
-0.0954437
-0.0877518
-0.081569
-0.0814988
-0.0910772
-0.101971
-0.114406
-0.128698
-0.145244
-0.164405
-0.185814
-0.208833
-0.231784
-0.287716
-0.291361
-0.284459
-0.551461
-0.558155
-0.340225
-0.283139
-0.267004
-0.245519
-0.236646
-0.228383
-0.222771
-0.219234
-0.217395
-0.216892
-0.217305
-0.218543
-0.220607
-0.223379
-0.227949
-0.240802
-0.230825
-0.227827
-0.223932
-0.218092
-0.210467
-0.201568
-0.191934
-0.18195
-0.171918
-0.162014
-0.152342
-0.142967
-0.133937
-0.1253
-0.117108
-0.109359
-0.10193
-0.094913
-0.0892997
-0.0784616
-0.08794
-0.0987702
-0.111199
-0.125572
-0.142303
-0.161885
-0.183906
-0.207989
-0.231858
-0.290268
-0.273163
-0.346151
-0.545984
-0.509374
-0.30407
-0.272121
-0.254919
-0.246547
-0.237325
-0.229386
-0.223836
-0.220546
-0.218543
-0.217765
-0.217871
-0.218745
-0.220392
-0.223217
-0.230401
-0.232061
-0.227304
-0.225337
-0.221239
-0.215319
-0.207946
-0.199567
-0.190626
-0.181434
-0.172219
-0.163123
-0.154237
-0.145628
-0.137351
-0.129451
-0.121973
-0.114908
-0.108138
-0.101748
-0.0966511
-0.0749571
-0.0842715
-0.0949669
-0.107306
-0.121666
-0.138484
-0.158392
-0.180986
-0.206002
-0.228209
-0.292233
-0.261982
-0.333264
-0.536185
-0.389066
-0.299993
-0.260876
-0.255698
-0.247217
-0.238204
-0.23041
-0.225255
-0.221974
-0.21993
-0.218769
-0.218478
-0.218905
-0.220029
-0.224344
-0.229048
-0.225065
-0.224411
-0.222226
-0.218109
-0.212376
-0.205413
-0.197641
-0.189417
-0.180999
-0.172566
-0.164238
-0.156105
-0.148233
-0.140674
-0.133471
-0.126658
-0.120223
-0.114053
-0.108232
-0.103596
-0.0709779
-0.0800562
-0.0905318
-0.102684
-0.116916
-0.133692
-0.153769
-0.176822
-0.202499
-0.232991
-0.273669
-0.257729
-0.308064
-0.533665
-0.457928
-0.272994
-0.261422
-0.255786
-0.249209
-0.240189
-0.231932
-0.226959
-0.223816
-0.2217
-0.220132
-0.219394
-0.219318
-0.219935
-0.222141
-0.227824
-0.223213
-0.221974
-0.219445
-0.215284
-0.209777
-0.203262
-0.19609
-0.188547
-0.180842
-0.173125
-0.165505
-0.158068
-0.150878
-0.143981
-0.137413
-0.131201
-0.12533
-0.119695
-0.114376
-0.110149
-0.0665215
-0.0752828
-0.0854444
-0.097296
-0.111265
-0.127842
-0.147873
-0.171341
-0.197499
-0.238955
-0.234254
-0.254387
-0.345403
-0.531647
-0.475289
-0.268997
-0.263016
-0.261805
-0.252811
-0.241934
-0.233675
-0.228955
-0.226153
-0.223938
-0.222095
-0.220938
-0.220385
-0.22168
-0.230971
-0.227553
-0.220786
-0.219848
-0.217216
-0.213132
-0.207884
-0.201791
-0.195152
-0.188204
-0.18112
-0.174033
-0.167041
-0.160226
-0.153645
-0.147338
-0.141332
-0.13565
-0.130272
-0.125103
-0.12022
-0.116353
-0.0615874
-0.0699474
-0.079695
-0.0911225
-0.104671
-0.120865
-0.14054
-0.164109
-0.19032
-0.232899
-0.249066
-0.248618
-0.33686
-0.531068
-0.533332
-0.336605
-0.287575
-0.271171
-0.25226
-0.241808
-0.235799
-0.231613
-0.229097
-0.226889
-0.224888
-0.223351
-0.222288
-0.22492
-0.233386
-0.225652
-0.220303
-0.218859
-0.216029
-0.211975
-0.206927
-0.201172
-0.194964
-0.188501
-0.181933
-0.175377
-0.168926
-0.162649
-0.156597
-0.1508
-0.145279
-0.140053
-0.135101
-0.13033
-0.12582
-0.122271
-0.0561824
-0.0640555
-0.0732843
-0.0841584
-0.0971161
-0.112712
-0.131683
-0.154724
-0.180358
-0.223615
-0.246473
-0.240452
-0.28506
-0.532798
-0.528132
-0.434497
-0.298355
-0.261534
-0.250708
-0.243218
-0.238374
-0.235065
-0.232738
-0.230743
-0.228739
-0.226867
-0.225506
-0.228588
-0.235969
-0.228676
-0.221714
-0.219531
-0.21629
-0.212071
-0.207064
-0.201504
-0.195592
-0.189491
-0.183327
-0.177204
-0.1712
-0.165377
-0.159772
-0.154407
-0.149298
-0.14446
-0.13987
-0.135436
-0.131241
-0.127974
-0.050319
-0.0576209
-0.0662253
-0.0764173
-0.0886153
-0.103388
-0.12138
-0.143374
-0.168394
-0.211259
-0.236269
-0.23439
-0.350318
-0.525603
-0.52591
-0.418323
-0.27069
-0.260162
-0.251355
-0.245478
-0.241751
-0.23944
-0.237651
-0.235786
-0.233707
-0.231623
-0.230927
-0.243536
-0.242387
-0.235281
-0.224463
-0.221593
-0.217863
-0.213358
-0.208259
-0.202758
-0.197013
-0.191156
-0.185293
-0.179509
-0.173868
-0.168417
-0.163184
-0.15818
-0.153417
-0.148907
-0.144624
-0.140475
-0.136545
-0.133531
-0.0440169
-0.0506659
-0.058544
-0.067929
-0.0792075
-0.0929309
-0.109716
-0.130275
-0.154227
-0.190528
-0.22271
-0.222356
-0.431297
-0.50519
-0.522751
-0.342318
-0.264942
-0.257938
-0.251583
-0.252509
-0.248059
-0.244921
-0.243752
-0.242114
-0.239981
-0.237613
-0.23747
-0.250896
-0.248396
-0.237528
-0.228251
-0.224699
-0.220443
-0.215596
-0.210326
-0.20479
-0.199118
-0.193415
-0.187769
-0.182247
-0.176897
-0.17175
-0.166824
-0.162121
-0.15765
-0.15342
-0.1494
-0.145492
-0.14179
-0.139008
-0.0373027
-0.0432219
-0.0502781
-0.0587357
-0.0689428
-0.0814003
-0.0967336
-0.115527
-0.13775
-0.162281
-0.185706
-0.19966
-0.319542
-0.485714
-0.489873
-0.27953
-0.258673
-0.255323
-0.252249
-0.257553
-0.256664
-0.251839
-0.251061
-0.249746
-0.247736
-0.245447
-0.25023
-0.257553
-0.256029
-0.235679
-0.232445
-0.228455
-0.223734
-0.218537
-0.21305
-0.20742
-0.201756
-0.196146
-0.190658
-0.18534
-0.180225
-0.17533
-0.17066
-0.166214
-0.161993
-0.158005
-0.154215
-0.150518
-0.147016
-0.144454
-0.0302111
-0.0353289
-0.041475
-0.0488902
-0.0578809
-0.0688806
-0.0825388
-0.0994793
-0.120666
-0.150796
-0.162531
-0.177767
-0.235822
-0.463382
-0.37489
-0.246134
-0.251252
-0.252468
-0.253794
-0.262653
-0.265462
-0.260336
-0.259498
-0.258532
-0.256623
-0.255319
-0.270295
-0.266988
-0.263288
-0.242249
-0.237906
-0.233015
-0.227659
-0.222023
-0.216257
-0.210481
-0.20478
-0.19922
-0.193848
-0.188694
-0.183774
-0.179092
-0.174645
-0.170422
-0.166423
-0.162653
-0.159073
-0.155568
-0.152251
-0.149903
-0.0227837
-0.0270352
-0.0321901
-0.0384556
-0.0460922
-0.0554699
-0.0672426
-0.0822664
-0.105384
-0.130772
-0.147652
-0.163344
-0.264015
-0.439572
-0.320524
-0.236205
-0.243732
-0.250281
-0.256293
-0.268617
-0.273272
-0.269
-0.268839
-0.268268
-0.266442
-0.265766
-0.279453
-0.275382
-0.261763
-0.249859
-0.244145
-0.238165
-0.232026
-0.225858
-0.219758
-0.213798
-0.208031
-0.202497
-0.197217
-0.192203
-0.187454
-0.182963
-0.178716
-0.174698
-0.170905
-0.16734
-0.16396
-0.16064
-0.157502
-0.15537
-0.0150689
-0.0183966
-0.0224865
-0.0275049
-0.0336594
-0.0412628
-0.0509259
-0.0637925
-0.0845181
-0.110777
-0.129169
-0.149227
-0.35648
-0.424567
-0.286737
-0.228048
-0.237715
-0.249027
-0.259328
-0.274961
-0.281532
-0.278035
-0.27878
-0.278732
-0.277707
-0.288929
-0.288757
-0.285295
-0.262264
-0.256438
-0.249911
-0.243116
-0.236326
-0.229689
-0.223284
-0.217156
-0.211332
-0.205824
-0.200635
-0.195754
-0.191167
-0.186857
-0.182802
-0.178982
-0.17539
-0.172028
-0.168848
-0.165715
-0.16276
-0.160848
-0.0071212
-0.00947506
-0.0124345
-0.0161218
-0.0206836
-0.0263733
-0.0337352
-0.0441353
-0.0596629
-0.0893118
-0.107079
-0.223712
-0.347561
-0.37351
-0.266252
-0.216682
-0.23258
-0.248193
-0.262865
-0.281332
-0.288816
-0.286857
-0.288823
-0.289285
-0.290735
-0.301171
-0.297888
-0.285174
-0.269952
-0.26266
-0.255092
-0.247545
-0.240215
-0.233208
-0.226576
-0.220339
-0.214499
-0.209048
-0.203966
-0.19923
-0.194812
-0.190687
-0.186828
-0.183209
-0.179823
-0.17667
-0.173696
-0.17076
-0.167999
-0.166313
0.000999804
-0.000338473
-0.00211345
-0.00440272
-0.00728776
-0.0109483
-0.0158702
-0.0234568
-0.0354369
-0.0552914
-0.0802804
-0.25077
-0.320248
-0.296488
-0.220509
-0.207733
-0.227714
-0.247602
-0.265897
-0.287457
-0.293787
-0.295362
-0.298376
-0.299245
-0.303691
-0.309083
-0.300635
-0.284403
-0.27641
-0.267949
-0.259456
-0.251254
-0.243488
-0.236214
-0.229446
-0.223176
-0.21738
-0.21203
-0.207089
-0.202521
-0.19829
-0.194366
-0.190715
-0.187311
-0.184141
-0.181208
-0.178453
-0.175728
-0.173175
-0.171721
0.00923094
0.00893997
0.00838844
0.00754274
0.00638627
0.00482708
0.00242826
-0.00211018
-0.0107236
-0.0263103
-0.047118
-0.113928
-0.192092
-0.181559
-0.180465
-0.198175
-0.223039
-0.247463
-0.268873
-0.292793
-0.298271
-0.303144
-0.306977
-0.31071
-0.311656
-0.306129
-0.298181
-0.289839
-0.2809
-0.271628
-0.262543
-0.253937
-0.245923
-0.238528
-0.23174
-0.225528
-0.219849
-0.214655
-0.209897
-0.205531
-0.201515
-0.197813
-0.194391
-0.191218
-0.188282
-0.185584
-0.183061
-0.180562
-0.178231
-0.177013
0.0175067
0.0182825
0.0189753
0.0195939
0.0201829
0.0207322
0.0208712
0.0191941
0.0137772
0.00149043
-0.0150181
-0.0343418
-0.0959455
-0.156079
-0.157235
-0.188884
-0.219735
-0.248323
-0.277276
-0.298248
-0.302696
-0.309929
-0.314753
-0.319101
-0.318093
-0.308692
-0.301791
-0.293007
-0.283345
-0.27357
-0.264183
-0.255422
-0.247363
-0.240011
-0.233334
-0.227283
-0.2218
-0.216824
-0.2123
-0.208175
-0.204407
-0.200955
-0.197786
-0.194865
-0.192181
-0.189733
-0.187458
-0.185199
-0.183105
-0.182125
0.0257606
0.0276083
0.0295468
0.031625
0.0339424
0.0365411
0.0390951
0.0399071
0.0357224
0.0257832
0.0081775
-0.0430397
-0.173109
-0.155524
-0.141997
-0.181592
-0.217829
-0.251111
-0.282132
-0.298526
-0.307339
-0.31528
-0.322824
-0.324124
-0.320867
-0.311782
-0.30366
-0.294046
-0.283864
-0.273838
-0.264382
-0.255672
-0.247748
-0.240591
-0.23415
-0.228361
-0.223153
-0.21846
-0.21422
-0.210381
-0.206896
-0.203726
-0.200835
-0.198189
-0.195776
-0.193594
-0.191579
-0.189576
-0.187732
-0.186986
0.0339263
0.036836
0.0400034
0.043514
0.0475181
0.0520735
0.0568527
0.059824
0.0569337
0.0478281
0.0311134
-0.113591
-0.149985
-0.11634
-0.131519
-0.175286
-0.21633
-0.252257
-0.285565
-0.305168
-0.31145
-0.319259
-0.326549
-0.32664
-0.319502
-0.312215
-0.303135
-0.292911
-0.282476
-0.272452
-0.26315
-0.254685
-0.247061
-0.240237
-0.234145
-0.228708
-0.22385
-0.219501
-0.215598
-0.212086
-0.208921
-0.206063
-0.203476
-0.201128
-0.199004
-0.197102
-0.195361
-0.193626
-0.192042
-0.191525
0.0419384
0.0458853
0.0502512
0.0551517
0.0607884
0.0672216
0.0740618
0.0791628
0.077438
0.0690015
-0.00581198
-0.0931301
-0.113927
-0.0901559
-0.121753
-0.170208
-0.214822
-0.251807
-0.282983
-0.306691
-0.313758
-0.32108
-0.325808
-0.324743
-0.317804
-0.309815
-0.300056
-0.289572
-0.279203
-0.269444
-0.260515
-0.252476
-0.245303
-0.238935
-0.233291
-0.22829
-0.22385
-0.219902
-0.216382
-0.213239
-0.210428
-0.207911
-0.205653
-0.203622
-0.201803
-0.200196
-0.198738
-0.197282
-0.195968
-0.195672
0.0497326
0.0546804
0.0602015
0.0664414
0.0736477
0.0818979
0.0906841
0.0972008
0.0971424
0.0904508
-0.0449345
-0.0776176
-0.0729542
-0.0941094
-0.11414
-0.165765
-0.212581
-0.25025
-0.288455
-0.305806
-0.312658
-0.319683
-0.321842
-0.319449
-0.313287
-0.304592
-0.294536
-0.284156
-0.274155
-0.264902
-0.256541
-0.249088
-0.242497
-0.23669
-0.231582
-0.227087
-0.223125
-0.219627
-0.216533
-0.213795
-0.21137
-0.209221
-0.207313
-0.205617
-0.204118
-0.202814
-0.201649
-0.200482
-0.199445
-0.199361
0.0572458
0.0631483
0.0697721
0.077291
0.0859917
0.0959728
0.106586
0.114648
0.116213
0.109193
-0.0146894
-0.00402187
-0.0466478
-0.0689139
-0.104554
-0.160524
-0.209445
-0.251487
-0.288267
-0.297049
-0.308771
-0.314893
-0.31604
-0.312619
-0.30575
-0.296739
-0.286802
-0.276868
-0.267498
-0.258957
-0.251327
-0.244591
-0.238687
-0.233528
-0.229025
-0.225094
-0.221658
-0.218653
-0.216023
-0.213721
-0.211707
-0.209947
-0.208408
-0.207061
-0.205894
-0.204903
-0.204037
-0.203167
-0.202412
-0.202532
0.0644165
0.071219
0.0788829
0.0876097
0.0977095
0.109319
0.121174
0.131689
0.135893
0.131924
0.0187373
0.0368392
-0.0224093
-0.046705
-0.09667
-0.154284
-0.206093
-0.258985
-0.284092
-0.290329
-0.301993
-0.307029
-0.307051
-0.302782
-0.295515
-0.286588
-0.277138
-0.26794
-0.259419
-0.251755
-0.244984
-0.239068
-0.23393
-0.229483
-0.225639
-0.222317
-0.219447
-0.216969
-0.21483
-0.212989
-0.211407
-0.210053
-0.208897
-0.207911
-0.207085
-0.206413
-0.205851
-0.205285
-0.204818
-0.205132
0.0711858
0.0788263
0.087458
0.09731
0.108701
0.12179
0.135186
0.14707
0.152249
0.143822
0.0984709
0.0413319
0.00615558
-0.0273584
-0.0890726
-0.14875
-0.21284
-0.25286
-0.271359
-0.281326
-0.292003
-0.29599
-0.295052
-0.290243
-0.282965
-0.274504
-0.265851
-0.257616
-0.250111
-0.243448
-0.237632
-0.232607
-0.228294
-0.224604
-0.221457
-0.218777
-0.2165
-0.214572
-0.212946
-0.211582
-0.210447
-0.209512
-0.208748
-0.208132
-0.207652
-0.207305
-0.207051
-0.206793
-0.206618
-0.207118
0.0774986
0.0859082
0.0954261
0.106307
0.118867
0.133244
0.148317
0.161216
0.165574
0.0971981
0.114402
0.042033
0.0327306
-0.0175265
-0.0820368
-0.147119
-0.209811
-0.244464
-0.250387
-0.269429
-0.278984
-0.282021
-0.280397
-0.275427
-0.268528
-0.260864
-0.253246
-0.246143
-0.23977
-0.234194
-0.229393
-0.225305
-0.22185
-0.218946
-0.216518
-0.2145
-0.212834
-0.211471
-0.21037
-0.209494
-0.208815
-0.208304
-0.207939
-0.207697
-0.207568
-0.207548
-0.207605
-0.207658
-0.207777
-0.208457
0.0833049
0.0924068
0.102719
0.114521
0.128122
0.143694
0.160168
0.173857
0.178076
0.11318
0.120775
0.0558476
0.0398176
-0.0103906
-0.0755646
-0.145482
-0.200848
-0.225964
-0.23771
-0.25505
-0.263328
-0.265564
-0.263571
-0.258821
-0.252642
-0.246027
-0.239617
-0.233755
-0.228587
-0.224143
-0.220389
-0.217259
-0.214678
-0.212571
-0.210873
-0.209524
-0.208475
-0.207683
-0.207111
-0.206728
-0.206507
-0.206424
-0.206458
-0.206592
-0.206815
-0.207123
-0.20749
-0.207857
-0.208273
-0.209124
0.0885608
0.0982697
0.109272
0.121873
0.136381
0.153008
0.170824
0.185849
0.192471
0.126612
0.13831
0.0628376
0.0543064
-0.0042683
-0.0696702
-0.143238
-0.191212
-0.200987
-0.223208
-0.23861
-0.245548
-0.247147
-0.245104
-0.240908
-0.235712
-0.230324
-0.225228
-0.220667
-0.216736
-0.213441
-0.21074
-0.208568
-0.206858
-0.205546
-0.204575
-0.203894
-0.20346
-0.203236
-0.203191
-0.203297
-0.203531
-0.203873
-0.204306
-0.204814
-0.205387
-0.206021
-0.206699
-0.207379
-0.208091
-0.209108
0.0932291
0.10345
0.115026
0.128278
0.14352
0.160925
0.17979
0.195948
0.204906
0.137353
0.149778
0.0856719
0.066881
0.00163261
-0.0641521
-0.137761
-0.179775
-0.184881
-0.207117
-0.220384
-0.226072
-0.227271
-0.225491
-0.222123
-0.218098
-0.214044
-0.210313
-0.207073
-0.204379
-0.202222
-0.200557
-0.199327
-0.198473
-0.197942
-0.197684
-0.197659
-0.197829
-0.198164
-0.198636
-0.199223
-0.199906
-0.200667
-0.201493
-0.202371
-0.203291
-0.204248
-0.205232
-0.206224
-0.20723
-0.208407
0.0972804
0.107908
0.119927
0.133653
0.149401
0.167256
0.186505
0.202146
0.189173
0.179316
0.120898
0.0850504
0.0720696
0.00760576
-0.0568674
-0.126227
-0.165608
-0.182441
-0.189573
-0.200626
-0.205263
-0.206369
-0.205155
-0.202829
-0.200098
-0.197433
-0.195077
-0.193143
-0.19166
-0.190609
-0.189949
-0.18963
-0.189605
-0.18983
-0.190265
-0.190875
-0.191632
-0.192508
-0.193484
-0.19454
-0.195661
-0.196831
-0.198042
-0.199282
-0.200542
-0.201816
-0.203103
-0.204402
-0.205698
-0.207031
0.100694
0.111616
0.123939
0.137952
0.153979
0.172009
0.191184
0.20305
0.185662
0.183858
0.121752
0.0849624
0.0759517
0.014579
-0.046156
-0.112035
-0.148487
-0.174492
-0.169686
-0.179339
-0.183399
-0.184812
-0.184445
-0.183326
-0.181962
-0.180696
-0.179693
-0.179026
-0.178707
-0.178714
-0.179014
-0.179567
-0.180334
-0.181283
-0.182381
-0.183601
-0.18492
-0.186319
-0.18778
-0.189288
-0.190832
-0.192399
-0.193983
-0.195575
-0.197167
-0.19875
-0.200332
-0.201932
-0.203513
-0.204996
0.103457
0.114558
0.127046
0.141172
0.157284
0.175339
0.194396
0.206883
0.188077
0.185044
0.123075
0.111693
0.0810817
0.0227499
-0.0313904
-0.0948741
-0.129267
-0.152395
-0.147343
-0.156646
-0.160817
-0.162947
-0.163668
-0.163867
-0.163898
-0.164009
-0.164311
-0.164851
-0.165633
-0.16664
-0.167846
-0.169221
-0.170738
-0.172372
-0.174098
-0.175898
-0.177753
-0.179649
-0.181573
-0.183515
-0.185464
-0.187412
-0.189355
-0.191287
-0.1932
-0.195082
-0.19695
-0.198843
-0.2007