/*--------------------------------*- C++ -*----------------------------------*\
  =========                 |
  \\      /  F ield         | OpenFOAM: The Open Source CFD Toolbox
   \\    /   O peration     | Website:  https://openfoam.org
    \\  /    A nd           | Version:  9
     \\/     M anipulation  |
\*---------------------------------------------------------------------------*/
FoamFile
{
    format      ascii;
    class       volScalarField;
    location    "0.06";
    object      rAU;
}
// * * * * * * * * * * * * * * * * * * * * * * * * * * * * * * * * * * * * * //

dimensions      [-1 3 1 0 0 0 0];

internalField   nonuniform List<scalar> 
5000
(
3.14282e-05
3.14045e-05
3.13224e-05
3.1172e-05
3.09558e-05
3.06786e-05
3.03163e-05
2.98316e-05
2.93651e-05
2.94817e-05
3.02928e-05
2.75449e-05
8.79885e-06
6.33543e-08
4.1467e-08
4.16092e-08
4.16966e-08
4.16956e-08
4.16409e-08
4.15855e-08
4.14056e-08
4.1363e-08
4.13366e-08
4.1313e-08
4.12741e-08
4.11913e-08
4.10422e-08
4.08289e-08
4.05666e-08
5.36394e-08
1.06566e-06
2.96564e-05
2.90299e-05
3.05599e-05
2.92517e-05
2.76234e-05
2.64323e-05
2.56212e-05
2.50764e-05
2.46897e-05
2.4378e-05
2.40872e-05
2.37877e-05
2.34666e-05
2.312e-05
2.27484e-05
2.23531e-05
2.19357e-05
2.14972e-05
2.29893e-05
3.14305e-05
3.14015e-05
3.13157e-05
3.11652e-05
3.0954e-05
3.06833e-05
3.03227e-05
2.98519e-05
2.94735e-05
2.9793e-05
3.07872e-05
3.16143e-05
1.29193e-05
7.06365e-08
4.13817e-08
4.15952e-08
4.17323e-08
4.17385e-08
4.16688e-08
4.15999e-08
4.14167e-08
4.13766e-08
4.13523e-08
4.13312e-08
4.13063e-08
4.12581e-08
4.11537e-08
4.09596e-08
4.06622e-08
6.28316e-08
4.73904e-06
3.25304e-05
3.14445e-05
3.06189e-05
3.00432e-05
2.83577e-05
2.7028e-05
2.60846e-05
2.54354e-05
2.49779e-05
2.46254e-05
2.43161e-05
2.40117e-05
2.36925e-05
2.33502e-05
2.29829e-05
2.25911e-05
2.21761e-05
2.17388e-05
2.32781e-05
3.14344e-05
3.14013e-05
3.13131e-05
3.11641e-05
3.09588e-05
3.06939e-05
3.03355e-05
2.98859e-05
2.9602e-05
3.01154e-05
3.10974e-05
2.97224e-05
2.61315e-05
9.11494e-08
4.13022e-08
4.15653e-08
4.17337e-08
4.1743e-08
4.16667e-08
4.15933e-08
4.14138e-08
4.13831e-08
4.13634e-08
4.13359e-08
4.1306e-08
4.12889e-08
4.12647e-08
4.1141e-08
4.13286e-08
9.50272e-08
1.56551e-05
3.34812e-05
3.31099e-05
3.13308e-05
3.04847e-05
2.90117e-05
2.76038e-05
2.65583e-05
2.58166e-05
2.52894e-05
2.4892e-05
2.45587e-05
2.42449e-05
2.39248e-05
2.35855e-05
2.32222e-05
2.28341e-05
2.24217e-05
2.1986e-05
2.35743e-05
3.14399e-05
3.14036e-05
3.13141e-05
3.11676e-05
3.09684e-05
3.07081e-05
3.03523e-05
2.99305e-05
2.97486e-05
3.04533e-05
3.11655e-05
2.73881e-05
3.03752e-05
1.52709e-07
4.21543e-08
4.14479e-08
4.16535e-08
4.16811e-08
4.16218e-08
4.15585e-08
4.1389e-08
4.13758e-08
4.13683e-08
4.13257e-08
4.12457e-08
4.12002e-08
4.12471e-08
4.12826e-08
4.70997e-08
2.0294e-07
2.20653e-05
2.74916e-05
3.22028e-05
3.27534e-05
3.1058e-05
2.96189e-05
2.81653e-05
2.70401e-05
2.62176e-05
2.56238e-05
2.51796e-05
2.48181e-05
2.44905e-05
2.4166e-05
2.38276e-05
2.34673e-05
2.30826e-05
2.2673e-05
2.22391e-05
2.38786e-05
3.1447e-05
3.14083e-05
3.13183e-05
3.11749e-05
3.09812e-05
3.0724e-05
3.03713e-05
2.99818e-05
2.99051e-05
3.07824e-05
3.1131e-05
2.77931e-05
3.16479e-05
3.85948e-07
4.71135e-08
4.11952e-08
4.14621e-08
4.15451e-08
4.15387e-08
4.14984e-08
4.13381e-08
4.13477e-08
4.13683e-08
4.1324e-08
4.11572e-08
4.09795e-08
4.10036e-08
4.11951e-08
7.39996e-08
1.04675e-06
2.49837e-05
2.53493e-05
2.67913e-05
3.32633e-05
3.17547e-05
3.01853e-05
2.87041e-05
2.75208e-05
2.66317e-05
2.59779e-05
2.54877e-05
2.50956e-05
2.47507e-05
2.44186e-05
2.40785e-05
2.37196e-05
2.33374e-05
2.29304e-05
2.24983e-05
2.41912e-05
3.14556e-05
3.1415e-05
3.13251e-05
3.1185e-05
3.09958e-05
3.074e-05
3.03902e-05
3.00341e-05
3.00561e-05
3.10423e-05
3.14418e-05
2.91078e-05
3.3443e-05
1.7496e-06
6.94158e-08
4.10019e-08
4.12324e-08
4.13862e-08
4.14511e-08
4.14292e-08
4.12649e-08
4.12943e-08
4.13625e-08
4.13657e-08
4.11435e-08
4.07818e-08
4.07074e-08
5.0103e-08
3.19249e-07
2.80015e-05
2.78099e-05
2.96312e-05
2.67005e-05
3.11308e-05
3.24594e-05
3.06789e-05
2.9189e-05
2.79765e-05
2.7042e-05
2.63406e-05
2.58099e-05
2.53881e-05
2.50246e-05
2.46825e-05
2.43386e-05
2.39795e-05
2.35987e-05
2.31938e-05
2.27636e-05
2.4513e-05
3.14656e-05
3.14235e-05
3.13343e-05
3.11972e-05
3.10113e-05
3.0755e-05
3.04072e-05
3.00832e-05
3.01927e-05
3.12751e-05
3.18497e-05
3.49699e-05
3.6513e-05
1.72879e-05
1.99281e-07
4.68505e-08
4.11681e-08
4.13105e-08
4.14078e-08
4.1372e-08
4.118e-08
4.12144e-08
4.13347e-08
4.14413e-08
4.12661e-08
4.08393e-08
4.57877e-08
1.95494e-07
2.82812e-05
3.73989e-05
3.3903e-05
3.4922e-05
3.04283e-05
3.00072e-05
3.26303e-05
3.11594e-05
2.96392e-05
2.84064e-05
2.74412e-05
2.67042e-05
2.61401e-05
2.56918e-05
2.53098e-05
2.49566e-05
2.46069e-05
2.42456e-05
2.38645e-05
2.34596e-05
2.3029e-05
2.48338e-05
3.14769e-05
3.14337e-05
3.13453e-05
3.12111e-05
3.10272e-05
3.07686e-05
3.04222e-05
3.01286e-05
3.03154e-05
3.14779e-05
3.25077e-05
3.53416e-05
3.74391e-05
2.87076e-05
1.17692e-05
1.0808e-07
4.2282e-08
4.13489e-08
4.1418e-08
4.1341e-08
4.11002e-08
4.11094e-08
4.12399e-08
4.14305e-08
4.13843e-08
5.09145e-08
1.98862e-07
2.79011e-05
3.84712e-05
3.79936e-05
3.69772e-05
3.59561e-05
3.41778e-05
3.00757e-05
3.19731e-05
3.16076e-05
3.00647e-05
2.88153e-05
2.78288e-05
2.70656e-05
2.64751e-05
2.60039e-05
2.56046e-05
2.52399e-05
2.48836e-05
2.45189e-05
2.41361e-05
2.37299e-05
2.3296e-05
2.51353e-05
3.14894e-05
3.14456e-05
3.13582e-05
3.12265e-05
3.10434e-05
3.07815e-05
3.04368e-05
3.01732e-05
3.04306e-05
3.16027e-05
3.27151e-05
3.5329e-05
3.25132e-05
2.77029e-05
3.52628e-05
6.65957e-06
1.04266e-07
4.66112e-08
4.14919e-08
4.13539e-08
4.10626e-08
4.10125e-08
4.16314e-08
4.86193e-08
7.66867e-08
3.11934e-07
2.70956e-05
3.89931e-05
3.90066e-05
3.83529e-05
3.73307e-05
3.5049e-05
3.35276e-05
3.00417e-05
3.10169e-05
3.18822e-05
3.04111e-05
2.9181e-05
2.81926e-05
2.74165e-05
2.68083e-05
2.63194e-05
2.59056e-05
2.55304e-05
2.51676e-05
2.47997e-05
2.44163e-05
2.40113e-05
2.35788e-05
2.54621e-05
3.15032e-05
3.1459e-05
3.13729e-05
3.12434e-05
3.10604e-05
3.0795e-05
3.04534e-05
3.02212e-05
3.05458e-05
3.16227e-05
3.2651e-05
3.53211e-05
3.09097e-05
3.15128e-05
3.85819e-05
3.65536e-05
1.27149e-05
2.11181e-07
8.38758e-08
6.22982e-08
6.27278e-08
7.27773e-08
1.16514e-07
2.59979e-07
2.23865e-06
2.54568e-05
3.42498e-05
3.89017e-05
3.88434e-05
3.83652e-05
3.75836e-05
3.4986e-05
3.31713e-05
3.02404e-05
3.1245e-05
3.21239e-05
3.07225e-05
2.95189e-05
2.85363e-05
2.77549e-05
2.71355e-05
2.66336e-05
2.62078e-05
2.58231e-05
2.54537e-05
2.50817e-05
2.46959e-05
2.42892e-05
2.38545e-05
2.57891e-05
3.15183e-05
3.1474e-05
3.13894e-05
3.12619e-05
3.10788e-05
3.08105e-05
3.04743e-05
3.02748e-05
3.06615e-05
3.17706e-05
3.27495e-05
3.54266e-05
3.63313e-05
3.90837e-05
3.95351e-05
3.96348e-05
3.54137e-05
2.50814e-05
6.78298e-06
2.08209e-06
2.47194e-06
4.72795e-06
2.10389e-05
2.71202e-05
3.32917e-05
3.48128e-05
3.56787e-05
3.84466e-05
3.85216e-05
3.82408e-05
3.77049e-05
3.61822e-05
3.36969e-05
3.27711e-05
3.17387e-05
3.23679e-05
3.10297e-05
2.98422e-05
2.88642e-05
2.80799e-05
2.74529e-05
2.69415e-05
2.65061e-05
2.61134e-05
2.5738e-05
2.5362e-05
2.49734e-05
2.45642e-05
2.41264e-05
2.61141e-05
3.15346e-05
3.14907e-05
3.14077e-05
3.12824e-05
3.10991e-05
3.08294e-05
3.05011e-05
3.03351e-05
3.0765e-05
3.19238e-05
3.31665e-05
3.41207e-05
3.86807e-05
3.93037e-05
3.9627e-05
3.99638e-05
3.9721e-05
3.81193e-05
3.75352e-05
3.67151e-05
3.70728e-05
3.77586e-05
3.82208e-05
3.81378e-05
3.7729e-05
3.74538e-05
3.79129e-05
3.80997e-05
3.81231e-05
3.79553e-05
3.7564e-05
3.6539e-05
3.3775e-05
3.33447e-05
3.29242e-05
3.25577e-05
3.12688e-05
3.01144e-05
2.91542e-05
2.83761e-05
2.77487e-05
2.72332e-05
2.67924e-05
2.63945e-05
2.60149e-05
2.56356e-05
2.52445e-05
2.48324e-05
2.43912e-05
2.64353e-05
3.15231e-05
3.14952e-05
3.14252e-05
3.13049e-05
3.11222e-05
3.08528e-05
3.05357e-05
3.04044e-05
3.08242e-05
3.17463e-05
3.3809e-05
3.39874e-05
3.763e-05
3.92586e-05
3.96819e-05
4.00288e-05
4.03593e-05
4.01002e-05
4.0117e-05
4.00806e-05
3.98675e-05
3.9697e-05
3.95282e-05
3.90462e-05
3.84359e-05
3.79019e-05
3.78256e-05
3.78403e-05
3.77981e-05
3.76558e-05
3.73396e-05
3.64341e-05
3.36262e-05
3.27726e-05
3.37007e-05
3.26145e-05
3.14128e-05
3.03142e-05
2.93879e-05
2.86287e-05
2.80107e-05
2.74988e-05
2.70583e-05
2.66592e-05
2.62779e-05
2.58969e-05
2.55036e-05
2.50885e-05
2.46443e-05
2.67503e-05
3.14917e-05
3.14613e-05
3.13946e-05
3.12852e-05
3.11152e-05
3.08608e-05
3.056e-05
3.04272e-05
3.08439e-05
3.13525e-05
3.33306e-05
3.39778e-05
3.62178e-05
3.9054e-05
3.97127e-05
4.00026e-05
4.02964e-05
4.0284e-05
4.04272e-05
4.04288e-05
3.99492e-05
3.974e-05
3.96076e-05
3.921e-05
3.86446e-05
3.81416e-05
3.78779e-05
3.7727e-05
3.75952e-05
3.74268e-05
3.71512e-05
3.65352e-05
3.35485e-05
3.26913e-05
3.36645e-05
3.26554e-05
3.15e-05
3.04559e-05
2.95694e-05
2.88369e-05
2.8236e-05
2.77346e-05
2.73002e-05
2.69047e-05
2.65253e-05
2.61451e-05
2.57511e-05
2.53333e-05
2.48845e-05
2.7046e-05
3.14625e-05
3.14299e-05
3.13618e-05
3.12507e-05
3.10775e-05
3.082e-05
3.05244e-05
3.04124e-05
3.0849e-05
3.15519e-05
3.27188e-05
3.50226e-05
3.61524e-05
3.89206e-05
3.96866e-05
3.99151e-05
4.0172e-05
4.0319e-05
4.05565e-05
4.04005e-05
3.96875e-05
3.94691e-05
3.94452e-05
3.92438e-05
3.87556e-05
3.82774e-05
3.79255e-05
3.76656e-05
3.74471e-05
3.72231e-05
3.69309e-05
3.64672e-05
3.43633e-05
3.25584e-05
3.2661e-05
3.26286e-05
3.15305e-05
3.05439e-05
2.97024e-05
2.90035e-05
2.84264e-05
2.79417e-05
2.75189e-05
2.71315e-05
2.67581e-05
2.63818e-05
2.59896e-05
2.55702e-05
2.51153e-05
2.73264e-05
3.14355e-05
3.14012e-05
3.1332e-05
3.12197e-05
3.10441e-05
3.07853e-05
3.0497e-05
3.0405e-05
3.07589e-05
3.19375e-05
3.28032e-05
3.64371e-05
3.60996e-05
3.8943e-05
3.95995e-05
3.97822e-05
4.00263e-05
4.02713e-05
3.99178e-05
3.93818e-05
3.88644e-05
3.92755e-05
3.91907e-05
3.91099e-05
3.87976e-05
3.83223e-05
3.79233e-05
3.75936e-05
3.73049e-05
3.70186e-05
3.66794e-05
3.62115e-05
3.51608e-05
3.23866e-05
3.14916e-05
3.24931e-05
3.15123e-05
3.05851e-05
2.97925e-05
2.9133e-05
2.85856e-05
2.81229e-05
2.77164e-05
2.73409e-05
2.6976e-05
2.66054e-05
2.62156e-05
2.57948e-05
2.53353e-05
2.76005e-05
3.14109e-05
3.13752e-05
3.13054e-05
3.11924e-05
3.10156e-05
3.07577e-05
3.04789e-05
3.04059e-05
3.07906e-05
3.22329e-05
3.30479e-05
3.63164e-05
3.60137e-05
3.89079e-05
3.94677e-05
3.9619e-05
3.98591e-05
4.00506e-05
3.96291e-05
3.9096e-05
3.92337e-05
3.90659e-05
3.89174e-05
3.88652e-05
3.8791e-05
3.83065e-05
3.78752e-05
3.7498e-05
3.71554e-05
3.68136e-05
3.64255e-05
3.59418e-05
3.52079e-05
3.2245e-05
3.13853e-05
3.18897e-05
3.14741e-05
3.05958e-05
2.98524e-05
2.92158e-05
2.86612e-05
2.81901e-05
2.77836e-05
2.74104e-05
2.70449e-05
2.66649e-05
2.62515e-05
2.57919e-05
2.52883e-05
2.01392e-05
3.13886e-05
3.13519e-05
3.12818e-05
3.11688e-05
3.09922e-05
3.07374e-05
3.04703e-05
3.04168e-05
3.09267e-05
3.23327e-05
3.43287e-05
3.57858e-05
3.59041e-05
3.8883e-05
3.93132e-05
3.9442e-05
3.95991e-05
3.97683e-05
3.94628e-05
3.96833e-05
3.90511e-05
3.87688e-05
3.86478e-05
3.85754e-05
3.86375e-05
3.82473e-05
3.77963e-05
3.7385e-05
3.7001e-05
3.66098e-05
3.6166e-05
3.56307e-05
3.4975e-05
3.28733e-05
3.11855e-05
3.12444e-05
3.13852e-05
3.05555e-05
2.97687e-05
2.90576e-05
2.8483e-05
2.80066e-05
2.75921e-05
2.72088e-05
2.68305e-05
2.64348e-05
2.60047e-05
2.55333e-05
2.50292e-05
1.98726e-05
3.13686e-05
3.13312e-05
3.12613e-05
3.1149e-05
3.09736e-05
3.0724e-05
3.04702e-05
3.04366e-05
3.09817e-05
3.22926e-05
3.43875e-05
3.46612e-05
3.66022e-05
3.88645e-05
3.91625e-05
3.92683e-05
3.93969e-05
3.86272e-05
3.99683e-05
3.94394e-05
3.87456e-05
3.84949e-05
3.84165e-05
3.83861e-05
3.84873e-05
3.81127e-05
3.76983e-05
3.72667e-05
3.68543e-05
3.64261e-05
3.59341e-05
3.53446e-05
3.46544e-05
3.36405e-05
3.14089e-05
3.13674e-05
3.13106e-05
3.04192e-05
2.95499e-05
2.88486e-05
2.82791e-05
2.78032e-05
2.73853e-05
2.69946e-05
2.66046e-05
2.61942e-05
2.57502e-05
2.52718e-05
2.47722e-05
1.96086e-05
3.13508e-05
3.13131e-05
3.12438e-05
3.11326e-05
3.09597e-05
3.07167e-05
3.04773e-05
3.04655e-05
3.10216e-05
3.20795e-05
3.41996e-05
3.45719e-05
3.74786e-05
3.87757e-05
3.90399e-05
3.91143e-05
3.93326e-05
3.71295e-05
3.96586e-05
3.91232e-05
3.84574e-05
3.82408e-05
3.82175e-05
3.82902e-05
3.83848e-05
3.80086e-05
3.75749e-05
3.71544e-05
3.67284e-05
3.62812e-05
3.57613e-05
3.51269e-05
3.35385e-05
3.3519e-05
3.26569e-05
3.18111e-05
3.11122e-05
3.01328e-05
2.92863e-05
2.86034e-05
2.80462e-05
2.75767e-05
2.71594e-05
2.67633e-05
2.63629e-05
2.59396e-05
2.54856e-05
2.50059e-05
2.4514e-05
1.93432e-05
3.13351e-05
3.12974e-05
3.12289e-05
3.11194e-05
3.09497e-05
3.07145e-05
3.04904e-05
3.05008e-05
3.107e-05
3.19882e-05
3.37935e-05
3.44992e-05
3.74018e-05
3.87032e-05
3.89627e-05
3.90022e-05
3.41957e-05
3.69696e-05
3.95002e-05
3.88191e-05
3.81689e-05
3.79996e-05
3.80303e-05
3.81814e-05
3.83476e-05
3.79195e-05
3.74436e-05
3.70507e-05
3.66267e-05
3.61785e-05
3.56554e-05
3.47079e-05
3.31005e-05
3.33717e-05
3.26547e-05
3.18163e-05
3.07793e-05
2.98004e-05
2.89851e-05
2.83275e-05
2.77886e-05
2.73296e-05
2.69152e-05
2.65149e-05
2.6105e-05
2.56716e-05
2.52126e-05
2.47362e-05
2.4254e-05
1.90759e-05
3.13215e-05
3.12839e-05
3.12165e-05
3.1109e-05
3.09429e-05
3.07161e-05
3.05078e-05
3.05386e-05
3.10887e-05
3.23021e-05
3.38852e-05
3.4451e-05
3.73051e-05
3.86836e-05
3.89187e-05
3.09677e-05
2.90633e-05
3.70615e-05
3.92063e-05
3.84961e-05
3.78358e-05
3.7716e-05
3.78586e-05
3.80851e-05
3.83686e-05
3.78161e-05
3.73202e-05
3.69444e-05
3.65379e-05
3.60984e-05
3.55701e-05
3.38143e-05
3.29766e-05
3.2889e-05
3.24988e-05
3.14775e-05
3.03423e-05
2.94291e-05
2.86545e-05
2.80292e-05
2.75131e-05
2.70673e-05
2.66566e-05
2.62522e-05
2.58344e-05
2.53947e-05
2.49358e-05
2.44666e-05
2.39949e-05
1.88092e-05
3.13099e-05
3.12726e-05
3.12063e-05
3.11008e-05
3.09385e-05
3.072e-05
3.05271e-05
3.05772e-05
3.11286e-05
3.25345e-05
3.43117e-05
3.43886e-05
3.73548e-05
3.85418e-05
3.25793e-05
2.87245e-05
2.89114e-05
3.7259e-05
3.87935e-05
3.81984e-05
3.75394e-05
3.74804e-05
3.76586e-05
3.80224e-05
3.83286e-05
3.7739e-05
3.72221e-05
3.68441e-05
3.64454e-05
3.60134e-05
3.54502e-05
3.3643e-05
3.28977e-05
3.22543e-05
3.21718e-05
3.09044e-05
2.98931e-05
2.90379e-05
2.83101e-05
2.77211e-05
2.72299e-05
2.67974e-05
2.63897e-05
2.59815e-05
2.55581e-05
2.51167e-05
2.46625e-05
2.42028e-05
2.3741e-05
1.85475e-05
3.13001e-05
3.12632e-05
3.1198e-05
3.10944e-05
3.09356e-05
3.07248e-05
3.05461e-05
3.06136e-05
3.11992e-05
3.25843e-05
3.45111e-05
3.43547e-05
3.74591e-05
3.83115e-05
2.87246e-05
2.86815e-05
2.89535e-05
3.87227e-05
3.84388e-05
3.79254e-05
3.73353e-05
3.73319e-05
3.75504e-05
3.79903e-05
3.82206e-05
3.76544e-05
3.716e-05
3.67345e-05
3.63334e-05
3.58932e-05
3.52581e-05
3.35494e-05
3.28128e-05
3.22823e-05
3.16189e-05
3.03872e-05
2.94374e-05
2.86455e-05
2.7968e-05
2.74165e-05
2.69494e-05
2.65283e-05
2.61222e-05
2.57108e-05
2.52852e-05
2.48466e-05
2.44005e-05
2.39511e-05
2.34978e-05
1.82964e-05
3.12921e-05
3.12555e-05
3.11914e-05
3.10894e-05
3.09336e-05
3.07294e-05
3.0563e-05
3.06439e-05
3.12706e-05
3.26167e-05
3.39423e-05
3.45835e-05
3.7401e-05
3.77372e-05
2.87868e-05
2.86984e-05
3.3895e-05
3.91268e-05
3.82044e-05
3.7717e-05
3.71756e-05
3.72268e-05
3.75544e-05
3.80474e-05
3.80829e-05
3.75179e-05
3.70391e-05
3.66191e-05
3.62106e-05
3.57513e-05
3.49688e-05
3.33766e-05
3.25335e-05
3.23719e-05
3.1036e-05
2.98798e-05
2.90038e-05
2.82675e-05
2.7641e-05
2.71256e-05
2.66797e-05
2.62671e-05
2.58616e-05
2.54487e-05
2.50248e-05
2.45928e-05
2.41565e-05
2.37166e-05
2.32698e-05
1.80605e-05
3.12857e-05
3.12496e-05
3.11864e-05
3.10856e-05
3.09321e-05
3.07332e-05
3.05772e-05
3.06706e-05
3.13017e-05
3.26205e-05
3.29094e-05
3.58824e-05
3.72292e-05
3.07781e-05
2.87728e-05
2.86777e-05
3.71963e-05
3.88675e-05
3.80062e-05
3.75173e-05
3.71057e-05
3.72571e-05
3.76268e-05
3.81447e-05
3.79321e-05
3.73739e-05
3.69076e-05
3.65018e-05
3.60989e-05
3.56375e-05
3.46848e-05
3.32296e-05
3.24692e-05
3.1844e-05
3.05046e-05
2.93945e-05
2.8612e-05
2.79147e-05
2.73378e-05
2.6855e-05
2.64261e-05
2.60195e-05
2.56147e-05
2.52032e-05
2.47845e-05
2.43613e-05
2.39348e-05
2.35027e-05
2.30601e-05
1.78431e-05
3.12811e-05
3.12454e-05
3.11829e-05
3.1083e-05
3.09311e-05
3.07364e-05
3.05889e-05
3.06951e-05
3.13251e-05
3.25927e-05
3.28376e-05
3.5813e-05
3.69538e-05
2.84654e-05
2.88156e-05
3.05874e-05
3.92512e-05
3.85925e-05
3.74897e-05
3.73658e-05
3.70518e-05
3.72325e-05
3.76832e-05
3.8267e-05
3.77696e-05
3.72229e-05
3.67728e-05
3.63816e-05
3.59862e-05
3.55089e-05
3.42719e-05
3.28322e-05
3.24918e-05
3.12316e-05
2.99868e-05
2.8952e-05
2.82449e-05
2.7596e-05
2.70638e-05
2.6608e-05
2.6192e-05
2.57896e-05
2.5387e-05
2.49798e-05
2.45689e-05
2.41552e-05
2.37372e-05
2.33105e-05
2.287e-05
1.76458e-05
3.12782e-05
3.12429e-05
3.1181e-05
3.10816e-05
3.09308e-05
3.07394e-05
3.05994e-05
3.07166e-05
3.13499e-05
3.25373e-05
3.279e-05
3.52428e-05
3.67898e-05
2.85712e-05
2.88609e-05
3.4869e-05
3.91706e-05
3.79432e-05
3.72801e-05
3.73071e-05
3.69623e-05
3.72368e-05
3.77892e-05
3.82385e-05
3.75964e-05
3.70644e-05
3.66322e-05
3.6254e-05
3.58596e-05
3.52624e-05
3.39641e-05
3.27296e-05
3.19396e-05
3.0649e-05
2.95303e-05
2.86193e-05
2.79064e-05
2.73134e-05
2.68196e-05
2.63851e-05
2.59785e-05
2.55803e-05
2.51819e-05
2.47817e-05
2.43797e-05
2.39748e-05
2.3563e-05
2.31394e-05
2.26994e-05
1.74686e-05
3.1277e-05
3.12421e-05
3.11808e-05
3.10818e-05
3.09315e-05
3.07429e-05
3.06096e-05
3.07365e-05
3.1375e-05
3.25477e-05
3.27306e-05
3.46586e-05
3.63286e-05
2.88798e-05
2.87574e-05
3.63937e-05
3.83006e-05
3.76861e-05
3.74821e-05
3.71988e-05
3.68954e-05
3.72732e-05
3.79416e-05
3.80467e-05
3.74128e-05
3.68982e-05
3.64846e-05
3.61183e-05
3.57248e-05
3.51845e-05
3.35971e-05
3.26827e-05
3.13199e-05
3.01075e-05
2.90959e-05
2.82728e-05
2.7608e-05
2.70654e-05
2.6603e-05
2.61847e-05
2.57857e-05
2.53928e-05
2.5001e-05
2.46093e-05
2.42161e-05
2.3818e-05
2.34102e-05
2.29878e-05
2.25471e-05
1.73104e-05
3.12777e-05
3.12433e-05
3.11824e-05
3.10837e-05
3.09338e-05
3.07476e-05
3.06202e-05
3.07559e-05
3.13988e-05
3.2607e-05
3.26929e-05
3.54984e-05
3.42799e-05
2.88657e-05
3.06679e-05
3.76928e-05
3.85161e-05
3.79129e-05
3.72364e-05
3.7068e-05
3.68745e-05
3.73756e-05
3.81502e-05
3.78374e-05
3.72193e-05
3.67236e-05
3.63263e-05
3.59653e-05
3.55386e-05
3.45815e-05
3.33657e-05
3.20616e-05
3.07409e-05
2.96161e-05
2.86936e-05
2.795e-05
2.73484e-05
2.68484e-05
2.64105e-05
2.6005e-05
2.56135e-05
2.52275e-05
2.4844e-05
2.4461e-05
2.40752e-05
2.36819e-05
2.3276e-05
2.28533e-05
2.24111e-05
1.71694e-05
3.12802e-05
3.12464e-05
3.11862e-05
3.10876e-05
3.0938e-05
3.07539e-05
3.06321e-05
3.07754e-05
3.14229e-05
3.26674e-05
3.26789e-05
3.57497e-05
3.48535e-05
2.89113e-05
3.39808e-05
3.78089e-05
3.86073e-05
3.75915e-05
3.70162e-05
3.69859e-05
3.69247e-05
3.7544e-05
3.82476e-05
3.76161e-05
3.70178e-05
3.65416e-05
3.61581e-05
3.57981e-05
3.52296e-05
3.39851e-05
3.28374e-05
3.14467e-05
3.02106e-05
2.91781e-05
2.83424e-05
2.76714e-05
2.71236e-05
2.66576e-05
2.62389e-05
2.58442e-05
2.54609e-05
2.50834e-05
2.47088e-05
2.43337e-05
2.39535e-05
2.35629e-05
2.31573e-05
2.27334e-05
2.22894e-05
1.70435e-05
3.12846e-05
3.12517e-05
3.11922e-05
3.1094e-05
3.09447e-05
3.07628e-05
3.06461e-05
3.07947e-05
3.14438e-05
3.23749e-05
3.34183e-05
3.5753e-05
3.56304e-05
2.89418e-05
3.22251e-05
3.87848e-05
3.82362e-05
3.73083e-05
3.6794e-05
3.69217e-05
3.70303e-05
3.77814e-05
3.81004e-05
3.7387e-05
3.68104e-05
3.63527e-05
3.59789e-05
3.5613e-05
3.48145e-05
3.33102e-05
3.21907e-05
3.08757e-05
2.97315e-05
2.87919e-05
2.80381e-05
2.74311e-05
2.69273e-05
2.64881e-05
2.6085e-05
2.57007e-05
2.53267e-05
2.49586e-05
2.45925e-05
2.42239e-05
2.38472e-05
2.34576e-05
2.30511e-05
2.26255e-05
2.21796e-05
1.69302e-05
3.12911e-05
3.12593e-05
3.12008e-05
3.11032e-05
3.09545e-05
3.07749e-05
3.06632e-05
3.08154e-05
3.14606e-05
3.20117e-05
3.41672e-05
3.57401e-05
3.41617e-05
2.89267e-05
3.16934e-05
3.86909e-05
3.79099e-05
3.68814e-05
3.6514e-05
3.6921e-05
3.71958e-05
3.80824e-05
3.78574e-05
3.71565e-05
3.65993e-05
3.61574e-05
3.57867e-05
3.53009e-05
3.38428e-05
3.27225e-05
3.16003e-05
3.03552e-05
2.93043e-05
2.8454e-05
2.77743e-05
2.72216e-05
2.67533e-05
2.63357e-05
2.59464e-05
2.5573e-05
2.52092e-05
2.48503e-05
2.44916e-05
2.41275e-05
2.37526e-05
2.33627e-05
2.29548e-05
2.25273e-05
2.20796e-05
1.68273e-05
3.12997e-05
3.12693e-05
3.12121e-05
3.11155e-05
3.09681e-05
3.07913e-05
3.06854e-05
3.08415e-05
3.14793e-05
3.19911e-05
3.36753e-05
3.57222e-05
3.41406e-05
2.89426e-05
2.9811e-05
3.63183e-05
3.69041e-05
3.63537e-05
3.6541e-05
3.70402e-05
3.74128e-05
3.82843e-05
3.76105e-05
3.69257e-05
3.63865e-05
3.59571e-05
3.55834e-05
3.48083e-05
3.3088e-05
3.21813e-05
3.10407e-05
2.98818e-05
2.89244e-05
2.81576e-05
2.7543e-05
2.70356e-05
2.65963e-05
2.61971e-05
2.58212e-05
2.54593e-05
2.51058e-05
2.47554e-05
2.44024e-05
2.40411e-05
2.36667e-05
2.32757e-05
2.2866e-05
2.24366e-05
2.19872e-05
1.67327e-05
3.13104e-05
3.12818e-05
3.12264e-05
3.11313e-05
3.09859e-05
3.0813e-05
3.07139e-05
3.08761e-05
3.15103e-05
3.19921e-05
3.34647e-05
3.5684e-05
3.527e-05
2.90243e-05
2.96644e-05
3.29361e-05
3.64111e-05
3.66419e-05
3.65577e-05
3.7144e-05
3.76894e-05
3.81857e-05
3.73679e-05
3.66984e-05
3.61744e-05
3.57535e-05
3.53495e-05
3.43032e-05
3.24687e-05
3.15585e-05
3.05178e-05
2.94511e-05
2.8585e-05
2.78946e-05
2.73365e-05
2.68671e-05
2.64524e-05
2.60701e-05
2.57076e-05
2.53575e-05
2.50137e-05
2.46704e-05
2.43214e-05
2.39615e-05
2.35866e-05
2.31941e-05
2.27827e-05
2.23516e-05
2.19008e-05
1.66445e-05
3.13232e-05
3.12969e-05
3.12438e-05
3.11509e-05
3.10084e-05
3.08407e-05
3.07497e-05
3.092e-05
3.15543e-05
3.20133e-05
3.34296e-05
3.56127e-05
3.27443e-05
2.89418e-05
2.95541e-05
3.32191e-05
3.70825e-05
3.64409e-05
3.65002e-05
3.72961e-05
3.80366e-05
3.79145e-05
3.71151e-05
3.6472e-05
3.59658e-05
3.55504e-05
3.49018e-05
3.32515e-05
3.18529e-05
3.0891e-05
3.00311e-05
2.90592e-05
2.82799e-05
2.76582e-05
2.71488e-05
2.67118e-05
2.63189e-05
2.5953e-05
2.56042e-05
2.52654e-05
2.49303e-05
2.45924e-05
2.4246e-05
2.38864e-05
2.35105e-05
2.31164e-05
2.27032e-05
2.22706e-05
2.18186e-05
1.65611e-05
3.13382e-05
3.13145e-05
3.12643e-05
3.11743e-05
3.10358e-05
3.08747e-05
3.07932e-05
3.09734e-05
3.16087e-05
3.23769e-05
3.35134e-05
3.55912e-05
2.99668e-05
2.89061e-05
2.95465e-05
3.50874e-05
3.67587e-05
3.62611e-05
3.65286e-05
3.73418e-05
3.82474e-05
3.76396e-05
3.68674e-05
3.62514e-05
3.57605e-05
3.53435e-05
3.44414e-05
3.25624e-05
3.1256e-05
3.04544e-05
2.95815e-05
2.8703e-05
2.8004e-05
2.74429e-05
2.69755e-05
2.65669e-05
2.61945e-05
2.58448e-05
2.55093e-05
2.5181e-05
2.4853e-05
2.4519e-05
2.41739e-05
2.3814e-05
2.34368e-05
2.30412e-05
2.26265e-05
2.21926e-05
2.17395e-05
1.64811e-05
3.13552e-05
3.13347e-05
3.12879e-05
3.12017e-05
3.10682e-05
3.09152e-05
3.08444e-05
3.10352e-05
3.16707e-05
3.26849e-05
3.41066e-05
3.57137e-05
3.31701e-05
2.89901e-05
3.04563e-05
3.66281e-05
3.64815e-05
3.61647e-05
3.66657e-05
3.75896e-05
3.80445e-05
3.73566e-05
3.66302e-05
3.60408e-05
3.55597e-05
3.49665e-05
3.36555e-05
3.19643e-05
3.07027e-05
3.01321e-05
2.91703e-05
2.83798e-05
2.77533e-05
2.72453e-05
2.68144e-05
2.64315e-05
2.60785e-05
2.57446e-05
2.54216e-05
2.51022e-05
2.47798e-05
2.44484e-05
2.41038e-05
2.37431e-05
2.33647e-05
2.29677e-05
2.25516e-05
2.21166e-05
2.16627e-05
1.64038e-05
3.13741e-05
3.13573e-05
3.13145e-05
3.12329e-05
3.11056e-05
3.0962e-05
3.09036e-05
3.1105e-05
3.171e-05
3.25367e-05
3.42224e-05
3.58188e-05
3.51205e-05
2.91939e-05
3.37888e-05
3.712e-05
3.62723e-05
3.61716e-05
3.69001e-05
3.80148e-05
3.76385e-05
3.70686e-05
3.6408e-05
3.58436e-05
3.53689e-05
3.45213e-05
3.26632e-05
3.13609e-05
3.0227e-05
2.9673e-05
2.87901e-05
2.80846e-05
2.75238e-05
2.70624e-05
2.6664e-05
2.63049e-05
2.59707e-05
2.56516e-05
2.53397e-05
2.50277e-05
2.47093e-05
2.43795e-05
2.40349e-05
2.36733e-05
2.32936e-05
2.28954e-05
2.24782e-05
2.20423e-05
2.15877e-05
1.63284e-05
3.13948e-05
3.13821e-05
3.13439e-05
3.12678e-05
3.11478e-05
3.10151e-05
3.0971e-05
3.11846e-05
3.16603e-05
3.25882e-05
3.42087e-05
3.58568e-05
3.39721e-05
2.93923e-05
3.47641e-05
3.6779e-05
3.61799e-05
3.62944e-05
3.72428e-05
3.84466e-05
3.73642e-05
3.68253e-05
3.6204e-05
3.56598e-05
3.50233e-05
3.38924e-05
3.20557e-05
3.07812e-05
3.00391e-05
2.92341e-05
2.84408e-05
2.78146e-05
2.73128e-05
2.68929e-05
2.65241e-05
2.61874e-05
2.58707e-05
2.55651e-05
2.52627e-05
2.49565e-05
2.46409e-05
2.43118e-05
2.39668e-05
2.36043e-05
2.32236e-05
2.28242e-05
2.24061e-05
2.19694e-05
2.15142e-05
1.62549e-05
3.1417e-05
3.14089e-05
3.1376e-05
3.1306e-05
3.11945e-05
3.10743e-05
3.10467e-05
3.12752e-05
3.17871e-05
3.26571e-05
3.42901e-05
3.58595e-05
3.08174e-05
2.9547e-05
3.5057e-05
3.65551e-05
3.61854e-05
3.65126e-05
3.76811e-05
3.84807e-05
3.71038e-05
3.66182e-05
3.60202e-05
3.54901e-05
3.46231e-05
3.28655e-05
3.1435e-05
3.02322e-05
2.97042e-05
2.88277e-05
2.81239e-05
2.75697e-05
2.712e-05
2.67369e-05
2.63951e-05
2.60792e-05
2.57786e-05
2.54847e-05
2.51899e-05
2.4888e-05
2.45742e-05
2.42454e-05
2.38998e-05
2.35365e-05
2.31547e-05
2.27544e-05
2.23355e-05
2.18981e-05
2.14424e-05
1.61831e-05
3.14406e-05
3.14373e-05
3.14102e-05
3.13472e-05
3.12453e-05
3.11391e-05
3.11301e-05
3.13744e-05
3.20002e-05
3.27881e-05
3.43891e-05
3.21867e-05
2.99655e-05
3.12013e-05
3.50083e-05
3.65379e-05
3.62437e-05
3.68109e-05
3.81912e-05
3.81702e-05
3.69265e-05
3.64484e-05
3.58561e-05
3.51269e-05
3.39398e-05
3.21105e-05
3.08226e-05
3.00163e-05
2.92464e-05
2.84578e-05
2.78392e-05
2.73494e-05
2.69455e-05
2.65951e-05
2.62779e-05
2.59809e-05
2.56944e-05
2.54102e-05
2.51213e-05
2.48223e-05
2.45095e-05
2.41806e-05
2.38344e-05
2.34702e-05
2.30876e-05
2.26864e-05
2.22668e-05
2.18287e-05
2.13725e-05
1.61135e-05
3.1465e-05
3.14671e-05
3.14462e-05
3.13909e-05
3.12994e-05
3.12088e-05
3.12204e-05
3.1486e-05
3.21521e-05
3.31739e-05
3.45256e-05
2.99295e-05
2.99048e-05
3.33046e-05
3.60285e-05
3.64508e-05
3.63587e-05
3.71976e-05
3.88053e-05
3.78732e-05
3.68487e-05
3.62881e-05
3.56465e-05
3.4675e-05
3.31952e-05
3.15577e-05
3.05259e-05
2.97116e-05
2.88255e-05
2.81289e-05
2.75873e-05
2.71539e-05
2.67898e-05
2.64685e-05
2.61734e-05
2.5893e-05
2.56183e-05
2.53417e-05
2.5057e-05
2.47598e-05
2.44474e-05
2.41182e-05
2.37714e-05
2.34063e-05
2.30228e-05
2.26209e-05
2.22005e-05
2.17618e-05
2.13052e-05
1.60464e-05
3.149e-05
3.14978e-05
3.14835e-05
3.14363e-05
3.13562e-05
3.12825e-05
3.13168e-05
3.16113e-05
3.22988e-05
3.33742e-05
3.47435e-05
3.47045e-05
3.40239e-05
3.67546e-05
3.67846e-05
3.63795e-05
3.65717e-05
3.76918e-05
3.89934e-05
3.75926e-05
3.67606e-05
3.61349e-05
3.52594e-05
3.39248e-05
3.25351e-05
3.13561e-05
3.02299e-05
2.92419e-05
2.84511e-05
2.78427e-05
2.73685e-05
2.69834e-05
2.66538e-05
2.63581e-05
2.60822e-05
2.58158e-05
2.55505e-05
2.52794e-05
2.49975e-05
2.47013e-05
2.43889e-05
2.40591e-05
2.37115e-05
2.33456e-05
2.29612e-05
2.25585e-05
2.21374e-05
2.16981e-05
2.12409e-05
1.596e-05
3.15153e-05
3.15288e-05
3.15214e-05
3.14828e-05
3.14148e-05
3.13592e-05
3.14187e-05
3.17428e-05
3.24501e-05
3.35574e-05
3.49838e-05
3.63618e-05
3.62331e-05
3.67738e-05
3.68641e-05
3.64396e-05
3.69199e-05
3.82968e-05
3.84597e-05
3.73252e-05
3.66356e-05
3.58202e-05
3.46692e-05
3.31949e-05
3.18869e-05
3.07992e-05
2.97108e-05
2.88194e-05
2.81276e-05
2.75983e-05
2.7182e-05
2.6838e-05
2.65381e-05
2.62644e-05
2.60047e-05
2.57496e-05
2.54913e-05
2.52239e-05
2.49435e-05
2.46475e-05
2.43346e-05
2.40041e-05
2.36556e-05
2.32888e-05
2.29035e-05
2.24999e-05
2.20781e-05
2.16381e-05
2.11804e-05
1.58642e-05
3.15402e-05
3.15597e-05
3.15593e-05
3.15295e-05
3.1474e-05
3.14375e-05
3.15245e-05
3.188e-05
3.25775e-05
3.37396e-05
3.51788e-05
3.54115e-05
3.33108e-05
3.60205e-05
3.68834e-05
3.66443e-05
3.74059e-05
3.88716e-05
3.80356e-05
3.72593e-05
3.64424e-05
3.53812e-05
3.39118e-05
3.25384e-05
3.1298e-05
3.02258e-05
2.92383e-05
2.84537e-05
2.78537e-05
2.73935e-05
2.70265e-05
2.67173e-05
2.64428e-05
2.61877e-05
2.59411e-05
2.56944e-05
2.54408e-05
2.51755e-05
2.48955e-05
2.45991e-05
2.42855e-05
2.3954e-05
2.36044e-05
2.32366e-05
2.28504e-05
2.24459e-05
2.20232e-05
2.15825e-05
2.11242e-05
1.57756e-05
3.15645e-05
3.15899e-05
3.15965e-05
3.15756e-05
3.15331e-05
3.15164e-05
3.16324e-05
3.20223e-05
3.27439e-05
3.39405e-05
3.53927e-05
3.22545e-05
3.32055e-05
3.67359e-05
3.68514e-05
3.69824e-05
3.80177e-05
3.90547e-05
3.77738e-05
3.69237e-05
3.6033e-05
3.47076e-05
3.32145e-05
3.18841e-05
3.07728e-05
2.97065e-05
2.88272e-05
2.81452e-05
2.76271e-05
2.72262e-05
2.69007e-05
2.66209e-05
2.63676e-05
2.61276e-05
2.58909e-05
2.56499e-05
2.5399e-05
2.51344e-05
2.4854e-05
2.45568e-05
2.4242e-05
2.39094e-05
2.35587e-05
2.31898e-05
2.28025e-05
2.23971e-05
2.19735e-05
2.1532e-05
2.10731e-05
1.56952e-05
3.15876e-05
3.16188e-05
3.16324e-05
3.16203e-05
3.15909e-05
3.1595e-05
3.17416e-05
3.21702e-05
3.29234e-05
3.41496e-05
3.3117e-05
3.22352e-05
3.48521e-05
3.68523e-05
3.69943e-05
3.74534e-05
3.87356e-05
3.88267e-05
3.77233e-05
3.65608e-05
3.5444e-05
3.40261e-05
3.26289e-05
3.13276e-05
3.02235e-05
2.92509e-05
2.84802e-05
2.7892e-05
2.74449e-05
2.70939e-05
2.6803e-05
2.65477e-05
2.63116e-05
2.60831e-05
2.58533e-05
2.56156e-05
2.53656e-05
2.51007e-05
2.48193e-05
2.45208e-05
2.42048e-05
2.38708e-05
2.35188e-05
2.31487e-05
2.27604e-05
2.23539e-05
2.19294e-05
2.14871e-05
2.10274e-05
1.56236e-05
3.16089e-05
3.16458e-05
3.16661e-05
3.16627e-05
3.16465e-05
3.16724e-05
3.18517e-05
3.22969e-05
3.31132e-05
3.43705e-05
3.12004e-05
3.24172e-05
3.60375e-05
3.62522e-05
3.72841e-05
3.80081e-05
3.9266e-05
3.86056e-05
3.72446e-05
3.62071e-05
3.47621e-05
3.33508e-05
3.20215e-05
3.07913e-05
2.9728e-05
2.88643e-05
2.81964e-05
2.76909e-05
2.73037e-05
2.69941e-05
2.67317e-05
2.64962e-05
2.62734e-05
2.6053e-05
2.58273e-05
2.55909e-05
2.53405e-05
2.50744e-05
2.47916e-05
2.44916e-05
2.4174e-05
2.38386e-05
2.34853e-05
2.31139e-05
2.27243e-05
2.23168e-05
2.18913e-05
2.14482e-05
2.09878e-05
1.55615e-05
3.16282e-05
3.16703e-05
3.16969e-05
3.17019e-05
3.1699e-05
3.17478e-05
3.19615e-05
3.24388e-05
3.33359e-05
3.46412e-05
3.15682e-05
3.52599e-05
3.67179e-05
3.69743e-05
3.76952e-05
3.86244e-05