/*--------------------------------*- C++ -*----------------------------------*\
  =========                 |
  \\      /  F ield         | OpenFOAM: The Open Source CFD Toolbox
   \\    /   O peration     | Website:  https://openfoam.org
    \\  /    A nd           | Version:  9
     \\/     M anipulation  |
\*---------------------------------------------------------------------------*/
FoamFile
{
    format      ascii;
    class       volVectorField;
    location    "0.06";
    object      U;
}
// * * * * * * * * * * * * * * * * * * * * * * * * * * * * * * * * * * * * * //

dimensions      [0 1 -1 0 0 0 0];

internalField   nonuniform List<vector> 
5000
(
(-0.203908 0 -0.225598)
(-0.213067 0 -0.227339)
(-0.224689 0 -0.218739)
(-0.238693 0 -0.19739)
(-0.254251 0 -0.162939)
(-0.270218 0 -0.115604)
(-0.287267 0 -0.0504129)
(-0.309095 0 0.0423101)
(-0.331466 0 0.141054)
(-0.322637 0 0.131809)
(-0.231256 0 -0.161504)
(-0.0495981 0 -0.756495)
(0.0194574 0 -1.31086)
(0.0242436 0 -1.54252)
(-0.00120337 0 -1.57493)
(-0.023071 0 -1.57913)
(-0.0232511 0 -1.5871)
(-0.0142807 0 -1.59212)
(-0.00509289 0 -1.59179)
(0.000372467 0 -1.58944)
(0.00247491 0 -1.58837)
(0.0030823 0 -1.58929)
(0.0031088 0 -1.59159)
(0.0026043 0 -1.59421)
(0.00192324 0 -1.59541)
(0.00201223 0 -1.59246)
(0.00383872 0 -1.5833)
(0.00705147 0 -1.56789)
(0.00874081 0 -1.54383)
(0.00226802 0 -1.50515)
(-0.0061686 0 -1.47481)
(0.00137104 0 -1.42056)
(0.0660641 0 -1.17335)
(0.147186 0 -0.867855)
(0.232113 0 -0.572419)
(0.304412 0 -0.330281)
(0.356214 0 -0.160519)
(0.387721 0 -0.0606463)
(0.403197 0 -0.0150507)
(0.408075 0 -0.00434757)
(0.407134 0 -0.0119592)
(0.40369 0 -0.0267577)
(0.399597 0 -0.0427406)
(0.39567 0 -0.0574348)
(0.392148 0 -0.0702741)
(0.389017 0 -0.0814765)
(0.386193 0 -0.0914448)
(0.383591 0 -0.100523)
(0.381178 0 -0.108908)
(0.377898 0 -0.116461)
(-0.19545 0 -0.220357)
(-0.204099 0 -0.220596)
(-0.214867 0 -0.210543)
(-0.227506 0 -0.188111)
(-0.240998 0 -0.153219)
(-0.254323 0 -0.105476)
(-0.268724 0 -0.0384291)
(-0.287016 0 0.0550129)
(-0.300414 0 0.140089)
(-0.277867 0 0.0918339)
(-0.188597 0 -0.243097)
(-0.0194601 0 -0.837767)
(0.06814 0 -1.34485)
(0.0215216 0 -1.52299)
(-0.0131907 0 -1.55787)
(-0.0276908 0 -1.57365)
(-0.0221217 0 -1.59156)
(-0.0114987 0 -1.59904)
(-0.00303242 0 -1.59665)
(0.000821744 0 -1.59166)
(0.00142113 0 -1.58901)
(0.00103456 0 -1.58925)
(0.000496047 0 -1.59102)
(-0.000597825 0 -1.59309)
(-0.00293162 0 -1.59432)
(-0.00615118 0 -1.59264)
(-0.00743832 0 -1.58547)
(-0.00446595 0 -1.57034)
(-0.00230021 0 -1.54015)
(-0.00675879 0 -1.4932)
(-0.00920218 0 -1.47954)
(0.012243 0 -1.46653)
(0.0533583 0 -1.26011)
(0.112101 0 -0.984253)
(0.182773 0 -0.691628)
(0.249429 0 -0.43267)
(0.301558 0 -0.236422)
(0.336603 0 -0.108642)
(0.356569 0 -0.0394665)
(0.365406 0 -0.0121027)
(0.3673 0 -0.00982717)
(0.365598 0 -0.0198456)
(0.362459 0 -0.0341771)
(0.35903 0 -0.0487636)
(0.355792 0 -0.0620465)
(0.35287 0 -0.0737468)
(0.350245 0 -0.0840834)
(0.347852 0 -0.0933675)
(0.345637 0 -0.101789)
(0.342654 0 -0.1091)
(-0.186945 0 -0.215383)
(-0.195024 0 -0.214328)
(-0.204925 0 -0.203108)
(-0.216204 0 -0.179962)
(-0.22781 0 -0.144966)
(-0.238961 0 -0.0969686)
(-0.251217 0 -0.0285426)
(-0.266266 0 0.0635691)
(-0.271821 0 0.132508)
(-0.237475 0 0.0475542)
(-0.148026 0 -0.318934)
(0.0136883 0 -0.918414)
(0.14097 0 -1.39464)
(0.0268621 0 -1.47354)
(-0.0163706 0 -1.54375)
(-0.0219397 0 -1.57455)
(-0.0122868 0 -1.59845)
(-0.00338687 0 -1.60556)
(0.00174601 0 -1.60009)
(0.00252022 0 -1.59234)
(0.000803244 0 -1.58842)
(-0.00104733 0 -1.58846)
(-0.00207272 0 -1.59001)
(-0.00290207 0 -1.59075)
(-0.00614242 0 -1.58975)
(-0.0140164 0 -1.58751)
(-0.0223498 0 -1.58347)
(-0.0205584 0 -1.57313)
(-0.0142635 0 -1.537)
(-0.0116033 0 -1.49064)
(0.00106973 0 -1.50443)
(0.0475195 0 -1.52287)
(0.072851 0 -1.32602)
(0.104734 0 -1.0688)
(0.152396 0 -0.790132)
(0.206418 0 -0.526428)
(0.253944 0 -0.312285)
(0.289117 0 -0.161544)
(0.31141 0 -0.0705841)
(0.323093 0 -0.0261377)
(0.327432 0 -0.0124747)
(0.327457 0 -0.016066)
(0.325386 0 -0.0274581)
(0.322565 0 -0.0411381)
(0.319675 0 -0.0544732)
(0.316983 0 -0.0665417)
(0.314549 0 -0.0772495)
(0.312345 0 -0.0867866)
(0.310303 0 -0.0952839)
(0.307596 0 -0.102376)
(-0.178425 0 -0.210709)
(-0.185929 0 -0.208565)
(-0.194965 0 -0.19641)
(-0.204973 0 -0.172858)
(-0.214928 0 -0.137998)
(-0.224339 0 -0.0897786)
(-0.234896 0 -0.020382)
(-0.24693 0 0.068493)
(-0.245778 0 0.119688)
(-0.200948 0 0.00121002)
(-0.101467 0 -0.395025)
(0.0395286 0 -0.999072)
(0.207559 0 -1.42316)
(0.068615 0 -1.39429)
(0.00462613 0 -1.52385)
(0.00210692 0 -1.57882)
(0.00960731 0 -1.60415)
(0.0104298 0 -1.60872)
(0.00900621 0 -1.60054)
(0.00581858 0 -1.59072)
(0.00136725 0 -1.58611)
(-0.00241197 0 -1.58679)
(-0.00398813 0 -1.58923)
(-0.00300235 0 -1.58888)
(-0.00339083 0 -1.58289)
(-0.0121956 0 -1.57582)
(-0.029433 0 -1.5759)
(-0.0310616 0 -1.58107)
(-0.0161808 0 -1.54892)
(0.00189705 0 -1.51482)
(0.036859 0 -1.54432)
(0.0334445 0 -1.54514)
(0.0397236 0 -1.35488)
(0.079676 0 -1.11901)
(0.122323 0 -0.860882)
(0.167293 0 -0.604127)
(0.209817 0 -0.381884)
(0.243769 0 -0.214656)
(0.267103 0 -0.105301)
(0.280807 0 -0.0448033)
(0.287243 0 -0.0193356)
(0.288975 0 -0.0154748)
(0.288103 0 -0.0228755)
(0.286049 0 -0.0348508)
(0.283633 0 -0.0477495)
(0.281245 0 -0.0599486)
(0.279035 0 -0.0709502)
(0.277024 0 -0.080742)
(0.275147 0 -0.0893382)
(0.272689 0 -0.0962358)
(-0.169933 0 -0.206383)
(-0.17686 0 -0.203291)
(-0.18506 0 -0.190407)
(-0.193907 0 -0.166669)
(-0.202462 0 -0.132034)
(-0.210571 0 -0.0835546)
(-0.219905 0 -0.0136359)
(-0.229306 0 0.070302)
(-0.222812 0 0.102059)
(-0.171429 0 -0.0485401)
(-0.0602172 0 -0.474583)
(0.0537485 0 -1.06967)
(0.12507 0 -1.4601)
(0.105338 0 -1.3177)
(0.0493166 0 -1.48958)
(0.0476659 0 -1.57399)
(0.0413846 0 -1.6024)
(0.026694 0 -1.60487)
(0.0168572 0 -1.59669)
(0.0104121 0 -1.58667)
(0.0036877 0 -1.58194)
(-0.0022086 0 -1.58398)
(-0.00486539 0 -1.58938)
(-0.00135548 0 -1.59122)
(0.00577203 0 -1.58064)
(0.00428565 0 -1.56309)
(-0.0136793 0 -1.56447)
(-0.0109 0 -1.59299)
(0.00765626 0 -1.5844)
(0.0402851 0 -1.56419)
(0.0688315 0 -1.53345)
(-0.00453769 0 -1.51684)
(-0.00183734 0 -1.40047)
(0.0564756 0 -1.17298)
(0.0943232 0 -0.921012)
(0.131947 0 -0.669773)
(0.169124 0 -0.444362)
(0.200563 0 -0.265936)
(0.223742 0 -0.141767)
(0.238647 0 -0.0669198)
(0.246754 0 -0.0299358)
(0.250076 0 -0.0181104)
(0.250471 0 -0.0207302)
(0.249326 0 -0.0302642)
(0.247526 0 -0.0421837)
(0.245555 0 -0.0541775)
(0.243637 0 -0.0652967)
(0.241848 0 -0.0752645)
(0.240141 0 -0.0839262)
(0.237913 0 -0.0906218)
(-0.161502 0 -0.202397)
(-0.167855 0 -0.198481)
(-0.175262 0 -0.185047)
(-0.183076 0 -0.161272)
(-0.190489 0 -0.126874)
(-0.197688 0 -0.0780703)
(-0.206291 0 -0.00801491)
(-0.213904 0 0.0697846)
(-0.203968 0 0.0809677)
(-0.151522 0 -0.101047)
(-0.0514136 0 -0.548532)
(0.0552504 0 -1.12373)
(0.00180642 0 -1.47616)
(0.0450117 0 -1.3123)
(0.0777546 0 -1.47626)
(0.0882029 0 -1.56138)
(0.0656969 0 -1.58965)
(0.0365427 0 -1.59293)
(0.0218533 0 -1.58948)
(0.015345 0 -1.58123)
(0.00780582 0 -1.57623)
(0.000117359 0 -1.57957)
(-0.00478817 0 -1.58989)
(-0.000804007 0 -1.59989)
(0.0136496 0 -1.59072)
(0.0218492 0 -1.56077)
(0.0200508 0 -1.55823)
(0.0290107 0 -1.5946)
(0.0381805 0 -1.61478)
(0.0621807 0 -1.59822)
(0.0589966 0 -1.48366)
(0.0167391 0 -1.46585)
(-0.0103753 0 -1.44441)
(0.0218216 0 -1.24867)
(0.069748 0 -0.98503)
(0.10334 0 -0.728755)
(0.13367 0 -0.499999)
(0.160974 0 -0.313789)
(0.182558 0 -0.178181)
(0.197547 0 -0.0911473)
(0.206618 0 -0.0435519)
(0.211181 0 -0.0237723)
(0.212737 0 -0.0211559)
(0.21253 0 -0.02766)
(0.211427 0 -0.0380699)
(0.209953 0 -0.0494571)
(0.208383 0 -0.0604171)
(0.20683 0 -0.0703666)
(0.205257 0 -0.0789406)
(0.203168 0 -0.0853761)
(-0.153147 0 -0.198741)
(-0.158938 0 -0.194114)
(-0.165603 0 -0.180269)
(-0.172506 0 -0.15654)
(-0.179015 0 -0.122302)
(-0.185632 0 -0.073041)
(-0.193903 0 -0.00310515)
(-0.200665 0 0.0680328)
(-0.189375 0 0.0592558)
(-0.138298 0 -0.151491)
(-0.0574465 0 -0.609909)
(0.0358501 0 -1.14702)
(-0.0709695 0 -1.45852)
(0.0436868 0 -1.3539)
(0.0434665 0 -1.5158)
(0.0656217 0 -1.56282)
(0.0566765 0 -1.57325)
(0.0319552 0 -1.57886)
(0.0220358 0 -1.58365)
(0.0197287 0 -1.57684)
(0.0131635 0 -1.57003)
(0.00474425 0 -1.57344)
(-0.00305759 0 -1.5886)
(-0.00189568 0 -1.60941)
(0.0102114 0 -1.60441)
(0.0170071 0 -1.56404)
(0.0197597 0 -1.56222)
(0.0332635 0 -1.60399)
(0.0419907 0 -1.6316)
(0.0447476 0 -1.5804)
(0.0422456 0 -1.46881)
(0.0406913 0 -1.42441)
(0.00848853 0 -1.42425)
(0.00389881 0 -1.30821)
(0.0451653 0 -1.04099)
(0.0754045 0 -0.778335)
(0.101124 0 -0.546672)
(0.124425 0 -0.355714)
(0.14368 0 -0.212184)
(0.157928 0 -0.115649)
(0.167324 0 -0.0589839)
(0.172728 0 -0.0318398)
(0.175258 0 -0.0239641)
(0.175947 0 -0.0271162)
(0.175586 0 -0.0356135)
(0.174696 0 -0.046025)
(0.17359 0 -0.0565243)
(0.172396 0 -0.0662068)
(0.170843 0 -0.0744686)
(0.168383 0 -0.0806301)
(-0.14488 0 -0.195414)
(-0.150125 0 -0.190175)
(-0.156089 0 -0.17602)
(-0.162182 0 -0.15236)
(-0.167972 0 -0.11814)
(-0.174228 0 -0.0682276)
(-0.182348 0 0.00150481)
(-0.188723 0 0.065983)
(-0.177663 0 0.0392281)
(-0.130769 0 -0.194674)
(-0.0654823 0 -0.655055)
(-0.00548448 0 -1.13866)
(-0.133369 0 -1.4277)
(-0.0487468 0 -1.45255)
(-0.0137953 0 -1.50884)
(0.0171397 0 -1.56892)
(0.0261982 0 -1.56216)
(0.0202887 0 -1.57119)
(0.0198848 0 -1.58304)
(0.0227719 0 -1.575)
(0.0187029 0 -1.56454)
(0.0122359 0 -1.56668)
(0.00589153 0 -1.58355)
(0.00659432 0 -1.60848)
(-0.00122081 0 -1.60274)
(-0.00270149 0 -1.56449)
(0.00825631 0 -1.5772)
(0.0509733 0 -1.60845)
(0.0136086 0 -1.63698)
(0.0048754 0 -1.56868)
(0.0106761 0 -1.48135)
(0.0305524 0 -1.42378)
(0.0360967 0 -1.39521)
(0.0157712 0 -1.31369)
(0.018686 0 -1.08133)
(0.0459182 0 -0.821171)
(0.0696791 0 -0.586341)
(0.089697 0 -0.391702)
(0.106546 0 -0.242697)
(0.119698 0 -0.139116)
(0.129016 0 -0.0751457)
(0.134949 0 -0.0416003)
(0.138268 0 -0.0288002)
(0.139784 0 -0.0285543)
(0.140174 0 -0.0349249)
(0.139931 0 -0.0441213)
(0.139382 0 -0.0539692)
(0.138727 0 -0.0632055)
(0.137688 0 -0.0703437)
(0.135201 0 -0.0695016)
(-0.136709 0 -0.192412)
(-0.141415 0 -0.186644)
(-0.146709 0 -0.172251)
(-0.15206 0 -0.14865)
(-0.157238 0 -0.114283)
(-0.163209 0 -0.0635227)
(-0.171123 0 0.0059946)
(-0.176992 0 0.0640151)
(-0.166263 0 0.0214135)
(-0.123559 0 -0.229392)
(-0.069175 0 -0.68529)
(-0.0365451 0 -1.12339)
(-0.079055 0 -1.41016)
(-0.0169969 0 -1.49124)
(0.0176137 0 -1.51583)
(-0.0147707 0 -1.58293)
(0.0163946 0 -1.56741)
(0.0235453 0 -1.56908)
(0.0179466 0 -1.58168)
(0.0202761 0 -1.57299)
(0.0227661 0 -1.56065)
(0.0256247 0 -1.56249)
(0.0340704 0 -1.57857)
(0.0419566 0 -1.59854)
(0.0124904 0 -1.58824)
(-0.0397852 0 -1.55937)
(-0.145115 0 -1.65345)
(-0.092061 0 -1.63141)
(-0.0426993 0 -1.63046)
(-0.0266517 0 -1.58385)
(-0.00463714 0 -1.51401)
(0.0213278 0 -1.45254)
(0.0328256 0 -1.39311)
(0.0255353 0 -1.29315)
(0.0202209 0 -1.10051)
(0.0293308 0 -0.852984)
(0.0437559 0 -0.618617)
(0.0584392 0 -0.421826)
(0.0719981 0 -0.269279)
(0.0834124 0 -0.160795)
(0.0921446 0 -0.0912758)
(0.0982307 0 -0.0524524)
(0.102083 0 -0.0352709)
(0.104258 0 -0.0317603)
(0.105282 0 -0.0359057)
(0.105573 0 -0.0436914)
(0.105424 0 -0.052677)
(0.105022 0 -0.0612654)
(0.104246 0 -0.067219)
(0.101832 0 -0.0622555)
(-0.128638 0 -0.189733)
(-0.132806 0 -0.183511)
(-0.137445 0 -0.168936)
(-0.142088 0 -0.145366)
(-0.146681 0 -0.110706)
(-0.15231 0 -0.0589778)
(-0.159763 0 0.0102293)
(-0.164661 0 0.0618961)
(-0.153537 0 0.00493913)
(-0.113185 0 -0.259076)
(-0.0675814 0 -0.706681)
(-0.0424749 0 -1.12623)
(-0.0209353 0 -1.42188)
(0.00599568 0 -1.49732)
(0.00600608 0 -1.52231)
(-0.0001416 0 -1.58581)
(0.0284764 0 -1.58613)
(0.0392983 0 -1.56751)
(0.0123892 0 -1.57742)
(0.00393773 0 -1.57207)
(0.0235244 0 -1.56505)
(0.0512184 0 -1.56978)
(0.0778261 0 -1.58726)
(0.082882 0 -1.59506)
(0.0393382 0 -1.55238)
(0.0285144 0 -1.44498)
(0.0357555 0 -1.64762)
(-0.013205 0 -1.64422)
(-0.0168314 0 -1.63997)
(-0.0155882 0 -1.60785)
(0.000784202 0 -1.55032)
(0.0197905 0 -1.48093)
(0.0283104 0 -1.39807)
(0.0217363 0 -1.28396)
(0.0111056 0 -1.09368)
(0.0100491 0 -0.863729)
(0.0178407 0 -0.638578)
(0.0283656 0 -0.44428)
(0.0391216 0 -0.291065)
(0.0488695 0 -0.179969)
(0.0568815 0 -0.106697)
(0.0629184 0 -0.0638189)
(0.0671149 0 -0.0429365)
(0.0698051 0 -0.0364209)
(0.0713713 0 -0.0383226)
(0.0721492 0 -0.0445132)
(0.0723904 0 -0.0523279)
(0.0722343 0 -0.0598038)
(0.0715689 0 -0.0640716)
(0.069285 0 -0.0564178)
(-0.120669 0 -0.187378)
(-0.124293 0 -0.180774)
(-0.128281 0 -0.166067)
(-0.132221 0 -0.142501)
(-0.136199 0 -0.10745)
(-0.141333 0 -0.0547577)
(-0.147984 0 0.0138972)
(-0.151456 0 0.0591504)
(-0.139692 0 -0.0110833)
(-0.102109 0 -0.286116)
(-0.066405 0 -0.72561)
(-0.0398506 0 -1.15006)
(-0.0159883 0 -1.43816)
(-0.0181904 0 -1.49807)
(-0.0168284 0 -1.52775)
(-0.00344313 0 -1.58481)
(-0.00495664 0 -1.63819)
(0.0207445 0 -1.56946)
(0.00612524 0 -1.57295)
(-0.00379607 0 -1.57956)
(0.0206365 0 -1.58466)
(0.0526718 0 -1.59249)
(0.0646431 0 -1.60462)
(0.0631097 0 -1.57884)
(0.0482018 0 -1.4982)
(0.054953 0 -1.43969)
(0.0555315 0 -1.59319)
(0.0228242 0 -1.62217)
(0.0111059 0 -1.62807)
(0.00181166 0 -1.6089)
(0.000341923 0 -1.56219)
(0.00106112 0 -1.48897)
(0.00500261 0 -1.39682)
(-0.000887031 0 -1.2687)
(-0.0146296 0 -1.07894)
(-0.0169034 0 -0.865442)
(-0.0104649 0 -0.650877)
(-0.0017888 0 -0.461162)
(0.00735268 0 -0.309037)
(0.0159942 0 -0.196914)
(0.0234447 0 -0.12127)
(0.0293873 0 -0.0753839)
(0.0338065 0 -0.0514624)
(0.0368861 0 -0.0422615)
(0.038893 0 -0.0419891)
(0.040085 0 -0.0464785)
(0.0406552 0 -0.0528473)
(0.0406858 0 -0.0586922)
(0.0400366 0 -0.060719)
(0.0379617 0 -0.050678)
(-0.112807 0 -0.185352)
(-0.115878 0 -0.178437)
(-0.119207 0 -0.163649)
(-0.12243 0 -0.140075)
(-0.125725 0 -0.104597)
(-0.13016 0 -0.0510668)
(-0.135649 0 0.016693)
(-0.137299 0 0.0555444)
(-0.124938 0 -0.0264601)
(-0.0914596 0 -0.309313)
(-0.0643377 0 -0.743368)
(-0.0304947 0 -1.17566)
(-0.0149334 0 -1.44114)
(-0.0199849 0 -1.49707)
(-0.0241139 0 -1.53316)
(-0.0162532 0 -1.57917)
(-0.0528248 0 -1.6148)
(-0.0550911 0 -1.54893)
(-0.0480507 0 -1.56004)
(-0.0356219 0 -1.59721)
(-0.0153885 0 -1.63643)
(0.00536953 0 -1.64124)
(0.0191001 0 -1.62172)
(0.0301234 0 -1.5689)
(0.0454856 0 -1.51714)
(0.0759197 0 -1.49475)
(0.0887277 0 -1.56892)
(0.065182 0 -1.60052)
(0.042128 0 -1.60705)
(0.023239 0 -1.59283)
(0.00946289 0 -1.55312)
(0.00122162 0 -1.4834)
(-0.00690201 0 -1.39052)
(-0.018295 0 -1.25001)
(-0.0303134 0 -1.06765)
(-0.0352799 0 -0.866662)
(-0.0332213 0 -0.660352)
(-0.0277252 0 -0.474936)
(-0.0207731 0 -0.324396)
(-0.0136153 0 -0.212064)
(-0.00705355 0 -0.134953)
(-0.00152518 0 -0.0868483)
(0.00282553 0 -0.0604511)
(0.00604587 0 -0.0488881)
(0.00828376 0 -0.0465517)
(0.0097197 0 -0.0492653)
(0.0104741 0 -0.0539353)
(0.0105568 0 -0.0578112)
(0.00982902 0 -0.0575914)
(0.00792908 0 -0.0461168)
(-0.105059 0 -0.183661)
(-0.107567 0 -0.176508)
(-0.110226 0 -0.161694)
(-0.112707 0 -0.138126)
(-0.115231 0 -0.102254)
(-0.118726 0 -0.0481142)
(-0.122649 0 0.0183447)
(-0.121967 0 0.0509324)
(-0.108188 0 -0.0410805)
(-0.0780139 0 -0.328464)
(-0.0504919 0 -0.761925)
(-0.016336 0 -1.18815)
(-0.0254657 0 -1.43994)
(-0.0327809 0 -1.49336)
(-0.0349026 0 -1.53185)
(-0.0410741 0 -1.56707)
(-0.0856858 0 -1.591)
(-0.0973588 0 -1.55906)
(-0.0793589 0 -1.57795)
(-0.057563 0 -1.60548)
(-0.0345423 0 -1.6329)
(-0.0159075 0 -1.63685)
(-0.00035168 0 -1.62507)
(0.0155589 0 -1.59247)
(0.0404148 0 -1.55449)
(0.0761349 0 -1.53487)
(0.0944083 0 -1.5607)
(0.0825026 0 -1.57891)
(0.0609937 0 -1.58169)
(0.0396477 0 -1.56886)
(0.0213478 0 -1.53455)
(0.0104481 0 -1.46946)
(-0.00473178 0 -1.37114)
(-0.0225805 0 -1.23147)
(-0.0354194 0 -1.05396)
(-0.0452507 0 -0.860946)
(-0.0489185 0 -0.663358)
(-0.0476749 0 -0.48358)
(-0.0437837 0 -0.335889)
(-0.0388078 0 -0.224456)
(-0.0337153 0 -0.146864)
(-0.0290936 0 -0.0973768)
(-0.0252367 0 -0.0691383)
(-0.0222295 0 -0.0556329)
(-0.0200315 0 -0.051443)
(-0.0185534 0 -0.0523898)
(-0.0177452 0 -0.0551869)
(-0.0177038 0 -0.0568388)
(-0.0188349 0 -0.0542001)
(-0.0215229 0 -0.0414796)
(-0.097437 0 -0.182312)
(-0.0993754 0 -0.174994)
(-0.101352 0 -0.160217)
(-0.103064 0 -0.136697)
(-0.104722 0 -0.100534)
(-0.107034 0 -0.0461158)
(-0.109004 0 0.0185594)
(-0.105586 0 0.0450118)
(-0.0896482 0 -0.0556576)
(-0.0621721 0 -0.34572)
(-0.034918 0 -0.78246)
(-0.00711496 0 -1.19154)
(-0.0308093 0 -1.43161)
(-0.0469181 0 -1.48971)
(-0.0473264 0 -1.52618)
(-0.0624699 0 -1.55205)
(-0.100267 0 -1.57197)
(-0.110133 0 -1.56781)
(-0.0907304 0 -1.59517)
(-0.0642311 0 -1.62287)
(-0.0366441 0 -1.64413)
(-0.0161787 0 -1.64797)
(0.0015405 0 -1.63861)
(0.0198306 0 -1.61432)
(0.0435255 0 -1.58347)
(0.0711046 0 -1.56206)
(0.0866014 0 -1.56193)
(0.0820422 0 -1.5636)
(0.0661905 0 -1.5584)
(0.0460187 0 -1.5428)
(0.0242424 0 -1.5098)
(0.00369325 0 -1.44722)
(-0.017049 0 -1.34094)
(-0.0356336 0 -1.20922)
(-0.0464914 0 -1.03659)
(-0.0553341 0 -0.847769)
(-0.0616458 0 -0.658362)
(-0.0637056 0 -0.485427)
(-0.0627438 0 -0.342035)
(-0.0601239 0 -0.23279)
(-0.0568107 0 -0.155838)
(-0.0534557 0 -0.105918)
(-0.0504497 0 -0.0766032)
(-0.0479788 0 -0.0617182)
(-0.0461017 0 -0.0560403)
(-0.0448277 0 -0.0553783)
(-0.0441826 0 -0.056192)
(-0.0443479 0 -0.0550416)
(-0.0460123 0 -0.0482339)
(-0.0497178 0 -0.0322101)
(-0.0899578 0 -0.181308)
(-0.0913237 0 -0.173899)
(-0.0926135 0 -0.15923)
(-0.093538 0 -0.13583)
(-0.0942534 0 -0.0995454)
(-0.0951936 0 -0.0452555)
(-0.0949348 0 0.0171101)
(-0.0886415 0 0.0374896)
(-0.0706664 0 -0.0705463)
(-0.0436886 0 -0.363056)
(-0.0159536 0 -0.798546)
(-0.00291033 0 -1.18985)
(-0.0341494 0 -1.41451)
(-0.053432 0 -1.48574)
(-0.0536932 0 -1.5191)
(-0.0714995 0 -1.53721)
(-0.100352 0 -1.55573)
(-0.107922 0 -1.57056)
(-0.0911211 0 -1.60886)
(-0.0635242 0 -1.64449)
(-0.0338979 0 -1.66491)
(-0.00966902 0 -1.66815)
(0.0123987 0 -1.65696)
(0.0324617 0 -1.63345)
(0.0524538 0 -1.6051)
(0.0711711 0 -1.58085)
(0.0815161 0 -1.56601)
(0.0791232 0 -1.55387)
(0.0669518 0 -1.539)
(0.0486613 0 -1.51682)
(0.0261696 0 -1.47989)
(0.00120266 0 -1.41659)
(-0.0208477 0 -1.31186)
(-0.0389704 0 -1.18604)
(-0.0518962 0 -1.02226)
(-0.0621917 0 -0.83266)
(-0.0712059 0 -0.648124)
(-0.0764512 0 -0.48136)
(-0.0784553 0 -0.342776)
(-0.0783397 0 -0.236579)
(-0.0770274 0 -0.161189)
(-0.0752037 0 -0.111704)
(-0.0733296 0 -0.0820584)
(-0.071678 0 -0.0663775)
(-0.0704015 0 -0.0596054)
(-0.0696189 0 -0.057502)
(-0.0694674 0 -0.0562004)
(-0.0701721 0 -0.0517453)
(-0.0722649 0 -0.0405885)
(-0.07587 0 -0.0225881)
(-0.0826405 0 -0.180649)
(-0.0834398 0 -0.173222)
(-0.0840509 0 -0.158735)
(-0.0841876 0 -0.135553)
(-0.0839196 0 -0.0993663)
(-0.0833856 0 -0.0456623)
(-0.0807809 0 0.0138773)
(-0.0715277 0 0.0282487)
(-0.0513913 0 -0.0860837)
(-0.0226237 0 -0.381616)
(0.00369398 0 -0.807516)
(0.000256744 0 -1.18232)
(-0.0288274 0 -1.3956)
(-0.0463385 0 -1.48073)
(-0.0507354 0 -1.51126)
(-0.0681434 0 -1.52411)
(-0.0907405 0 -1.54342)
(-0.0979773 0 -1.57294)
(-0.0852748 0 -1.62152)
(-0.0576855 0 -1.66669)
(-0.0237484 0 -1.68816)
(0.00499605 0 -1.69026)
(0.0287711 0 -1.67653)
(0.0481313 0 -1.65152)
(0.0643452 0 -1.62174)
(0.0767816 0 -1.59303)
(0.08252 0 -1.56847)
(0.0795627 0 -1.54593)
(0.0688922 0 -1.52204)
(0.0523166 0 -1.49219)
(0.031187 0 -1.44915)
(0.00704553 0 -1.38347)
(-0.0146467 0 -1.28504)
(-0.0340731 0 -1.15796)
(-0.0512113 0 -1.00263)
(-0.0652225 0 -0.812556)
(-0.0777846 0 -0.632367)
(-0.0864575 0 -0.471498)
(-0.0916298 0 -0.338052)
(-0.0942134 0 -0.235569)
(-0.0950935 0 -0.162518)
(-0.0949907 0 -0.11424)
(-0.0944314 0 -0.084948)
(-0.0937721 0 -0.0690089)
(-0.0932611 0 -0.0614798)
(-0.0931241 0 -0.058028)
(-0.0936124 0 -0.0545105)
(-0.0949515 0 -0.0468849)
(-0.097345 0 -0.0328388)
(-0.100417 0 -0.0155823)
(-0.075506 0 -0.18033)
(-0.0757541 0 -0.172954)
(-0.0757101 0 -0.158724)
(-0.0750847 0 -0.135869)
(-0.0738445 0 -0.100022)
(-0.0718485 0 -0.0473599)
(-0.0670213 0 0.008909)
(-0.0551189 0 0.0173414)
(-0.0336613 0 -0.102525)
(-0.00512626 0 -0.40018)
(0.0191114 0 -0.811638)
(0.0094449 0 -1.17047)
(-0.0143138 0 -1.37927)
(-0.0328238 0 -1.47415)
(-0.0398402 0 -1.50296)
(-0.0551482 0 -1.51278)
(-0.0739833 0 -1.53356)
(-0.0813114 0 -1.57521)
(-0.0689602 0 -1.63351)
(-0.0388222 0 -1.69016)
(-0.0043687 0 -1.71339)
(0.0241559 0 -1.713)
(0.0472725 0 -1.69562)
(0.0648931 0 -1.66727)
(0.0776825 0 -1.63398)
(0.0856663 0 -1.60018)
(0.0877986 0 -1.56826)
(0.083411 0 -1.53777)
(0.0730288 0 -1.50626)
(0.057522 0 -1.46918)
(0.0374272 0 -1.41952)
(0.0131274 0 -1.34962)
(-0.0133281 0 -1.25325)
(-0.0379551 0 -1.12519)
(-0.0577684 0 -0.977744)
(-0.0720373 0 -0.790155)
(-0.0849482 0 -0.612364)
(-0.0959289 0 -0.456352)
(-0.103875 0 -0.327996)
(-0.109013 0 -0.229699)
(-0.112052 0 -0.159669)
(-0.113682 0 -0.113319)
(-0.114465 0 -0.0850448)
(-0.11483 0 -0.06938)
(-0.115121 0 -0.0614292)
(-0.115664 0 -0.0567509)
(-0.116772 0 -0.051119)
(-0.118577 0 -0.0409998)
(-0.120866 0 -0.0254667)
(-0.123162 0 -0.00795066)
(-0.0685758 0 -0.18034)
(-0.0682977 0 -0.173081)
(-0.0676372 0 -0.159176)
(-0.0663016 0 -0.136754)
(-0.0641573 0 -0.101476)
(-0.0608294 0 -0.0502467)
(-0.0541255 0 0.00247189)
(-0.040284 0 0.00529424)
(-0.0183218 0 -0.119054)
(0.00853442 0 -0.416615)
(0.0264143 0 -0.815005)
(0.0193788 0 -1.16133)
(0.00364236 0 -1.36529)
(-0.0143249 0 -1.46621)
(-0.0234409 0 -1.49488)
(-0.0360635 0 -1.50299)
(-0.0523191 0 -1.52479)
(-0.0631175 0 -1.57547)
(-0.048307 0 -1.64776)
(-0.0140769 0 -1.71336)
(0.0184469 0 -1.73749)
(0.0452582 0 -1.73439)
(0.0665283 0 -1.71316)
(0.0819297 0 -1.68031)
(0.0915804 0 -1.64249)
(0.0959649 0 -1.60358)
(0.0951599 0 -1.56562)
(0.0892263 0 -1.52883)
(0.0787329 0 -1.49115)
(0.0642422 0 -1.44779)
(0.04587 0 -1.39151)
(0.0233956 0 -1.31536)
(-0.00179958 0 -1.2165)
(-0.0267974 0 -1.09104)
(-0.0511223 0 -0.947908)
(-0.0718964 0 -0.765396)
(-0.0895694 0 -0.587558)
(-0.1047 0 -0.435715)
(-0.115952 0 -0.312561)
(-0.123771 0 -0.218986)
(-0.128959 0 -0.152677)
(-0.132271 0 -0.108975)
(-0.134352 0 -0.0823624)
(-0.135736 0 -0.0674587)
(-0.136886 0 -0.0593493)
(-0.138236 0 -0.0535268)
(-0.140119 0 -0.0460063)
(-0.142511 0 -0.034298)
(-0.144848 0 -0.019101)
(-0.146666 0 -0.00460311)
(-0.06187 0 -0.180664)
(-0.0610988 0 -0.173576)
(-0.0598727 0 -0.160054)
(-0.0578995 0 -0.138156)
(-0.0549644 0 -0.103636)
(-0.0505137 0 -0.0541221)
(-0.0423484 0 -0.00504809)
(-0.0271479 0 -0.00728121)
(-0.00494228 0 -0.134987)
(0.0205202 0 -0.430089)
(0.0325208 0 -0.816986)
(0.0292631 0 -1.15772)
(0.0179462 0 -1.3544)
(0.003979 0 -1.45813)
(-0.00530783 0 -1.48775)
(-0.0152515 0 -1.49439)
(-0.0319647 0 -1.51596)
(-0.0446813 0 -1.57333)
(-0.0268973 0 -1.66511)
(0.00879594 0 -1.736)
(0.0400922 0 -1.76027)
(0.0652002 0 -1.75411)
(0.0845776 0 -1.72877)
(0.0976914 0 -1.69094)
(0.104695 0 -1.64797)
(0.106166 0 -1.60395)
(0.102768 0 -1.56072)
(0.0952053 0 -1.51891)
(0.0842987 0 -1.47649)
(0.0706015 0 -1.42826)
(0.0541158 0 -1.36642)
(0.0340545 0 -1.28384)
(0.0108638 0 -1.18132)
(-0.0152615 0 -1.05268)
(-0.0474655 0 -0.903204)
(-0.0768675 0 -0.729751)
(-0.0984572 0 -0.555064)
(-0.116429 0 -0.408723)
(-0.130245 0 -0.291659)
(-0.14026 0 -0.203639)
(-0.147218 0 -0.141848)
(-0.151914 0 -0.101502)
(-0.155081 0 -0.0771062)
(-0.157364 0 -0.0632923)
(-0.159344 0 -0.0551044)
(-0.161518 0 -0.0481286)
(-0.164141 0 -0.0390284)
(-0.166968 0 -0.0266864)
(-0.169255 0 -0.0131049)
(-0.170784 0 -0.00237633)
(-0.0554052 0 -0.181282)
(-0.0541798 0 -0.174408)
(-0.0524471 0 -0.161312)
(-0.0499223 0 -0.140005)
(-0.0463389 0 -0.106376)
(-0.0410215 0 -0.0587517)
(-0.0318396 0 -0.0133156)
(-0.0158 0 -0.0201513)
(0.00673965 0 -0.150616)
(0.0312504 0 -0.441571)
(0.0423603 0 -0.818946)
(0.0396521 0 -1.15258)
(0.0260732 0 -1.34693)
(0.0173547 0 -1.4515)
(0.0108807 0 -1.48255)
(0.00369386 0 -1.48657)
(-0.0137126 0 -1.50589)
(-0.0313604 0 -1.57064)
(-0.0101202 0 -1.68525)
(0.0288477 0 -1.76004)
(0.0606709 0 -1.78272)
(0.0844057 0 -1.77263)
(0.101638 0 -1.7424)
(0.112236 0 -1.69933)
(0.116468 0 -1.65071)
(0.114978 0 -1.60151)
(0.108965 0 -1.55351)
(0.099486 0 -1.50759)
(0.087526 0 -1.46165)
(0.073638 0 -1.40987)
(0.0577828 0 -1.34371)
(0.0393177 0 -1.25498)
(0.013927 0 -1.14307)
(-0.0184764 0 -1.00553)
(-0.0535605 0 -0.848341)
(-0.0865996 0 -0.683639)
(-0.112486 0 -0.516993)
(-0.132685 0 -0.377124)
(-0.148317 0 -0.266682)
(-0.159813 0 -0.184819)
(-0.167931 0 -0.128152)
(-0.173532 0 -0.0916672)
(-0.177443 0 -0.0698054)
(-0.18042 0 -0.0571545)
(-0.183128 0 -0.0487913)
(-0.186043 0 -0.0406941)
(-0.189253 0 -0.0305512)
(-0.192296 0 -0.0186119)
(-0.194425 0 -0.00752907)
(-0.195825 0 -0.000594949)
(-0.0491933 0 -0.182172)
(-0.0475549 0 -0.175543)
(-0.0453783 0 -0.162897)
(-0.0423942 0 -0.142217)
(-0.0383215 0 -0.109553)
(-0.0324276 0 -0.0638877)
(-0.0227195 0 -0.0220043)
(-0.00651538 0 -0.0331551)
(0.0157604 0 -0.166121)
(0.038887 0 -0.452514)
(0.0497235 0 -0.822516)
(0.0459537 0 -1.14524)
(0.0306815 0 -1.34119)
(0.0251965 0 -1.44702)
(0.0202089 0 -1.47868)
(0.0137056 0 -1.47644)
(-0.0254978 0 -1.49031)
(-0.0382531 0 -1.57969)
(0.0132871 0 -1.71191)
(0.0534021 0 -1.78571)
(0.0832303 0 -1.80425)
(0.104358 0 -1.78933)
(0.11857 0 -1.75357)
(0.125736 0 -1.70485)
(0.126413 0 -1.65031)
(0.121515 0 -1.59592)
(0.11253 0 -1.54368)
(0.100681 0 -1.49418)
(0.0866891 0 -1.44528)
(0.0708357 0 -1.39034)
(0.0525323 0 -1.31976)
(0.0305482 0 -1.22359)
(0.000711338 0 -1.09608)
(-0.0343623 0 -0.95353)
(-0.0688974 0 -0.793251)
(-0.102833 0 -0.631336)
(-0.131201 0 -0.474613)
(-0.15334 0 -0.342348)
(-0.170281 0 -0.239166)
(-0.182664 0 -0.163966)
(-0.191388 0 -0.112829)
(-0.197441 0 -0.0804496)
(-0.201781 0 -0.0611333)
(-0.205268 0 -0.0494483)
(-0.208585 0 -0.0407162)
(-0.212089 0 -0.0316727)
(-0.215655 0 -0.0212254)
(-0.218675 0 -0.0106461)
(-0.220528 0 -0.00256297)
(-0.221828 0 0.000854469)
(-0.0432412 0 -0.183312)
(-0.0412296 0 -0.176947)
(-0.0386695 0 -0.164756)
(-0.0353167 0 -0.144704)
(-0.0309125 0 -0.113013)
(-0.0247378 0 -0.0692634)
(-0.0149908 0 -0.030734)
(0.000701474 0 -0.045865)
(0.0218104 0 -0.180904)
(0.0424448 0 -0.463011)
(0.0520736 0 -0.825498)
(0.0444392 0 -1.13714)
(0.0274459 0 -1.33605)
(0.02544 0 -1.44405)
(0.0167434 0 -1.47146)
(-0.000155576 0 -1.45986)
(-0.0419414 0 -1.47519)
(-0.0168775 0 -1.60921)
(0.0487468 0 -1.74279)
(0.083358 0 -1.80981)
(0.108 0 -1.82274)
(0.124973 0 -1.80293)
(0.135276 0 -1.76154)
(0.138496 0 -1.70673)
(0.135203 0 -1.64634)
(0.126484 0 -1.58669)
(0.113845 0 -1.53054)
(0.0987142 0 -1.47767)
(0.081574 0 -1.42562)
(0.062075 0 -1.36676)
(0.0392311 0 -1.2905)
(0.0120462 0 -1.18527)
(-0.018909 0 -1.04695)
(-0.0543977 0 -0.900628)
(-0.0912314 0 -0.737764)
(-0.126203 0 -0.577449)
(-0.155735 0 -0.429042)
(-0.178801 0 -0.305398)
(-0.196173 0 -0.210325)
(-0.20871 0 -0.14232)
(-0.217456 0 -0.0969775)
(-0.223546 0 -0.0686867)
(-0.228058 0 -0.0516405)
(-0.231903 0 -0.0405464)
(-0.23568 0 -0.0313012)
(-0.239546 0 -0.0216967)
(-0.243183 0 -0.0117783)
(-0.245952 0 -0.00330844)
(-0.247439 0 0.00162918)
(-0.248627 0 0.00197516)
(-0.0375513 0 -0.184679)
(-0.0352012 0 -0.178588)
(-0.0323091 0 -0.166841)
(-0.0286647 0 -0.147387)
(-0.0240629 0 -0.116611)
(-0.0178556 0 -0.0746239)
(-0.00845648 0 -0.0391364)
(0.00623912 0 -0.0577825)
(0.0254681 0 -0.194222)
(0.0428423 0 -0.472076)
(0.0529711 0 -0.827318)
(0.0451903 0 -1.12622)
(0.0257215 0 -1.32923)
(0.021767 0 -1.44267)
(0.0174434 0 -1.46061)
(0.00477847 0 -1.44618)
(-0.00479509 0 -1.47024)
(0.0452592 0 -1.63791)
(0.0897759 0 -1.76773)
(0.114354 0 -1.82844)
(0.132882 0 -1.83682)
(0.145144 0 -1.81262)
(0.150938 0 -1.76569)
(0.149758 0 -1.70463)
(0.142063 0 -1.63825)
(0.129144 0 -1.57342)
(0.112627 0 -1.51333)
(0.0939117 0 -1.45719)
(0.0731627 0 -1.40127)
(0.049219 0 -1.33705)
(0.020556 0 -1.25396)
(-0.0105784 0 -1.14222)
(-0.0426477 0 -0.998614)
(-0.0800385 0 -0.843125)
(-0.119457 0 -0.679425)
(-0.155048 0 -0.522668)
(-0.18493 0 -0.382393)
(-0.208075 0 -0.267951)
(-0.225158 0 -0.181607)
(-0.23723 0 -0.121111)
(-0.245534 0 -0.0815422)
(-0.251367 0 -0.0570086)
(-0.255888 0 -0.0417203)
(-0.259961 0 -0.0308163)
(-0.264 0 -0.021107)
(-0.267937 0 -0.0115343)
(-0.271351 0 -0.00294044)
(-0.273685 0 0.00296927)
(-0.274753 0 0.00492144)
(-0.27581 0 0.00277177)
(-0.0321223 0 -0.186257)
(-0.0294602 0 -0.180442)
(-0.0262729 0 -0.169116)
(-0.0223907 0 -0.150202)
(-0.0176805 0 -0.120234)
(-0.0115979 0 -0.0797861)
(-0.00277422 0 -0.046952)
(0.0106012 0 -0.0685652)
(0.0276863 0 -0.205702)
(0.0410626 0 -0.479347)
(0.0491831 0 -0.829774)
(0.0419796 0 -1.11607)
(0.0172794 0 -1.3184)
(-0.00171655 0 -1.44191)
(0.00489398 0 -1.45689)
(0.00883271 0 -1.44893)
(0.0389054 0 -1.49371)
(0.0964621 0 -1.66671)
(0.124882 0 -1.78596)
(0.142157 0 -1.84151)
(0.155873 0 -1.84678)
(0.163763 0 -1.81827)
(0.164863 0 -1.76567)
(0.15897 0 -1.6983)
(0.146835 0 -1.62586)
(0.129769 0 -1.55601)
(0.109435 0 -1.49208)
(0.0872621 0 -1.43275)
(0.0633107 0 -1.37243)
(0.036094 0 -1.30165)
(0.00329821 0 -1.21084)
(-0.0328092 0 -1.09626)
(-0.0707505 0 -0.9456)
(-0.111872 0 -0.782365)
(-0.152052 0 -0.619296)
(-0.187583 0 -0.467745)
(-0.217068 0 -0.336135)
(-0.239633 0 -0.231429)
(-0.255862 0 -0.154233)
(-0.267047 0 -0.101288)
(-0.274656 0 -0.0671481)
(-0.280115 0 -0.0457657)
(-0.284581 0 -0.0316356)
(-0.288758 0 -0.0206796)
(-0.292818 0 -0.0108254)
(-0.296523 0 -0.00199353)
(-0.299462 0 0.00465712)
(-0.301243 0 0.00788943)
(-0.30189 0 0.00726423)
(-0.302801 0 0.00326321)
(-0.0269505 0 -0.188032)
(-0.0239932 0 -0.182491)
(-0.0205298 0 -0.171556)
(-0.0164337 0 -0.153115)
(-0.0116483 0 -0.123825)
(-0.00573673 0 -0.0846688)
(0.00249324 0 -0.054092)
(0.014555 0 -0.0781115)
(0.0297485 0 -0.215271)
(0.0400206 0 -0.484581)
(0.0445288 0 -0.83062)
(0.0369072 0 -1.10646)
(0.0106696 0 -1.3013)
(-0.0108101 0 -1.43924)
(0.00831483 0 -1.46598)
(0.0172772 0 -1.46168)
(0.0584147 0 -1.5349)
(0.121048 0 -1.69215)
(0.147487 0 -1.80033)
(0.163845 0 -1.85202)
(0.175567 0 -1.85402)
(0.18015 0 -1.82035)
(0.176787 0 -1.76136)
(0.165832 0 -1.68745)
(0.148854 0 -1.60912)
(0.127625 0 -1.53454)
(0.103823 0 -1.46714)
(0.0786741 0 -1.40491)
(0.0521751 0 -1.34053)