/*--------------------------------*- C++ -*----------------------------------*\
  =========                 |
  \\      /  F ield         | OpenFOAM: The Open Source CFD Toolbox
   \\    /   O peration     | Website:  https://openfoam.org
    \\  /    A nd           | Version:  9
     \\/     M anipulation  |
\*---------------------------------------------------------------------------*/
FoamFile
{
    format      ascii;
    class       volScalarField;
    location    "0.07";
    object      alpha.water;
}
// * * * * * * * * * * * * * * * * * * * * * * * * * * * * * * * * * * * * * //

dimensions      [0 0 0 0 0 0 0];

internalField   nonuniform List<scalar> 
5000
(
3.56363e-21
2.16197e-19
8.7168e-17
5.3916e-15
5.28847e-14
1.09754e-13
9.15337e-13
3.83887e-11
5.92883e-09
3.22122e-07
1.16634e-05
0.000104351
0.0021065
0.633519
0.999987
0.999999
1
1
1
1
1
1
1
1
1
1
1
0.999996
0.999997
0.771745
0.0545587
0.000176549
0.000179374
7.01342e-05
9.86156e-06
2.59316e-06
4.51874e-07
1.00847e-07
2.94711e-08
9.69658e-09
3.22577e-09
7.52574e-10
4.31067e-10
3.9901e-10
3.49021e-10
2.9074e-10
2.38096e-10
1.92864e-10
1.54368e-10
9.40924e-11
5.71093e-21
1.95119e-18
1.91316e-16
6.69516e-15
5.71495e-14
1.06936e-13
8.22285e-13
1.27756e-10
5.92301e-09
3.97101e-07
1.25468e-05
0.000167452
4.31308e-05
0.544007
0.999698
1
1
1
1
1
1
1
1
1
1
1
1
0.999991
0.999994
0.693802
0.0149907
0.000130697
0.000119119
7.09445e-05
1.01184e-05
2.76782e-06
7.97636e-07
1.54873e-07
3.53083e-08
1.04766e-08
3.38336e-09
8.56303e-10
4.33507e-10
4.01281e-10
3.77238e-10
3.34091e-10
2.86007e-10
2.40048e-10
1.95966e-10
1.21525e-10
1.26537e-20
5.43951e-18
2.57604e-16
7.11051e-15
6.07049e-14
1.06326e-13
1.57945e-12
1.59372e-10
5.32128e-09
3.90196e-07
1.79086e-05
0.000168798
2.72373e-05
0.41193
0.998743
1
1
1
1
1
1
1
1
1
1
1
0.999998
0.999998
0.998369
0.477047
0.00122625
0.000169994
0.000144308
6.94984e-05
9.2951e-06
2.33829e-06
8.32639e-07
2.44081e-07
5.44867e-08
1.30469e-08
3.66658e-09
8.98723e-10
4.10325e-10
3.85074e-10
3.80934e-10
3.58638e-10
3.20776e-10
2.76799e-10
2.29456e-10
1.44559e-10
4.47384e-20
8.6314e-18
2.9695e-16
7.44748e-15
6.87714e-14
1.41832e-13
2.76429e-12
1.03514e-10
3.08939e-09
7.72032e-07
1.83655e-05
3.42088e-05
2.7072e-05
0.239827
0.965453
0.999998
1
1
1
1
1
1
1
1
1
1
0.999995
0.999996
0.912459
0.230379
0.00058346
0.000505949
0.000239515
4.76784e-05
8.39104e-06
2.00333e-06
6.05635e-07
2.5189e-07
7.3016e-08
1.9116e-08
4.84235e-09
9.41627e-10
4.05129e-10
3.85658e-10
3.8213e-10
3.70897e-10
3.43359e-10
3.02223e-10
2.52564e-10
1.61458e-10
1.07329e-19
1.15236e-17
3.35138e-16
7.97627e-15
8.1853e-14
2.18716e-13
3.77522e-12
1.05863e-10
4.12811e-09
7.75556e-07
2.32011e-05
0.000113237
2.72373e-05
0.089847
0.84612
0.999985
1
1
1
1
1
1
1
1
1
0.999998
0.999998
0.999997
0.611368
0.0412384
0.000615289
0.000602724
0.000484708
6.01733e-05
3.7997e-06
2.3448e-06
5.19891e-07
1.85583e-07
7.26769e-08
2.17e-08
6.2169e-09
1.12828e-09
4.07724e-10
3.91938e-10
3.88788e-10
3.84939e-10
3.62894e-10
3.18241e-10
2.64828e-10
1.72306e-10
2.17064e-19
1.45852e-17
3.6505e-16
7.9097e-15
8.86566e-14
3.10656e-13
5.36304e-12
1.78646e-10
7.10946e-09
5.07099e-07
3.58396e-05
0.00035376
9.15974e-05
0.0115104
0.558835
0.999717
0.999999
1
1
1
1
1
1
1
0.999996
0.999994
0.999997
0.850019
0.162387
0.000309164
0.000584877
0.000287856
0.000392436
0.000151171
1.98066e-06
1.84809e-06
5.98921e-07
1.06755e-07
5.47098e-08
2.02794e-08
6.30374e-09
1.30803e-09
4.16074e-10
4.01878e-10
4.058e-10
4.00795e-10
3.72982e-10
3.23655e-10
2.69337e-10
1.80029e-10
3.69362e-19
1.59368e-17
3.63159e-16
7.59117e-15
8.51934e-14
3.2651e-13
5.6045e-12
1.75218e-10
5.09411e-09
1.26007e-07
8.13878e-05
0.000353512
0.000246492
0.0002516
0.197847
0.876534
0.999987
0.999999
0.999998
0.999999
1
0.999998
0.999984
0.999969
0.999996
0.999995
0.907794
0.254919
0.000297145
0.000181349
4.31159e-05
6.02741e-07
1.95437e-05
0.000174085
6.45329e-05
6.50941e-07
5.94709e-07
1.17347e-07
3.19322e-08
1.47802e-08
5.29072e-09
1.22537e-09
4.12142e-10
4.07398e-10
4.11252e-10
4.01873e-10
3.69443e-10
3.2441e-10
2.75584e-10
1.88343e-10
4.5747e-19
1.56415e-17
3.38032e-16
6.7199e-15
7.67061e-14
3.08819e-13
5.99098e-12
1.94543e-10
5.64871e-09
1.11969e-07
8.56332e-05
0.00031859
0.000264957
0.000963652
0.000174291
0.387047
0.985507
0.999996
0.999998
0.999993
0.999977
0.999998
0.999998
0.999993
0.999995
0.81626
0.250243
0.000323136
0.000212586
1.90881e-05
3.05157e-06
3.15739e-07
7.52385e-06
0.000174092
7.89774e-05
5.81668e-07
5.93518e-07
1.21965e-07
2.61119e-08
9.9634e-09
3.49584e-09
8.58767e-10
3.98024e-10
4.03735e-10
4.08329e-10
3.93998e-10
3.59657e-10
3.20898e-10
2.80199e-10
1.9524e-10
4.57015e-19
1.41316e-17
2.83742e-16
5.6193e-15
7.12124e-14
3.49329e-13
8.87921e-12
3.23632e-10
9.40653e-09
5.80618e-07
2.47285e-05
4.56914e-05
0.000665518
0.00108458
0.000139065
0.000363381
0.413567
0.917486
0.999996
0.999993
0.999987
0.999998
0.994817
0.866709
0.556818
0.144214
0.000352883
0.00026765
2.2349e-05
3.05842e-06
4.70962e-07
4.89647e-08
5.68435e-08
0.000164871
5.22411e-05
3.94049e-07
4.31377e-07
1.15555e-07
2.25741e-08
7.47246e-09
2.24731e-09
4.92955e-10
3.65756e-10
3.8532e-10
3.87696e-10
3.72892e-10
3.45018e-10
3.1444e-10
2.78047e-10
1.93938e-10
4.07361e-19
1.14155e-17
2.33292e-16
4.90976e-15
6.40039e-14
3.19184e-13
8.71305e-12
2.87926e-10
6.85199e-09
1.18061e-06
8.02628e-06
6.39782e-05
0.000663428
0.000229309
1.34849e-05
5.58527e-05
0.000132271
0.207224
0.520634
0.689645
0.698472
0.603252
0.383475
0.17187
0.0281865
0.000311734
0.000310181
3.34405e-05
3.4156e-06
4.65052e-07
7.16849e-08
1.23989e-08
1.91996e-08
0.000103753
2.5565e-05
2.77366e-07
2.78324e-07
9.40938e-08
1.96723e-08
5.29454e-09
1.48677e-09
3.08008e-10
3.19788e-10
3.47941e-10
3.51521e-10
3.44384e-10
3.28424e-10
3.06054e-10
2.72627e-10
1.81634e-10
3.21269e-19
8.93997e-18
1.87426e-16
3.9691e-15
4.74036e-14
1.917e-13
5.41702e-12
1.66726e-10
3.68974e-09
9.66601e-07
0.00010593
0.000608772
0.000658875
1.98468e-05
1.21731e-06
1.43731e-05
0.00011875
0.000157102
0.00156009
0.0182925
0.0174805
0.00386049
0.000168053
0.000126525
0.000157711
0.000267391
6.87893e-05
7.32828e-06
5.82122e-07
7.68709e-08
1.63279e-08
8.75374e-09
1.31458e-07
8.74164e-05
1.05854e-05
1.9039e-07
3.00271e-07
7.1991e-08
1.7189e-08
3.36044e-09
9.05442e-10
2.7551e-10
2.87038e-10
3.16238e-10
3.21553e-10
3.20286e-10
3.12938e-10
2.96345e-10
2.62084e-10
1.49919e-10
2.36397e-19
6.74174e-18
1.44558e-16
2.86329e-15
3.1016e-14
1.31183e-13
4.13329e-12
1.30185e-10
2.24429e-09
6.21274e-07
0.000244714
0.000615569
0.000539323
1.27905e-06
6.76736e-07
1.73633e-06
1.82187e-05
0.000128235
0.000164063
3.03583e-05
2.56087e-05
2.15921e-05
0.000144068
0.000107244
5.60888e-05
2.14349e-05
3.09978e-06
1.04057e-06
4.42163e-07
1.98501e-08
6.1693e-09
5.29066e-09
7.77325e-07
6.31462e-05
6.98431e-06
1.35071e-07
3.01982e-07
3.44595e-08
1.24398e-08
3.32255e-09
4.45837e-10
2.71357e-10
2.76406e-10
3.0151e-10
3.06931e-10
3.06184e-10
3.00846e-10
2.8487e-10
2.41053e-10
1.04647e-10
1.47807e-19
4.26757e-18
9.52469e-17
1.50217e-15
1.34398e-14
1.50385e-13
3.43676e-12
1.1366e-10
1.09623e-08
5.97761e-06
0.000133621
0.000193571
0.000244247
6.76732e-07
6.76355e-07
6.76736e-07
2.4125e-06
1.1507e-05
2.06296e-05
2.77318e-05
2.5971e-05
2.05502e-05
1.49422e-05
8.04838e-06
5.71155e-06
2.43722e-06
5.78288e-07
8.14139e-08
2.10774e-08
1.37865e-08
5.25212e-09
5.252e-09
1.59526e-06
2.68101e-05
2.41767e-06
1.20041e-07
1.34528e-07
3.23506e-08
4.80631e-09
3.47177e-09
2.80173e-10
2.70661e-10
2.76127e-10
2.9858e-10
3.02869e-10
3.00464e-10
2.91346e-10
2.68682e-10
2.04522e-10
6.04861e-11
5.87376e-20
1.66839e-18
3.10904e-17
5.9202e-16
9.53339e-15
1.85972e-13
6.13885e-12
2.55341e-10
7.0065e-07
3.01186e-05
1.7613e-05
0.000117478
0.000236567
6.76366e-07
6.76529e-07
6.89886e-07
7.86787e-07
1.5706e-06
2.3483e-06
3.50718e-06
3.42741e-06
3.17656e-06
2.81555e-06
2.73816e-06
2.08487e-06
6.8711e-07
1.074e-07
2.26065e-08
7.07411e-09
5.25209e-09
5.24492e-09
5.24714e-09
5.13274e-08
3.54885e-06
1.585e-05
1.13907e-07
2.95468e-08
4.43906e-08
2.53195e-09
2.19102e-09
2.82702e-10
2.7059e-10
2.7668e-10
2.991e-10
3.02612e-10
2.97947e-10
2.80936e-10
2.43404e-10
1.53042e-10
2.7417e-11
1.17036e-20
4.91837e-19
3.18021e-17
1.05862e-15
1.49105e-14
3.87358e-13
1.31851e-11
6.39486e-10
1.37508e-06
1.77926e-05
1.70465e-05
0.000337817
0.000284413
6.766e-07
9.78442e-07
8.34068e-06
6.81774e-06
6.04958e-07
9.41255e-07
1.95797e-06
2.52028e-06
2.35669e-06
2.4646e-06
2.51511e-06
2.51361e-06
2.50863e-06
1.30885e-06
1.82686e-08
5.27303e-09
5.24489e-09
5.24492e-09
5.24492e-09
5.24713e-09
2.93115e-06
1.71495e-05
1.35973e-06
5.26471e-09
4.492e-08
1.39953e-09
4.57019e-10
3.19868e-10
2.7059e-10
2.78157e-10
3.00192e-10
3.02454e-10
2.94825e-10
2.64482e-10
2.04615e-10
9.81799e-11
9.72014e-12
6.13237e-21
3.08197e-19
9.83696e-17
4.13091e-15
3.76746e-14
8.96306e-13
5.27837e-11
3.73896e-09
1.24404e-06
8.73168e-06
0.000128704
0.000340475
0.000144596
6.81843e-07
2.78902e-06
9.09521e-06
8.38736e-06
6.03437e-07
9.07531e-07
2.11124e-06
2.01844e-06
1.68123e-06
2.11537e-06
2.37418e-06
2.26768e-06
2.50463e-06
2.50323e-06
1.04118e-06
5.72467e-09
5.25892e-09
5.24492e-09
5.24714e-09
2.13519e-06
5.47604e-06
1.71247e-05
3.72164e-07
3.65733e-09
3.98481e-08
2.99806e-10
2.71561e-10
2.96911e-10
2.70582e-10
2.82631e-10
3.00468e-10
3.01994e-10
2.86438e-10
2.37375e-10
1.5437e-10
5.34279e-11
2.62334e-12
4.28549e-21
9.29522e-19
2.80531e-16
1.00943e-14
8.71181e-14
2.14634e-12
1.69582e-10
1.1576e-08
7.61438e-07
9.42307e-06
0.000328956
0.000340475
6.24629e-05
1.39791e-06
5.92279e-06
9.09238e-06
1.5006e-06
5.99815e-07
1.07924e-06
1.91361e-06
3.54587e-07
1.79275e-08
6.55145e-07
1.4142e-06
6.48174e-07
9.11332e-07
2.49714e-06
2.28158e-06
3.12425e-07
5.43437e-09
5.25975e-09
5.36536e-09
1.32199e-05
6.55382e-05
8.90161e-06
3.65743e-09
3.65759e-09
5.44948e-09
1.73158e-09
2.66683e-10
2.64928e-10
2.70715e-10
2.89888e-10
3.0024e-10
2.993e-10
2.67279e-10
1.98094e-10
1.01741e-10
2.45254e-11
4.6247e-13
5.35121e-21
3.96734e-18
4.93262e-16
1.49906e-14
1.45085e-13
4.21764e-12
2.84541e-10
1.33557e-08
3.1753e-07
1.46487e-05
0.000131404
0.000340475
8.14393e-05
1.6418e-06
6.37098e-06
6.40553e-06
5.99815e-07
6.00354e-07
4.80327e-08
2.99523e-08
2.03718e-08
1.69625e-08
8.13246e-09
7.92063e-09
7.50408e-09
7.44013e-09
9.23885e-07
2.26795e-06
1.45156e-06
2.75446e-08
1.01356e-08
6.13049e-09
2.73772e-05
7.14401e-05
1.02773e-05
3.37816e-09
9.20964e-09
4.89915e-10
2.43151e-09
2.6859e-10
2.64069e-10
2.7084e-10
2.90922e-10
2.98808e-10
2.89411e-10
2.36244e-10
1.48927e-10
5.72985e-11
9.45672e-12
2.34183e-14
2.61692e-20
8.72182e-18
6.23951e-16
1.71008e-14
1.7479e-13
5.03211e-12
3.0223e-10
1.08742e-08
4.41928e-07
1.6685e-05
1.70245e-05
0.000339997
7.20066e-05
1.77076e-06
2.69548e-06
1.56068e-06
1.45275e-06
1.5191e-06
1.04869e-07
3.06304e-07
9.63206e-07
1.78466e-07
2.72809e-08
1.05694e-08
7.44018e-09
7.40386e-09
6.74153e-08
2.22317e-06
1.64013e-06
6.25776e-08
2.22573e-08
1.02314e-08
2.39752e-05
7.17357e-05
9.62964e-06
2.1028e-09
3.92962e-08
3.89784e-10
2.28137e-09
2.63862e-10
2.63829e-10
2.70822e-10
2.88114e-10
2.93106e-10
2.70313e-10
1.93319e-10
9.72345e-11
2.72395e-11
3.11134e-12
-2.91954e-18
8.60129e-20
1.15087e-17
6.77173e-16
1.7552e-14
1.77405e-13
5.11942e-12
3.02975e-10
8.09598e-09
4.42947e-07
1.48764e-05
5.2688e-05
0.000194283
4.07157e-05
1.68636e-06
1.68636e-06
1.06568e-05
2.08024e-05
4.18468e-07
1.56819e-07
2.74674e-06
2.96482e-06
2.41558e-06
6.56636e-07
9.23961e-09
7.38335e-09
7.4092e-09
5.0063e-08
2.14162e-06
1.18186e-06
4.76605e-08
3.50449e-08
1.96295e-08
2.74463e-05
7.19174e-05
9.10761e-06
1.17574e-09
3.92195e-08
3.86068e-10
7.37945e-10
2.63827e-10
2.6368e-10
2.69705e-10
2.81584e-10
2.84218e-10
2.38647e-10
1.4031e-10
5.3575e-11
1.09483e-11
8.94035e-13
-6.72365e-19
1.3683e-19
1.26721e-17
6.78177e-16
1.74729e-14
1.82474e-13
5.21544e-12
3.08686e-10
6.99526e-09
3.5992e-07
1.71393e-05
0.000224981
0.000193763
3.12517e-05
1.77055e-06
2.97362e-06
2.22889e-05
2.2277e-05
8.91989e-07
1.06584e-06
2.96322e-06
2.96539e-06
2.96322e-06
1.24602e-06
5.16069e-08
7.4092e-09
7.38387e-09
1.4654e-07
2.09572e-06
6.40576e-07
4.42209e-08
3.59941e-08
7.56717e-06
7.8125e-05
7.2056e-05
4.67666e-06
6.67579e-10
3.17443e-08
2.68007e-10
2.7054e-10
2.69996e-10
2.63621e-10
2.67769e-10
2.75902e-10
2.69736e-10
1.89642e-10
8.62764e-11
2.46254e-11
3.75253e-12
2.26389e-13
-1.69944e-19
1.53016e-19
1.28793e-17
6.65893e-16
1.72588e-14
1.97002e-13
5.49291e-12
3.15133e-10
6.79241e-09
1.68752e-07
2.32709e-05
0.00022741
0.000227934
4.07453e-05
1.85073e-06
8.77428e-06
2.22741e-05
8.96248e-06
9.93221e-07
2.94898e-06
2.95884e-06
2.17113e-06
9.80778e-07
3.1766e-07
1.55187e-07
1.95511e-08
7.4092e-09
1.39304e-07
2.05253e-06
5.9327e-07
5.13115e-08
3.96646e-08
2.51818e-05
7.98757e-05
7.58121e-05
6.87586e-10
6.00155e-10
2.07764e-09
2.6601e-10
2.68008e-10
2.83409e-10
2.63621e-10
2.66373e-10
2.73174e-10
2.38692e-10
1.27926e-10
4.36242e-11
9.46989e-12
1.09873e-12
4.95101e-14
2.12062e-18
1.62958e-19
1.27174e-17
6.33827e-16
1.69122e-14
2.21532e-13
5.7235e-12
3.08778e-10
6.52146e-09
3.16071e-08
2.12327e-05
0.000149275
0.000227934
4.00856e-05
2.83996e-06
2.22232e-05
2.22465e-05
1.19453e-06
1.01026e-06
2.93486e-06
1.60599e-06
2.70509e-07
2.23526e-07
1.86743e-07
1.88899e-07
1.10147e-07
7.48232e-09
6.32917e-09
1.78552e-06
6.2256e-07
5.98991e-08
4.85491e-08
2.95256e-05
7.9906e-05
7.61162e-05
5.98717e-10
5.59916e-10
2.64411e-10
2.63046e-10
2.72608e-10
2.84492e-10
2.63783e-10
2.65827e-10
2.6546e-10
1.83037e-10
7.00863e-11
1.80685e-11
3.06569e-12
2.7151e-13
8.9744e-15
6.77403e-19
1.71499e-19
1.22233e-17
5.85799e-16
1.62608e-14
2.34091e-13
5.5308e-12
2.53779e-10
5.70106e-09
4.9903e-08
1.07791e-05
3.24269e-05
0.000227934
2.64116e-05
3.54448e-06
2.21317e-05
1.47176e-05
1.81075e-06
2.15981e-06
9.98185e-07
6.49663e-07
2.98714e-06
3.52231e-06
7.78432e-07
8.22195e-08
5.96961e-08
6.67874e-09
5.82144e-09
6.94751e-07
5.99761e-07
8.64976e-08
1.34861e-06
6.13289e-05
7.9904e-05
5.85974e-05
6.00956e-10
5.9724e-10
5.61331e-10
2.61181e-10
2.65653e-10
2.82494e-10
2.64834e-10
2.65402e-10
2.35458e-10
1.12977e-10
3.0759e-11
6.25082e-12
8.34532e-13
5.5596e-14
1.30389e-15
1.30486e-19
1.71837e-19
1.12554e-17
5.19789e-16
1.47812e-14
2.18537e-13
4.20345e-12
2.24957e-10
6.4567e-09
2.78972e-08
5.58525e-06
0.000108858
0.000164451
6.70707e-06
1.41367e-06
7.63833e-06
7.45197e-06
2.68035e-05
4.82163e-06
6.4869e-07
6.36041e-07
4.58899e-06
4.58873e-06
2.57696e-06
2.35764e-08
5.9436e-09
5.84245e-09
5.80513e-09
6.22953e-09
1.58536e-07
6.28389e-08
7.32446e-06
7.93951e-05
7.9904e-05
1.16094e-05
8.77619e-10
1.45716e-09
2.44027e-09
2.5921e-10
2.59308e-10
2.76234e-10
2.69676e-10
2.56895e-10
1.69682e-10
5.38518e-11
1.10307e-11
1.84409e-12
1.89171e-13
9.28947e-15
1.59522e-16
2.37438e-20
1.62435e-19
9.49134e-18
4.19158e-16
1.2388e-14
1.667e-13
1.46806e-12
3.4867e-10
1.44427e-08
9.91263e-09
7.66632e-06
0.000139971
6.29127e-05
3.24312e-06
7.95493e-07
7.40834e-07
8.64764e-06
3.16014e-05
6.40065e-06
6.29959e-07
6.26323e-07
4.39678e-06
4.58906e-06
3.04157e-06
5.0367e-08
5.8553e-09
5.80548e-09
5.80354e-09
5.80344e-09
6.28244e-09
1.08824e-08
2.5262e-05
7.87116e-05
7.16193e-05
-3.92032e-09
8.26317e-10
4.1589e-09
3.64461e-09
2.57218e-10
2.56735e-10
2.73662e-10
2.70812e-10
2.19851e-10
9.302e-11
1.98008e-11
3.34522e-12
4.63058e-13
3.53453e-14
1.28213e-15
1.98813e-17
3.72083e-21
1.32341e-19
6.75311e-18
2.88726e-16
9.27931e-15
1.29517e-13
1.22454e-12
5.56481e-10
1.39239e-08
6.28879e-09
9.19767e-06
0.000140698
0.000137453
1.59373e-05
7.40707e-07
7.38485e-07
1.91321e-06
3.16014e-05
3.64831e-06
6.2632e-07
6.26323e-07
1.17168e-06
4.58612e-06
2.89384e-06
7.2047e-08
9.73458e-09
5.80635e-09
5.80553e-09
5.80443e-09
5.83347e-09
1.93797e-06
7.53598e-05
7.85391e-05
1.99457e-05
-3.12172e-09
5.90898e-10
4.1589e-09
3.92392e-09
2.55196e-10
2.53857e-10
2.73087e-10
2.57445e-10
1.48707e-10
3.82854e-11
5.84019e-12
8.73057e-13
9.67679e-14
5.47134e-15
1.63458e-16
2.96317e-18
3.18397e-22
8.51554e-20
3.70088e-18
1.7362e-16
7.38286e-15
1.3981e-13
5.40587e-12
5.44386e-10
5.89869e-09
5.87339e-09
1.44552e-05
0.000141276
0.000141276
2.98148e-05
7.39181e-07
7.39181e-07
3.24068e-06
4.93967e-06
2.85719e-06
2.01244e-06
6.26323e-07
6.39089e-07
4.38178e-06
4.46056e-06
5.95853e-07
1.60672e-08
5.81435e-09
5.80645e-09
5.81439e-09
5.8304e-09
2.12144e-05
7.53027e-05
7.20234e-05
7.68208e-09
4.94954e-10
3.61088e-10
4.0754e-09
2.98303e-09
2.53235e-10
2.51311e-10
2.70234e-10
2.08338e-10
7.44116e-11
1.19107e-11
1.46756e-12
1.94454e-13
1.66506e-14
7.51791e-16
2.36724e-17
4.94098e-19
-2.56077e-24
3.97311e-20
1.67084e-18
1.23585e-16
7.55283e-15
2.05715e-13
1.35311e-11
4.32391e-10
5.5297e-10
7.45399e-08
4.34703e-05
7.23248e-05
0.000141276
2.20067e-05
9.16622e-07
1.65192e-05
0.000243163
2.30342e-05
1.88947e-05
3.67536e-06
6.39089e-07
2.01685e-06
4.59765e-06
4.57284e-06
1.17431e-06
6.56007e-09
5.82564e-09
5.81441e-09
5.82565e-09
2.17923e-06
7.24782e-05
7.5105e-05
1.7932e-05
-1.88061e-09
1.0734e-10
3.2373e-10
1.68654e-09
1.06032e-09
2.51311e-10
2.49964e-10
2.48818e-10
1.27809e-10
2.6928e-11
2.90426e-12
3.2638e-13
3.67353e-14
2.48867e-15
1.09105e-16
4.17762e-18
8.12669e-20
-4.56849e-25
1.49251e-20
1.14978e-18
1.25101e-16
8.70238e-15
3.03377e-13
1.29906e-11
2.52308e-10
2.50778e-10
1.36127e-07
3.51722e-05
4.87127e-05
8.47048e-05
6.71297e-06
2.32206e-06
0.000237358
0.000249504
3.49614e-05
2.34831e-05
2.6045e-06
6.70871e-07
4.58265e-06
4.59744e-06
2.82762e-06
3.34703e-07
4.35956e-08
6.07317e-09
5.82563e-09
6.06116e-09
3.09296e-05
7.23995e-05
6.92995e-05
1.68579e-08
6.29352e-10
2.31223e-10
2.9711e-10
3.32006e-10
2.75118e-10
2.56777e-10
2.50498e-10
1.81589e-10
5.61817e-11
7.17102e-12
5.96245e-13
6.48945e-14
6.13774e-15
3.74729e-16
1.91352e-17
8.00753e-19
1.2572e-20
-8.04648e-26
9.35409e-21
1.31622e-18
1.43309e-16
9.9646e-15
3.25733e-13
9.52777e-12
1.49044e-10
7.74841e-10
1.44457e-07
1.18741e-05
0.000134481
6.92957e-06
5.46344e-06
1.39699e-05
0.000264997
0.000199372
1.65904e-05
3.85828e-06
8.09728e-07
6.83201e-07
4.59739e-06
4.59753e-06
3.8614e-07
2.24731e-07
3.92746e-07
7.42398e-07
1.01419e-07
9.09402e-06
7.12961e-05
7.20338e-05
1.72598e-05
-8.03584e-10
-2.48901e-11
3.02427e-10
2.9723e-10
2.77011e-10
2.59502e-10
2.59191e-10
2.14894e-10
9.57752e-11
1.77205e-11
1.4853e-12
1.11765e-13
1.18875e-14
1.01288e-15
6.56046e-17
3.83151e-18
1.51098e-19
1.88051e-21
-1.40067e-26
1.41946e-20
1.94803e-18
1.72882e-16
9.72064e-15
2.88897e-13
6.02495e-12
1.11609e-10
1.2066e-09
2.28583e-08
7.23765e-06
0.000134804
9.09327e-06
7.8686e-06
0.000252243
0.000264997
4.04201e-05
1.69918e-05
5.29843e-07
2.67583e-07
3.23392e-07
4.16487e-06
4.59739e-06
6.05026e-07
2.23605e-07
7.81782e-07
2.72789e-06
1.74705e-06
3.44858e-05
7.01234e-05
6.55057e-05
1.93194e-08
8.09225e-10
1.80164e-10
2.95971e-10
2.98263e-10
2.92746e-10
2.71234e-10
2.35243e-10
1.35979e-10
3.61016e-11
4.17618e-12
2.6264e-13
2.06135e-14
2.16991e-15
1.84727e-16
1.32524e-17
7.84521e-19
2.78087e-20
3.26847e-22
-2.41369e-27
3.10146e-20
2.81846e-18
1.70774e-16
8.01495e-15
2.00345e-13
3.48165e-12
6.79444e-11
5.57123e-10
4.31431e-10
3.37545e-05
0.000135029
1.48372e-05
1.15119e-05
0.000221761
0.000264997
4.38209e-05
3.83663e-05
3.60817e-06
2.51599e-07
2.05569e-07
4.91183e-07
4.23773e-06
3.21919e-07
2.23624e-07
1.27877e-06
4.56761e-06
6.19733e-06
4.09922e-05
6.89943e-05
2.07288e-05
3.77636e-09
1.40744e-10
3.01653e-10
2.99767e-10
3.00798e-10
3.00242e-10
2.57903e-10
1.65911e-10
6.09621e-11
1.00965e-11
7.97672e-13
4.46881e-14
4.01745e-15
4.25266e-16
3.77371e-17
2.81774e-18
1.58158e-19
5.13784e-21
5.8054e-23
-4.12222e-28
6.6297e-20
2.9874e-18
1.40604e-16
4.79567e-15
9.9498e-14
1.38644e-12
1.87537e-11
2.33592e-10
2.86186e-10
6.88024e-05
0.000135029
0.000130894
1.4391e-05
2.52087e-05
0.000123661
4.59036e-05
2.30112e-05
1.62282e-06
1.93894e-07
1.58845e-07
1.49787e-07
3.39724e-07
1.35499e-07
3.01492e-07
3.33666e-06
5.59649e-06
6.1885e-06
1.79154e-05
2.84046e-05
2.36795e-08
8.2363e-10
3.13386e-10
2.98091e-10
3.00914e-10
3.02059e-10
2.95436e-10
1.99286e-10
8.34477e-11
1.98196e-11
2.24465e-12
1.37234e-13
8.23879e-15
8.54491e-16
8.99948e-17
8.14394e-18
5.99948e-19
3.20323e-20
9.78205e-22
1.03968e-23
-6.99746e-29
1.57591e-19
2.59574e-18
8.40342e-17
2.44244e-15
4.65927e-14
4.91296e-13
2.25602e-11
1.40108e-09
4.70157e-09
3.28849e-05
0.000135029
9.82784e-05
1.47009e-05
1.51388e-05
4.72031e-05
7.41498e-05
4.39563e-06
4.78109e-07
3.27394e-07
4.95613e-07
1.53978e-07
6.8622e-08
6.86867e-08
1.40868e-06
4.16289e-06
3.94099e-06
4.94822e-07
2.94382e-07
2.87611e-07
4.28209e-09
3.83918e-10
3.03794e-10
3.01904e-10
3.02433e-10
3.02433e-10
2.50174e-10
1.12583e-10
3.03888e-11
4.98416e-12
4.30058e-13
2.37832e-14
1.74503e-15
1.92705e-16
1.98106e-17
1.78311e-18
1.28851e-19
6.68313e-21
1.9646e-22
1.9379e-24
-1.17582e-29
4.86034e-19
2.33553e-18
5.23184e-17
1.73159e-15
3.80601e-14
5.80596e-13
4.63055e-11
2.53503e-09
3.19629e-08
3.2048e-07
0.000135008
3.94098e-05
3.66239e-05
0.000379582
0.000136712
5.32852e-05
3.60748e-06
8.22974e-06
4.37341e-06
2.99564e-06
1.65144e-06
6.90359e-08
6.85647e-08
1.69292e-06
4.16272e-06
2.41489e-06
6.07352e-09
2.49627e-08
4.0886e-08
8.23564e-10
3.13349e-10
2.99007e-10
3.00886e-10
3.02433e-10
2.80631e-10
1.56386e-10
4.56616e-11
8.59889e-12
1.05781e-12
7.76428e-14
4.57084e-15
4.10302e-16
4.41741e-17
4.43233e-18
3.9646e-19
2.84221e-20
1.45649e-21
4.25198e-23
3.89834e-25
-1.78939e-30
1.69281e-18
3.01652e-18
3.3752e-17
8.51579e-16
2.09522e-14
4.65371e-13
3.46998e-11
1.46964e-09
7.98034e-07
5.01016e-05
0.000134153
3.98759e-05
5.01249e-05
0.000524004
0.000432111
1.49977e-06
3.88273e-06
1.80435e-05
1.80552e-05
3.08438e-06
2.50015e-06
6.86598e-08
6.85647e-08
1.20091e-06
3.30801e-06
4.13638e-07
1.18698e-09
4.79836e-09
6.48147e-09
3.82498e-10
2.95347e-10
2.96959e-10
3.01296e-10
2.93691e-10
1.99862e-10
6.9929e-11
1.42636e-11
2.08031e-12
2.09009e-13
1.45578e-14
1.01021e-15
9.98887e-17
1.01754e-17
1.01151e-18
9.06093e-20
6.48548e-21
3.33687e-22
1.0005e-23
8.73569e-26
-5.30248e-30
5.73773e-18
6.50994e-18
2.13502e-17
3.09291e-16
1.08205e-14
4.68054e-13
2.21336e-11
5.58364e-10
3.53355e-06
0.000134461
0.000134428
4.0979e-05
0.000226052
0.000524587
0.000474467
1.32972e-06
7.63977e-06
1.80553e-05
8.73336e-06
4.73631e-07
5.47953e-07
6.85091e-08
7.5049e-08
2.76439e-07
1.81557e-07
1.08999e-09
5.41896e-10
1.96218e-09
1.25088e-09
3.01719e-10
2.85316e-10
2.94555e-10
2.99414e-10
2.32796e-10
1.01494e-10
2.38168e-11
3.80623e-12
4.66895e-13
4.19747e-14
3.04124e-15
2.47143e-16
2.42851e-17
2.38607e-18
2.37837e-19
2.13652e-20
1.53549e-21
8.0429e-23
2.54329e-24
2.26366e-26
8.4385e-45
1.80803e-17
1.89933e-17
3.18288e-17
4.22835e-16
1.72801e-14
8.14712e-13
2.29694e-11
7.85286e-10
2.88484e-08
0.000134428
0.000134379
5.28646e-05
0.00052709
0.0005256
0.000271798
1.30802e-06
5.30211e-06
1.13827e-05
4.44733e-07
4.25353e-07
8.21948e-08
1.04798e-07
2.93234e-07
1.4382e-07
1.34842e-09
3.48988e-10
2.90978e-10
5.67973e-10
4.10172e-10
2.86053e-10
2.83399e-10
2.93662e-10
2.58102e-10
1.34367e-10
3.86733e-11
6.9259e-12
9.46796e-13
1.03202e-13
9.03476e-15
7.12697e-16
6.30377e-17
5.92932e-18
5.76291e-19
5.77398e-20
5.19621e-21
3.77829e-22
2.03173e-23
6.86092e-25
7.67296e-27
-1.23265e-45
5.27319e-17
5.21768e-17
8.51978e-17
1.29388e-15
5.80201e-14
2.3126e-12
9.58599e-11
4.59615e-08
4.60607e-05
0.000134091
0.000103475
0.000101572
0.00052771
0.000527083
0.000150366
1.27744e-06
1.23671e-06
1.20521e-06
1.88804e-06
3.00566e-06
8.21948e-08
1.14892e-07
2.93234e-07
2.57544e-07
4.02927e-10
1.49844e-10
2.47963e-10
3.55792e-10
3.16447e-10
2.85035e-10
2.81773e-10
2.67965e-10
1.67635e-10
5.77082e-11
1.23972e-11
1.91592e-12
2.31599e-13
2.34661e-14
2.11039e-15
1.80276e-16
1.62252e-17
1.47746e-18
1.43551e-19
1.44266e-20
1.30424e-21
9.64527e-23
5.34337e-24
1.92334e-25
2.95e-27
-1.53132e-30
1.44706e-16
1.40791e-16
2.38922e-16
4.0169e-15
1.76932e-13
5.66356e-12
2.29408e-10
1.22471e-06
8.71512e-05
9.7666e-05
1.46542e-05
0.000251002
0.00052759
0.00052759
0.000141577
1.30801e-06
4.80933e-06
1.18839e-06
3.43076e-06
3.43076e-06
9.26805e-07
7.75077e-08
1.57183e-07
2.55695e-07
9.68611e-10
1.13189e-10
2.22256e-10
3.51568e-10
3.38418e-10
2.89568e-10
2.64871e-10
1.91727e-10
8.14452e-11
2.04822e-11
3.79183e-12
5.31907e-13
5.74647e-14
5.63277e-15
5.28047e-16
4.72831e-17
4.20433e-18
3.78071e-19
3.67469e-20
3.69977e-21
3.37617e-22
2.54321e-23
1.45236e-24
5.5332e-26
9.61366e-28
-4.94178e-30
3.72997e-16
3.5535e-16
6.2165e-16
1.11246e-14
4.37575e-13
1.7189e-11
1.83208e-08
6.65373e-06
3.42273e-05
6.81305e-06
1.10733e-05
0.000241406
0.00052759
0.000527589
6.60404e-05
1.34514e-06
4.80914e-06
1.10488e-06
3.16696e-06
3.4167e-06
2.13148e-06
7.7445e-08
7.75077e-08
1.29184e-07
4.28934e-08
1.05905e-10
1.8913e-10
3.17755e-10
3.47468e-10
2.80251e-10
2.07935e-10
1.04867e-10
3.20417e-11
6.85371e-12
1.18234e-12
1.49673e-13
1.47315e-14
1.43763e-15
1.38887e-16
1.26105e-17
1.10529e-18
9.91806e-20
9.63361e-21
9.72492e-22
8.98515e-23
6.89394e-24
4.05376e-25
1.62241e-26
3.11342e-28
-2.97289e-30
9.00841e-16
8.59794e-16
1.40284e-15
2.41622e-14
8.74477e-13
3.19814e-11
2.49147e-07
8.00975e-06
2.26979e-06
3.06541e-06
2.18844e-05
0.000521037
0.000527586
0.000491601
5.79872e-06
5.66729e-06
2.28289e-06
4.53614e-07
9.07111e-07
3.40114e-06
1.9481e-06
7.74589e-08
7.74658e-08
1.70351e-07
3.61777e-08
1.03391e-10
1.81147e-10
3.0601e-10
3.38519e-10
2.40163e-10
1.28483e-10
4.69359e-11
1.16325e-11
2.3521e-12
3.78386e-13
4.26337e-14
3.94093e-15
3.88295e-16
3.78942e-17
3.41734e-18
2.96304e-19
2.65897e-20
2.58136e-21
2.61569e-22
2.44902e-23
1.91375e-24
1.15611e-25
4.82807e-27
1.00463e-28
-1.30193e-30
2.02108e-15
1.96688e-15
2.8716e-15
4.04019e-14
1.54328e-12
1.22753e-09
5.40509e-07
3.92584e-06
1.50033e-06
2.37362e-06
0.000112212
0.000526598
0.000527232
0.000398972
6.56225e-06
2.36503e-05
5.64243e-06
3.96122e-07
3.8178e-07
1.06352e-06
1.31889e-06
2.15459e-06
1.78532e-06
1.65697e-08
1.38497e-09
1.00078e-10
2.08423e-10
2.95946e-10
3.06434e-10
1.70172e-10
6.47537e-11
1.92108e-11
4.34203e-12
8.43162e-13
1.22938e-13
1.23651e-14
1.10662e-15
1.10044e-16
1.06569e-17
9.47132e-19
8.12313e-20
7.26772e-21
7.05918e-22
7.18249e-23
6.81493e-24
5.4223e-25
3.3565e-26
1.45421e-27
3.22705e-29
-4.8604e-31
4.18451e-15
4.13213e-15
7.12183e-15
8.19498e-14
2.54921e-12
9.23583e-09
5.37751e-07
2.36367e-07
1.15626e-06
1.60135e-06
0.000159568
0.000526302
0.000526537
0.000102666
3.74116e-05
4.70679e-05
4.37974e-05
1.24557e-05
3.60741e-07
3.21992e-07
2.21501e-06
8.44063e-06
5.81352e-06
2.46839e-10
4.42197e-11
9.78251e-11
2.31487e-10
2.80251e-10
2.4233e-10
9.8993e-11
2.94306e-11
7.9528e-12
1.72824e-12
3.12161e-13
4.04702e-14
3.7084e-15
3.27782e-16
3.24817e-17
3.08149e-18
2.69756e-19
2.28528e-20
2.02457e-21
1.96585e-22
2.00923e-23
1.93088e-24
1.56324e-25
9.89337e-27
4.42505e-28
1.03435e-29
-1.6399e-31
7.97599e-15
7.96665e-15
1.98158e-14
2.68979e-13
1.83853e-11
1.08525e-08
1.46076e-07
7.73557e-08
1.29523e-06
1.20447e-06
8.39143e-05
0.0005265
0.000526504
1.27349e-06
2.26434e-05
5.0265e-05
5.02671e-05
4.99652e-05
1.41965e-06
2.40231e-07
4.03833e-06
8.46267e-06
7.95203e-06
4.42053e-11
1.75062e-11
9.25342e-11
2.2971e-10
2.54358e-10
1.64144e-10
5.09367e-11
1.34426e-11
3.5138e-12
7.26829e-13
1.18384e-13
1.36519e-14
1.17327e-15
1.02843e-16
9.94789e-18
9.15918e-19
7.90287e-20
6.61589e-21
5.76603e-22
5.56581e-23
5.71704e-24
5.55651e-25
4.57394e-26
2.95459e-27
1.35862e-28
3.31422e-30
-5.15027e-32
1.39904e-14
1.41534e-14
4.05127e-14
5.87455e-13
1.0784e-10
9.10098e-09
6.47847e-09
2.55787e-08
1.16555e-07
3.0946e-07
0.000391957
0.000526302
0.000278434
8.49295e-07
7.19019e-06
4.9823e-05
5.02554e-05
5.02369e-05
1.42708e-05
1.71043e-07
3.26587e-06
8.46535e-06
8.46267e-06
8.32841e-07
1.06036e-11
9.51913e-11
2.17072e-10
2.18559e-10
1.00963e-10
2.58608e-11
6.60497e-12
1.67088e-12
3.1921e-13
4.6256e-14
4.82152e-15
3.98947e-16
3.43089e-17
3.16519e-18
2.80469e-19
2.38061e-20
1.97023e-21
1.68589e-22
1.60458e-23
1.65193e-24
1.62118e-25
1.35538e-26
8.92542e-28
4.20538e-29
1.06329e-30
-1.53143e-32
2.2596e-14
2.32734e-14
5.97761e-14
1.06433e-12
1.07681e-10
3.33258e-09
2.38831e-09
6.95564e-09
1.73765e-08
0.000337266
0.000521354
0.000524987
5.18964e-06
7.57206e-07
6.10268e-06
4.95503e-05
5.02369e-05
4.45848e-05
2.79154e-07
1.32338e-07
2.20037e-06
8.46267e-06
8.46535e-06
5.52604e-06
6.29782e-12
8.83208e-11
1.88971e-10
1.8108e-10
6.16083e-11
1.40233e-11
3.55232e-12
8.48698e-13
1.46786e-13
1.89933e-14
1.83207e-15
1.48058e-16
1.22479e-17
1.05396e-18
8.89352e-20
7.38171e-21
6.02337e-22
5.06347e-23
4.72754e-24
4.84363e-25
4.7901e-26
4.06114e-27
2.72305e-28
1.31156e-29
3.41964e-31
-4.36258e-33
3.36487e-14
3.54675e-14
7.34746e-14
1.36441e-12
8.59579e-11
6.66394e-10
8.76525e-10
2.41442e-09
0.000100039
0.000508465
0.000508945
0.000269257
7.2846e-07
6.96836e-07
2.89818e-06
3.74489e-05
5.01486e-05
1.80045e-05
1.19423e-07
1.19264e-07
7.14409e-07
8.02941e-06
8.38385e-06
6.24374e-06
2.29458e-12
7.52122e-11
1.53316e-10
1.49139e-10
3.98492e-11
8.31234e-12
2.07304e-12
4.59437e-13
7.18566e-14
8.43563e-15
7.69887e-16
6.08358e-17
4.74046e-18
3.72564e-19
2.94546e-20
2.36565e-21
1.89107e-22
1.55855e-23
1.42575e-24
1.44333e-25
1.4325e-26
1.22931e-27
8.37943e-29
4.1187e-30
1.10329e-31
-1.20073e-33
4.63073e-14
5.01948e-14
8.29046e-14
1.26532e-12
4.98039e-11
3.21556e-10
4.33774e-10
6.70261e-07
0.000164231
0.000174611
0.000232001
2.76971e-06
6.82967e-07
6.76253e-07
8.64694e-07
2.76504e-05
4.96402e-05
1.62199e-05
1.19423e-07
1.17403e-07
1.84169e-07
4.83112e-06
8.17572e-06
1.88374e-06
0
6.89802e-11
1.30271e-10
1.22529e-10
2.78248e-11
5.35247e-12
1.30149e-12
2.67012e-13
3.83239e-14
4.17094e-15
3.65828e-16
2.81042e-17
2.03219e-18
1.42979e-19
1.03285e-20
7.89489e-22
6.12749e-23
4.91679e-24
4.39584e-25
4.38054e-26
4.33925e-27
3.75798e-28
2.59889e-29
1.30133e-30
3.57094e-32
-3.21253e-34
5.91955e-14
6.62678e-14
9.15824e-14
9.71847e-13
2.4439e-11
2.42165e-10
2.74809e-10
1.76157e-06
6.44613e-05
5.53873e-06
3.05787e-06
6.50586e-07
6.63307e-07
6.70654e-07
6.92911e-07
2.49579e-05
4.88845e-05
2.88326e-05
1.17403e-07
1.14959e-07
4.24037e-07
1.06403e-06
1.01871e-06
-1.02693e-10
-3.94948e-12
6.78932e-11
1.18504e-10
1.01133e-10
2.10977e-11
3.73329e-12
8.76967e-13
1.6861e-13
2.27036e-14
2.34005e-15
1.99133e-16