/*--------------------------------*- C++ -*----------------------------------*\
  =========                 |
  \\      /  F ield         | OpenFOAM: The Open Source CFD Toolbox
   \\    /   O peration     | Website:  https://openfoam.org
    \\  /    A nd           | Version:  9
     \\/     M anipulation  |
\*---------------------------------------------------------------------------*/
FoamFile
{
    format      ascii;
    class       volScalarField;
    location    "0.07";
    object      p;
}
// * * * * * * * * * * * * * * * * * * * * * * * * * * * * * * * * * * * * * //

dimensions      [1 -1 -2 0 0 0 0];

internalField   nonuniform List<scalar> 
5000
(
1.10739
1.09663
1.08238
1.0658
1.04702
1.02331
0.990048
0.943616
0.881332
0.794227
0.693046
0.738046
0.805797
18.3623
28.1636
27.9871
28.219
28.8273
29.2792
29.4737
29.568
29.5966
29.5477
29.4258
29.2224
28.939
28.6148
28.3276
28.0295
22.0826
0.959656
0.582721
0.597513
0.605084
0.614495
0.627766
0.650135
0.682552
0.722779
0.76735
0.812946
0.857121
0.898461
0.936384
0.970847
1.00208
1.03042
1.0562
1.07981
1.10077
1.10036
1.08958
1.07609
1.06116
1.04495
1.02542
0.999645
0.966239
0.927761
0.885397
0.85317
1.03132
1.46624
13.9254
27.4652
27.5279
27.9631
28.7489
29.2985
29.5092
29.6239
29.6775
29.6565
29.5658
29.3834
29.0572
28.6087
28.2705
28.1028
16.9914
0.538502
0.614117
0.625078
0.630368
0.631286
0.637321
0.652106
0.677782
0.713018
0.754654
0.799197
0.843733
0.886299
0.925856
0.962042
0.994906
1.02471
1.05178
1.07649
1.09846
1.09456
1.08381
1.07113
1.05791
1.04437
1.02906
1.01044
0.988988
0.970864
0.9668
0.995191
1.16883
1.52325
7.87669
26.6232
26.8373
27.6202
28.6633
29.3515
29.5842
29.7177
29.794
29.8123
29.786
29.7025
29.4705
29.0988
28.9584
29.2481
7.83265
0.613784
0.658426
0.644234
0.641988
0.640185
0.642656
0.653558
0.674952
0.706237
0.744985
0.787994
0.832226
0.875389
0.91608
0.95364
0.987924
1.01908
1.04739
1.07318
1.09624
1.08976
1.07912
1.06722
1.0555
1.04434
1.03277
1.02022
1.00835
1.005
1.02511
1.08856
1.26559
1.3879
2.50508
25.2738
26.0938
27.2882
28.6647
29.4659
29.7139
29.8439
29.9355
29.9962
30.0719
30.1772
30.1566
29.974
30.2934
26.1771
3.16375
0.729672
0.670755
0.660119
0.648061
0.645179
0.646943
0.656256
0.674879
0.702994
0.738996
0.780137
0.823478
0.866588
0.907824
0.946285
0.981633
1.01389
1.04326
1.07004
1.09413
1.08573
1.07518
1.06397
1.0535
1.04418
1.03539
1.0272
1.02179
1.02686
1.05736
1.12476
1.26402
1.31579
0.965914
18.5438
26.2771
27.4404
28.9875
29.7028
29.8693
29.9738
30.0681
30.1631
30.3701
30.658
30.6406
30.2564
30.6321
12.8815
1.42338
0.744989
0.735557
0.710599
0.660453
0.658448
0.658444
0.665136
0.680503
0.705176
0.738069
0.776777
0.818509
0.860802
0.901862
0.9406
0.976507
1.00947
1.03961
1.06714
1.09211
1.08229
1.07172
1.06103
1.05149
1.04342
1.03631
1.03052
1.02828
1.03584
1.06642
1.13024
1.26971
1.28282
1.28255
7.62499
28.5349
28.7066
29.6242
30.0274
29.9962
30.056
30.1514
30.2609
30.6278
30.9303
30.3848
29.641
23.6752
3.68349
0.752871
0.71689
0.688256
0.720491
0.678182
0.670831
0.669629
0.675995
0.689354
0.711322
0.741429
0.777625
0.817358
0.858265
0.898518
0.936922
0.97284
1.00605
1.03658
1.06459
1.09021
1.07925
1.06856
1.05817
1.04917
1.04173
1.03529
1.03012
1.02828
1.03462
1.05948
1.11153
1.2364
1.21633
1.30244
3.30782
21.6407
29.4926
29.8343
30.1981
29.9767
30.0286
30.1635
30.2135
30.775
31.1711
29.8377
26.6431
6.6593
0.670863
0.713888
0.721508
0.715767
0.698071
0.74037
0.686767
0.682398
0.686694
0.698866
0.719323
0.74744
0.781492
0.819241
0.858509
0.897536
0.935111
0.97054
1.00352
1.03403
1.06219
1.08823
1.07649
1.06554
1.05523
1.0464
1.039
1.03235
1.02644
1.02291
1.02612
1.04483
1.09662
1.14547
1.14806
1.23205
1.00339
7.99683
27.7774
29.357
29.9846
29.6817
29.8213
30.02
29.9439
31.1561
32.2696
22.1811
6.70336
0.737429
0.73084
0.722476
0.721723
0.714865
0.700737
0.776575
0.704991
0.696713
0.699191
0.710127
0.729272
0.755709
0.787836
0.823631
0.861097
0.898587
0.934939
0.969454
1.0018
1.03188
1.05987
1.08614
1.07388
1.06256
1.05213
1.04315
1.0353
1.02774
1.0201
1.0133
1.01193
1.02579
1.06648
1.13338
1.14145
1.27452
1.04644
1.0176
10.0841
24.7523
30.0969
29.3645
29.501
29.671
29.7128
23.6417
11.7269
3.57844
0.735327
0.749392
0.732725
0.729026
0.725535
0.718421
0.708643
0.791297
0.713119
0.707039
0.710769
0.721922
0.740519
0.765741
0.796172
0.830032
0.865539
0.901198
0.935925
0.969054
1.00023
1.02923
1.0559
1.08135
1.07136
1.05957
1.04886
1.03948
1.03081
1.0218
1.01166
1.00025
0.991239
0.992456
1.0074
1.04982
1.09177
0.970508
1.00347
0.963453
0.832051
4.09669
11.0014
19.4285
20.9209
15.1117
6.21366
2.52582
1.21964
0.787804
0.774651
0.744587
0.740159
0.737054
0.732818
0.726725
0.719365
0.761632
0.71817
0.717159
0.72268
0.73461
0.753018
0.777236
0.806065
0.83797
0.871393
0.90501
0.937838
0.969271
0.999046
1.027
1.05261
1.07692
1.06887
1.05657
1.04544
1.03548
1.02574
1.01491
1.0018
0.985076
0.966394
0.95216
0.940278
1.07337
1.05457
0.974695
0.971528
0.945684
0.894093
0.901228
0.902684
0.936842
0.844003
0.757048
0.793177
0.809146
0.798276
0.793503
0.758656
0.752235
0.749466
0.746312
0.742536
0.737918
0.732836
0.773287
0.732103
0.732735
0.738429
0.749981
0.767483
0.790303
0.817326
0.847171
0.878456
0.910006
0.940952
0.970729
0.999135
1.02624
1.05191
1.0761
1.06642
1.05356
1.04197
1.03132
1.02038
1.00762
0.991521
0.970483
0.945658
0.927276
0.950333
1.09232
1.01682
0.954341
0.946083
0.926767
0.890269
0.886222
0.874116
0.868287
0.850487
0.845475
0.822012
0.806726
0.794465
0.782299
0.768337
0.763188
0.760289
0.757044
0.753663
0.750081
0.746528
0.774044
0.747114
0.749022
0.755014
0.766116
0.782611
0.803947
0.829109
0.856856
0.885959
0.915365
0.944286
0.972211
0.998883
1.02435
1.04886
1.07412
1.064
1.05059
1.03851
1.02715
1.01503
1.00042
0.98169
0.957689
0.93104
0.914087
0.928671
0.949356
0.945858
0.928067
0.921994
0.908961
0.884979
0.875309
0.869003
0.861372
0.847935
0.835932
0.819857
0.805974
0.799146
0.788967
0.778955
0.773388
0.770104
0.767171
0.764218
0.761165
0.758216
0.765199
0.759167
0.762484
0.769259
0.780536
0.79648
0.816645
0.840152
0.865919
0.892871
0.920086
0.946878
0.972809
0.997695
1.02163
1.04487
1.06843
1.06163
1.04772
1.03516
1.0231
1.00988
0.993596
0.972485
0.945607
0.917009
0.905042
0.915861
0.933794
0.915432
0.90439
0.901121
0.892913
0.878863
0.870373
0.863584
0.854719
0.842584
0.831598
0.819453
0.809108
0.801327
0.793202
0.785693
0.780853
0.778072
0.775958
0.773959
0.771967
0.77045
0.770376
0.776225
0.773345
0.781221
0.792924
0.808573
0.827806
0.849869
0.873836
0.89879
0.923958
0.948774
0.972921
0.99634
1.01924
1.04199
1.06469
1.05934
1.04499
1.032
1.01931
1.00508
0.987245
0.963847
0.933455
0.899778
0.873863
0.863698
0.888299
0.894186
0.880668
0.883157
0.87911
0.869582
0.863256
0.857251
0.848914
0.838508
0.828665
0.818766
0.809857
0.802323
0.795421
0.789645
0.786096
0.784233
0.783227
0.782544
0.781919
0.781449
0.78085
0.790606
0.78445
0.792852
0.804482
0.819554
0.837726
0.858314
0.880507
0.903513
0.92667
0.949511
0.971798
0.993535
1.01492
1.03631
1.0576
1.05717
1.04245
1.02911
1.01587
1.00076
0.981569
0.956107
0.922368
0.8823
0.845106
0.819983
0.875065
0.851431
0.864313
0.868055
0.86679
0.860871
0.854976
0.849936
0.842809
0.83397
0.825383
0.816883
0.809092
0.802297
0.796762
0.792511
0.789728
0.788772
0.788794
0.789303
0.789899
0.790799
0.792845
0.799158
0.798385
0.805391
0.815951
0.829844
0.846592
0.865525
0.885878
0.906933
0.928107
0.949012
0.969488
0.989581
1.00946
1.02936
1.04913
1.05513
1.04015
1.02654
1.0129
0.997117
0.976919
0.950044
0.914611
0.872321
0.834192
0.867762
0.873967
0.845432
0.853887
0.856514
0.855486
0.850272
0.846674
0.842439
0.836406
0.829026
0.82159
0.813975
0.807106
0.801172
0.796321
0.793445
0.791803
0.791625
0.792542
0.794065
0.795732
0.798598
0.828213
0.804912
0.808762
0.815526
0.825365
0.838184
0.85359
0.870961
0.889593
0.908838
0.928193
0.947352
0.966221
0.984868
1.00339
1.02186
1.04015
1.05323
1.03811
1.02436
1.01047
0.994302
0.973596
0.946243
0.911101
0.870973
0.839804
0.830988
0.889016
0.838638
0.845561
0.847724
0.845372
0.842118
0.838574
0.83512
0.830212
0.823665
0.816907
0.810164
0.803952
0.798806
0.794884
0.792401
0.792189
0.792561
0.794278
0.796884
0.800006
0.804319
0.839083
0.806821
0.813081
0.820754
0.830725
0.843131
0.857702
0.873916
0.891169
0.908914
0.926747
0.94445
0.961989
0.979425
0.996761
1.01396
1.03092
1.05149
1.03634
1.02259
1.00865
0.992376
0.971629
0.944524
0.910507
0.873298
0.84613
0.850817
0.882637
0.835472
0.838433
0.840446
0.839032
0.834125
0.830992
0.827847
0.8233
0.817457
0.811376
0.805247
0.799618
0.795026
0.791759
0.790005
0.790459
0.791375
0.793598
0.796901
0.801101
0.805382
0.836394
0.80884
0.815092
0.822982
0.832965
0.845085
0.85906
0.874405
0.890588
0.907151
0.923784
0.940349
0.956844
0.973295
0.989622
1.00571
1.02141
1.04989
1.03486
1.02123
1.00742
0.991305
0.970849
0.944325
0.911039
0.874269
0.843071
0.831104
0.837115
0.828529
0.834005
0.835746
0.830488
0.830436
0.823332
0.82066
0.816463
0.811224
0.805494
0.799323
0.794019
0.789805
0.786965
0.785656
0.786558
0.787647
0.790136
0.793422
0.797473
0.803135
0.830406
0.809252
0.8158
0.823561
0.833247
0.844933
0.858304
0.872877
0.888161
0.903761
0.919442
0.935113
0.950773
0.966391
0.981826
0.996923
1.0115
1.0484
1.03363
1.02028
1.00677
0.991047
0.971161
0.945507
0.91293
0.875056
0.839265
0.844244
0.836632
0.831759
0.832916
0.832305
0.829022
0.824245
0.816683
0.813499
0.809451
0.804211
0.798676
0.792448
0.787119
0.783047
0.780418
0.77934
0.780578
0.781547
0.784077
0.786645
0.788891
0.818382
0.818566
0.81161
0.815816
0.82256
0.831648
0.84281
0.855606
0.869509
0.884044
0.898871
0.913806
0.928781
0.943765
0.958674
0.973324
0.987558
1.00117
1.04696
1.03265
1.01972
1.00668
0.991606
0.972661
0.948472
0.918126
0.881886
0.849398
0.864496
0.854754
0.831674
0.832063
0.829456
0.825907
0.816417
0.81131
0.806934
0.802345
0.796305
0.790453
0.784244
0.778782
0.77462
0.772026
0.771038
0.772437
0.773415
0.775919
0.77837
0.779932
0.810391
0.808835
0.808612
0.812203
0.818553
0.827366
0.838275
0.850739
0.864202
0.87822
0.892508
0.90692
0.921389
0.935845
0.950157
0.964135
0.977633
0.990407
1.04554
1.03186
1.01952
1.00715
0.992977
0.975433
0.953414
0.927026
0.896632
0.870308
0.860581
0.869723
0.836094
0.832908
0.832194
0.824925
0.815971
0.807482
0.801454
0.795124
0.788985
0.781971
0.774868
0.768886
0.764402
0.76167
0.760671
0.761885
0.763135
0.765729
0.768553
0.771136
0.796739
0.797187
0.797228
0.802757
0.810197
0.819709
0.831003
0.843577
0.856942
0.870734
0.884741
0.89885
0.912981
0.927028
0.940839
0.954245
0.967123
0.97918
1.04405
1.0312
1.01963
1.0081
0.995069
0.979299
0.959884
0.937566
0.914032
0.890315
0.885818
0.88611
0.842659
0.840058
0.837491
0.825609
0.815564
0.80408
0.796054
0.788302
0.779985
0.772075
0.76395
0.757307
0.7523
0.749236
0.748094
0.748819
0.750767
0.753765
0.757304
0.76493
0.780843
0.77797
0.781823
0.789411
0.798579
0.809374
0.82149
0.834507
0.84805
0.86186
0.875794
0.889763
0.90367
0.917387
0.930765
0.943675
0.956022
0.967455
1.04244
1.0306
1.01996
1.00943
0.99772
0.983897
0.967192
0.947859
0.928043
0.903399
0.887733
0.876711
0.857365
0.852532
0.842482
0.829733
0.8169
0.801457
0.791607
0.781397
0.771679
0.761883
0.752059
0.744151
0.738301
0.734654
0.73317
0.733573
0.73535
0.737901
0.739592
0.765804
0.766598
0.763956
0.769119
0.776786
0.786687
0.798261
0.810989
0.824406
0.838173
0.85209
0.866043
0.879939
0.893661
0.907074
0.920051
0.932507
0.944377
0.955258
1.04065
1.03
1.02043
1.01106
1.00079
0.988978
0.975015
0.958177
0.939509
0.914493
0.917535
0.90213
0.879724
0.867381
0.852954
0.835139
0.823548
0.800104
0.788008
0.774913
0.762114
0.750269
0.738631
0.729299
0.722317
0.717894
0.715935
0.716091
0.717753
0.72025
0.72282
0.748255
0.747636
0.748042
0.755035
0.763906
0.774669
0.786913
0.800125
0.813863
0.827832
0.841862
0.85584
0.869652
0.88317
0.896266
0.908844
0.920865
0.932286
0.942665
1.03865
1.02935
1.021
1.01288
1.00421
0.994519
0.983523
0.970156
0.954103
0.935927
0.93853
0.922437
0.894806
0.881241
0.863791
0.84492
0.824929
0.802186
0.785694
0.768713
0.752283
0.737795
0.724024
0.712777
0.704378
0.698989
0.696493
0.696567
0.698741
0.70255
0.718745
0.727444
0.721201
0.729441
0.738589
0.749445
0.761703
0.774981
0.788864
0.803024
0.817251
0.831416
0.845405
0.859097
0.872371
0.885122
0.897292
0.908881
0.919866
0.929777
1.0364
1.02863
1.0216
1.01485
1.00789
1.0005
0.992722
0.983863
0.972408
0.959565
0.96111
0.947325
0.909806
0.895233
0.875384
0.854177
0.828766
0.805088
0.783474
0.76247
0.742501
0.724736
0.708663
0.69469
0.684638
0.678061
0.674922
0.674772
0.676773
0.67886
0.703147
0.704842
0.704857
0.712954
0.723279
0.735446
0.748876
0.763066
0.777595
0.79219
0.806688
0.820972
0.83493
0.848448
0.861428
0.873803
0.88555
0.896703
0.90725
0.916714
1.0339
1.02779
1.02216
1.01684
1.01167
1.0067
1.00215
0.99763
0.991001
0.983366
0.971752
0.965451
0.927033
0.912353
0.887479
0.895394
0.829668
0.806291
0.780867
0.756282
0.732086
0.711285
0.69216
0.675603
0.663448
0.655385
0.651486
0.651403
0.654463
0.669818
0.678569
0.677145
0.686489
0.696719
0.708788
0.72232
0.73681
0.751775
0.766848
0.781803
0.796498
0.810817
0.824655
0.837918
0.850542
0.862499
0.873799
0.884495
0.894588
0.903607
1.03117
1.02679
1.02262
1.01875
1.01535
1.01276
1.01132
1.01052
1.00865
1.00194
0.994615
0.968498
0.951565
0.932738
0.927594
0.909912
0.831681
0.808477
0.77922
0.750553
0.722383
0.697527
0.674725
0.655719
0.641206
0.631431
0.626509
0.626093
0.629258
0.649545
0.653842
0.658342
0.668627
0.681
0.695004
0.710069
0.725677
0.741402
0.756967
0.772203
0.786991
0.801231
0.814836
0.827748
0.839944
0.85143
0.86224
0.872443
0.882049
0.890608
1.02827
1.02563
1.02289
1.02044
1.01875
1.01841
1.01993
1.02241
1.02375
1.01712
1.02244
0.996114
0.972031
0.948636
0.944178
0.889825
0.841716
0.81342
0.780914
0.745677
0.713198
0.683989
0.657875
0.635865
0.618625
0.606914
0.600974
0.60036
0.618166
0.625226
0.627023
0.63915
0.652177
0.666921
0.68284
0.699361
0.71599
0.732383
0.748339
0.763735
0.778478
0.792495
0.805739
0.818195
0.82988
0.840831
0.851098
0.860756
0.869827
0.877896
1.0253
1.02429
1.0229
1.0218
1.02171
1.02343
1.02771
1.03325
1.03631
1.03218
1.04076
1.0188
0.990012
1.00599
0.970401
0.895759
0.858121
0.823286
0.783901
0.742029
0.704362
0.671722
0.641723
0.616998
0.597097
0.583128
0.575828
0.576099
0.59793
0.600865
0.608854
0.622629
0.638334
0.655434
0.673165
0.690961
0.708409
0.725274
0.741424
0.756781
0.771286
0.784909
0.797648
0.809533
0.820616
0.830954
0.840609
0.849657
0.85813
0.865668
1.02237
1.02283
1.02263
1.02273
1.02408
1.02768
1.03449
1.04341
1.04928
1.05125
1.06031
1.04058
1.0148
1.00784
0.989754
0.916975
0.878136
0.832945
0.787135
0.739234
0.696333
0.661042
0.628146
0.600869
0.578741
0.563456
0.555404
0.561595
0.579171
0.576952
0.592109
0.609715
0.628432
0.647726
0.666948
0.685661
0.703595
0.720621
0.736675
0.751723
0.765753
0.778783
0.79086
0.802048
0.812424
0.82206
0.831023
0.839382
0.847184
0.854145
1.01961
1.02127
1.02204
1.02314
1.02573
1.03099
1.04014
1.05272
1.06356
1.07572
1.08346
1.07095
1.04026
1.03601
0.973338
0.936222
0.893114
0.84404
0.790822
0.73741
0.690796
0.652173
0.618071
0.58899
0.565969
0.550353
0.542271
0.544683
0.554859
0.565193
0.583689
0.603758
0.624516
0.645172
0.66517
0.684203
0.702123
0.71888
0.734461
0.748879
0.762171
0.774401
0.78565
0.796008
0.805565
0.814404
0.822588
0.830175
0.837227
0.843566
1.01716
1.01966
1.02111
1.02294
1.02648
1.03306
1.04416
1.05992
1.07576
1.08658
1.09689
1.07507
1.05793
1.0485
1.00812
0.966445
0.908227
0.853938
0.794235
0.736409
0.687348
0.647405
0.612306
0.582717
0.560649
0.545315
0.539238
0.541149
0.551015
0.566754
0.585909
0.606685
0.627886
0.648631
0.668424
0.687015
0.704312
0.720298
0.734995
0.748452
0.760745
0.771972
0.782234
0.791632
0.800262
0.808211
0.815532
0.822265
0.828494
0.834169
1.01514
1.01807
1.01983
1.02204
1.02612
1.03349
1.04574
1.06338
1.08135
1.09837
1.09992
1.0868
1.0722
1.07606
0.991294
0.969058
0.91847
0.859467
0.797239
0.737206
0.686876
0.646667
0.611801
0.583135
0.562969
0.549527
0.5458
0.54998
0.5612
0.57756
0.59686
0.617343
0.637901
0.657763
0.676526
0.693992
0.710099
0.72485
0.738288
0.750492
0.761563
0.771612
0.78075
0.789074
0.79668
0.803655
0.810041
0.815851
0.821194
0.826172
1.01365
1.01651
1.01819
1.02039
1.02451
1.03195
1.0443
1.06226
1.08005
1.09303
1.1045
1.09792
1.09437
1.12911
1.06601
0.972984
0.925321
0.867144
0.805415
0.739512
0.690054
0.650451
0.617228
0.590708
0.572811
0.562528
0.561345
0.567607
0.579848
0.596166
0.614792
0.634187
0.653357
0.671671
0.688816
0.704649
0.719133
0.732289
0.744185
0.754917
0.764597
0.773339
0.781245
0.788407
0.794916
0.800853
0.806248
0.811084
0.815496
0.819756
1.01271
1.01504
1.01622
1.01796
1.02156
1.02838
1.04006
1.05774
1.07804
1.10655
1.11294
1.10364
1.09872
1.12277
1.07569
0.975251
0.929391
0.872398
0.805249
0.7444
0.696337
0.659165
0.628669
0.605442
0.590534
0.583987
0.585222
0.592919
0.605488
0.62118
0.638446
0.656064
0.673235
0.689483
0.70457
0.718397
0.730948
0.742267
0.752435
0.761556
0.769739
0.777087
0.783693
0.789635
0.794997
0.799858
0.804229
0.80806
0.811516
0.815051
1.01231
1.01367
1.01393
1.01476
1.01727
1.02277
1.03315
1.0501
1.07395
1.10429
1.1108
1.10679
1.13018
1.12101
1.03438
0.984278
0.935258
0.874303
0.809789
0.751523
0.706494
0.672624
0.646037
0.627005
0.615998
0.612606
0.615893
0.624421
0.636652
0.651074
0.666416
0.681755
0.696504
0.710326
0.723057
0.734634
0.745066
0.75441
0.762751
0.770188
0.776818
0.782731
0.788002
0.792698
0.796893
0.800661
0.803996
0.806817
0.809312
0.812125
1.01237
1.0124
1.01136
1.01081
1.01164
1.01501
1.02306
1.03773
1.06245
1.09674
1.10079
1.10105
1.12523
1.11462
1.03669
0.991553
0.940429
0.877999
0.815519
0.760642
0.719898
0.690577
0.66877
0.654396
0.647365
0.646847
0.65166
0.660392
0.671673
0.684288
0.697292
0.710037
0.722122
0.733328
0.743551
0.752767
0.761004
0.768326
0.774814
0.780553
0.785623
0.790096
0.794031
0.797481
0.800513
0.803196
0.805507
0.80733
0.808882
0.810989
1.01276
1.01118
1.00852
1.00613
1.00467
1.00504
1.00966
1.02143
1.06519
1.07405
1.10762
1.07776
1.11236
1.08934
1.03298
0.990097
0.938812
0.880535
0.822231
0.772415
0.736753
0.712762
0.696161
0.686633
0.683303
0.685159
0.690874
0.699191
0.709008
0.719443
0.729861
0.739852
0.749175
0.757706
0.765395
0.772249
0.778309
0.783638
0.788305
0.792377
0.795915
0.798975
0.8016
0.80383
0.805726
0.807352
0.808668
0.809527
0.810168
0.811591
1.01333
1.00998
1.00542
1.00079
0.996448
0.993045
0.993249
1.00328
1.02725
1.05458
1.07239
1.05641
1.08441
1.05904
1.01262
0.980913
0.935309
0.881913
0.829535
0.786262
0.756876
0.738663
0.727491
0.722474
0.722442
0.726036
0.732025
0.739397
0.747375
0.755407
0.763132
0.770339
0.776917
0.782817
0.788039
0.792609
0.796575
0.799991
0.80291
0.805378
0.807441
0.809139
0.810503
0.811561
0.812366
0.812978
0.813343
0.813286
0.813062
0.813833
1.01392
1.00874
1.00212
0.994907
0.987144
0.97914
0.973586
0.979517
0.994521
1.01647
1.02558
1.04302
1.04424
1.01937
0.98874
0.965942
0.928927
0.883262
0.837856
0.802149
0.779658
0.767561
0.76166
0.760816
0.763436
0.768114
0.773816
0.779838
0.785744
0.79128
0.796321
0.800812
0.804747
0.808142
0.811029
0.81345
0.815446
0.817061
0.818329
0.819281
0.819947
0.820354
0.820522
0.82047
0.820243
0.819897
0.819368
0.818452
0.81742
0.81757
1.01441
1.00745
0.998682
0.988652
0.977011
0.963573
0.950888
0.946856
0.954986
0.970908
0.978281
1.00965
1.00613
0.975762
0.96274
0.947468
0.920974
0.884084
0.847492
0.819744
0.804704
0.798518
0.797799
0.800503
0.805115
0.810258
0.815208
0.819604
0.823326
0.826381
0.828829
0.830747
0.832207
0.833273
0.834001
0.834436
0.834611
0.834555
0.834287
0.833826
0.833186
0.832386
0.831437
0.830347
0.829156
0.827917
0.826555
0.824845
0.823067
0.822631
1.01472
1.00614
0.995249
0.982285
0.966482
0.947064
0.926225
0.912396
0.912416
0.923501
0.925289
0.971051
0.967258
0.948282
0.941009
0.931656
0.914541
0.885782
0.858124
0.839505
0.831412
0.832754
0.835741
0.840749
0.846545
0.851578
0.85542
0.858024
0.859551
0.860216
0.860228
0.859761
0.858951
0.857896
0.856661
0.855287
0.8538
0.852213
0.850534
0.848769
0.846925
0.84501
0.843027
0.840979
0.838898
0.836834
0.834705
0.832269
0.829808
0.82882
1.01484
1.00487
0.992007
0.976152
0.956116
0.930585
0.901146
0.877144
0.868707
0.876654
0.887931
0.922205
0.938091
0.921644
0.917596
0.916026
0.908304
0.892218
0.869694
0.860457
0.859369
0.865971
0.873095
0.880476
0.886831
0.891348
0.893861
0.894624
0.894026
0.892449
0.89022
0.887588
0.884733
0.881771
0.878773
0.875772
0.872782
0.869806
0.866843
0.86389
0.860945
0.858011
0.855083
0.852158
0.849264
0.846446
0.843616
0.840522
0.837442
0.835935
1.0148
1.00375
0.989171
0.970642
0.946539
0.915067
0.877315
0.842365
0.824023
0.824694
0.825342
0.88297
0.868666
0.891464
0.901291
0.901012
0.901725
0.895957
0.883749
0.882711
0.888016
0.898875
0.909379
0.918498
0.925154
0.928984
0.930114
0.929089
0.9265
0.922869
0.918616
0.914047
0.909373
0.904719
0.900153
0.895698
0.891361
0.887136
0.883015
0.878988
0.875048
0.87119
0.867406
0.863686
0.860054
0.856551
0.853086
0.849399
0.845764
0.843769
1.01469
1.0029
0.986947
0.966106
0.938351
0.90146
0.856223
0.810803
0.781573
0.800043
0.859035
0.854852
0.859176
0.86815
0.878356
0.887955
0.895931
0.897254
0.897469
0.904966
0.916823
0.931296
0.944721
0.954635
0.961112
0.964193
0.963967
0.961261
0.956845
0.951363
0.945307
0.939027
0.93275
0.926605
0.920652
0.914909
0.909373
0.904034
0.898877
0.893888
0.889053
0.884365
0.87981
0.875375
0.871078
0.866955
0.862919
0.858703
0.85457
0.852121
1.01459
1.0024
0.98549
0.962808
0.932038
0.890653
0.839652
0.786343
0.75695
0.865035
0.833009
0.819307
0.833208
0.844183
0.857673
0.873179
0.891174
0.900456
0.91185
0.926682
0.944429
0.962563
0.978227
0.988881
0.994853
0.996982
0.9954
0.991112
0.985032
0.977894
0.970245
0.962463
0.954782
0.94733
0.940158
0.933278
0.926682
0.920354
0.914277
0.908431
0.902799
0.89737
0.892126
0.88705
0.882155
0.877476
0.872924
0.868232
0.863651
0.860785
1.01456
1.00232
0.984869
0.960894
0.927897
0.883228
0.828302
0.770607
0.770651
0.744389
0.77242
0.782235
0.802824
0.818332
0.837219
0.858419
0.886411
0.903708
0.924611
0.947186
0.970421
0.991584
1.00955
1.02015
1.02627
1.02737
1.02445
1.01868
1.01109
1.00247
0.993421
0.984324
0.975417
0.966821
0.958581
0.950703
0.943174
0.935976
0.929085
0.922481
0.916144
0.910057
0.9042
0.898555
0.893128
0.887951
0.882938
0.877826
0.872848
0.869596
1.01464
1.00264
0.985064
0.960357
0.925957
0.879322
0.82219
0.765256
0.735719
0.723571
0.739888
0.757404
0.77547
0.793321
0.816824
0.844517
0.880483
0.906007
0.936159
0.966596
0.995052
1.01872
1.03742
1.04958
1.0553
1.05535
1.05115
1.04401
1.03505
1.02513
1.01484
1.0046
0.994622
0.985028
0.975856
0.967104
0.958758
0.950795
0.943191
0.935921
0.928963
0.922295
0.915899
0.90975
0.903853
0.898234
0.892814
0.887333
0.882006
0.878397
1.01484
1.00332
0.985981
0.961063
0.926008
0.878448
0.820168
0.762304
0.722877
0.708543
0.718842
0.733984
0.750542
0.77034
0.797653
0.830553
0.873261
0.910253
0.94694
0.985105
1.01845
1.04477
1.06473
1.07691
1.08196
1.081
1.07558
1.06718
1.05699
1.04591
1.03454
1.02329
1.01238
1.00192
0.99193
0.982417
0.973358
0.964729
0.956502
0.94865
0.941147
0.933973
0.927103
0.920513
0.914202
0.908196
0.902416
0.896616
0.890987
0.887049
1.01514
1.00426
0.987469
0.962799
0.927718
0.879811
0.820707
0.75982
0.716465
0.696431
0.7007
0.712799
0.727983
0.74945
0.779884
0.817473
0.86127
0.913077
0.956576
1.00262
1.0405
1.06908
1.0897
1.10192
1.10632
1.10437
1.09782
1.08827
1.07697
1.06485
1.05253
1.0404
1.02868
1.01746
1.00677
0.996592
0.986915
0.977707
0.968939
0.960582
0.952607
0.944992
0.93771
0.930737
0.924068
0.917723
0.911632
0.905557
0.899671
0.89543
1.01554
1.00539
0.989362
0.965381
0.930828
0.883215
0.823699
0.760475
0.712476
0.687067
0.684763
0.694197
0.708346
0.730697
0.763319
0.805115
0.854055
0.913445
0.966579
1.01927
1.06128
1.09177
1.11291
1.12485
1.12854
1.12562
1.11798
1.10736
1.09505
1.08201
1.06885
1.05595
1.04352
1.03164
1.02034
1.00959
0.999381
0.989675
0.980441
0.971649
0.963268
0.955272
0.947637
0.940335
0.933358
0.926723
0.920365
0.914059
0.907956
0.903441
1.01602
1.00666
0.991557
0.968638
0.935177
0.888689
0.829586
0.765557
0.714484
0.681605
0.672804
0.679125
0.691848
0.714429
0.748468
0.793349
0.847129
0.914877
0.975671
1.03476
1.08073
1.11275
1.13525
1.14608
1.14882
1.1449
1.13618
1.12453
1.1113
1.09742
1.08352
1.06995
1.0569
1.04445
1.03262
1.02139
1.01072
1.00059
0.990958
0.981795
0.973069
0.964751
0.956817
0.949236
0.941999
0.935119
0.928535
0.92204
0.91576
0.910997
1.01659
1.00803
0.99399
0.972421
0.940579
0.896004
0.838376
0.774751
0.719352
0.683063
0.665996
0.668196
0.678806
0.701456
0.736573
0.784283
0.842539
0.913946
0.984356
1.04884
1.09892
1.13249
1.15498
1.16873
1.16749
1.16232
1.15247
1.13983
1.12574
1.11112
1.09656
1.0824
1.06883
1.05589
1.04361
1.03196
1.02091
1.01042
1.00045
0.990982
0.981967
0.973381
0.965197
0.957387
0.949935
0.942852
0.936083
0.929437
0.923018
0.918036
1.01726
1.00949
0.996616
0.976609
0.946806
0.904765
0.849572
0.786948
0.72936
0.687196
0.665217
0.66151
0.669915
0.692864
0.728713
0.778819
0.840562
0.912925
0.990449
1.06214
1.11596
1.15035
1.17653
1.18638
1.18449
1.17775
1.1668
1.15324
1.13838
1.12311
1.10798
1.09333
1.0793
1.06596
1.0533
1.04131
1.02994
1.01915
1.00891
0.999183
0.989933
0.981129
0.972744
0.964749
0.957126
0.949882
0.942966
0.936205
0.929683
0.924507
1.01807
1.01106
0.999391
0.981107
0.953657
0.914641
0.862693
0.802126
0.744439
0.696525
0.669308
0.666481
0.671652
0.690137
0.72552
0.777119
0.841558
0.915297
0.994863
1.07514
1.13133
1.16706
1.19196
1.20052
1.19885
1.1908
1.17904
1.16472
1.14921
1.13339
1.1178
1.10273
1.08834
1.07466
1.0617
1.04943
1.0378
1.02677
1.01632
1.00639
0.996953
0.98798
0.979439
0.971301
0.963548
0.956181
0.949155
0.942313
0.93572
0.93038
1.01899
1.01276
1.00231
0.985849
0.960981
0.925409
0.877555
0.820648
0.762029
0.714747
0.683296
0.672669
0.675521
0.694154
0.727484
0.779229
0.845249
0.920123
1.00337
1.08459
1.14505
1.18195
1.20468
1.21331
1.21165
1.20166
1.1892
1.17427
1.15825
1.142
1.12603
1.11063
1.09595
1.08201
1.06882
1.05633
1.0445
1.0333
1.02268
1.0126
1.00303
0.993929
0.985275
0.977036
0.969191
0.961738
0.954637
0.947746
0.941113
0.935635
1.02005
1.01459
1.00536
0.990777
0.968626
0.936768
0.89357
0.841026
0.785319
0.735738
0.706156
0.686834
0.686182
0.703781
0.737619
0.785437
0.850706
0.925782
1.01605
1.09522
1.1581
1.1941
1.21586
1.22415
1.22162
1.21077
1.19753
1.18204
1.16558
1.14897
1.13271
1.11707
1.10217
1.08805
1.07468
1.06204
1.05007
1.03875
1.02801
1.01783
1.00817
0.998988
0.990262
0.98196
0.97406
0.966556
0.959411
0.952502
0.945858
0.940269
1.02122
1.01654
1.00854
0.995827
0.976436
0.948394
0.910077
0.862438
0.810338
0.761765
0.724301
0.70665
0.703481
0.718162
0.748811
0.797707
0.861773
0.93525
1.026
1.10868
1.16987
1.20682
1.2254
1.23309
1.22924
1.21803
1.20411
1.18809
1.17124
1.15435
1.13788
1.12207
1.10704
1.09279
1.07933
1.06659
1.05455
1.04314
1.03235
1.02211
1.0124
1.00318
0.99442
0.986091
0.97817
0.970647
0.963489
0.956589
0.949962
0.944284
1.02248
1.01858
1.0118
1.00093
0.984269
0.960037
0.926671
0.884477
0.836972
0.790826
0.753059
0.731951
0.727683
0.739558
0.7681
0.815883
0.877961
0.950842
1.03701
1.11917
1.17923
1.21706
1.23298
1.24064
1.23383
1.22335
1.20879
1.19235
1.17522
1.15815
1.14157
1.12569
1.11059
1.0963
1.0828
1.07003
1.05796
1.04654
1.03572
1.02548
1.01576
1.00654
0.997779
0.989457
0.981547
0.974034
0.966891
0.960025
0.953439
0.947698
1.02381
1.02069
1.01511
1.00602
0.991999
0.971486
0.943027
0.906526
0.864321
0.821689
0.785206
0.761271
0.755539
0.764445
0.793962
0.840734
0.899167
0.97084
1.05021
1.12797
1.18487
1.22307
1.23786
1.24592
1.23793
1.22644
1.21145
1.19476
1.17751
1.16041
1.14383
1.12796
1.11289
1.09863
1.08515
1.07241
1.06037
1.04897
1.03819
1.02797
1.01829
1.0091
1.00038
0.992095
0.984224
0.97675
0.969647
0.962837
0.956315
0.950532
1.02515
1.0228
1.01839
1.01102
0.999506
0.982535
0.958813
0.928001
0.891614
0.853739
0.82032
0.797237
0.788997
0.798101
0.825181
0.868552
0.924544
0.988743
1.06263
1.13713
1.18915
1.22691
1.24105
1.24754
1.23917
1.22722
1.21212
1.1954
1.17822
1.16121
1.14474
1.12899
1.11402
1.09985
1.08646
1.0738
1.06184
1.05052
1.0398
1.02966
1.02004
1.01092
1.00226
0.994046
0.986242
0.978832
0.971792
0.965059
0.958619
0.952816
1.02646
1.02488
1.02158
1.01583
1.00667
0.993007
0.97375
0.948459
0.918103
0.885773
0.856469
0.835434
0.827515
0.835578
0.860133
0.900528
0.952148
1.0115
1.0756
1.1468
1.19372
1.22971
1.24264
1.24801
1.24102
1.22642
1.21114
1.19451
1.1775
1.1607
1.14443
1.12886
1.11406
1.10005
1.08681
1.07428
1.06243
1.05123
1.04063
1.03058
1.02107
1.01204
1.00348
0.99536
0.987646
0.980321
0.973365
0.966727
0.960387
0.954583
1.02771
1.02686
1.02461
1.02037
1.01338
1.00275
0.987603
0.96749
0.943042
0.916556
0.892036
0.874183
0.867532
0.874861
0.897175
0.933855
0.980359
1.03377
1.09115
1.15471
1.19923
1.2315
1.24393
1.24704
1.24037
1.22429
1.20871
1.19233
1.17557
1.15903
1.14302
1.1277
1.11314
1.09933
1.08627
1.07392
1.06224
1.05119
1.04073
1.03082
1.02143
1.01253
1.00409
0.996086
0.988483
0.981265
0.974411
0.967883
0.961657
0.955869
1.02885
1.02869
1.02742
1.02457
1.01954
1.01165
1.00019
0.984799
0.965874
0.945122
0.92573
0.911668
0.906894
0.914026
0.934447
0.966987
1.00814
1.05556
1.1065
1.15952
1.20742
1.23098
1.24398
1.24249
1.23875
1.22235
1.20537
1.18913
1.17263
1.15639
1.14068
1.12565
1.11135
1.09779
1.08496
1.07282
1.06133
1.05046
1.04017
1.03043
1.0212
1.01244
1.00414
0.996272
0.988799
0.981703
0.974966
0.968563
0.962464
0.956711
1.02984
1.03033
1.02995
1.02836
1.02508
1.0196
1.0114
1.00019
0.986258
0.970881
0.956536
0.946445
0.943928
0.951329
0.969618
0.998327
1.03432
1.0757
1.11978
1.16698
1.21272
1.23178
1.24203
1.23989
1.23538
1.21718
1.20121
1.18509
1.16884
1.15291
1.13752
1.1228
1.1088
1.09552
1.08295
1.07105
1.05978
1.04912
1.03903
1.02947
1.02042
1.01183
1.00369
0.995975
0.98865
0.981695
0.975091
0.968823
0.962859
0.957152
1.03065
1.03173
1.03216
1.03168
1.02994
1.02656
1.02117
1.01358
1.00401
0.993447
0.983784
0.977562
0.977449
0.985398
1.00214
1.02714
1.05836
1.09352
1.13079
1.17738