/*--------------------------------*- C++ -*----------------------------------*\
  =========                 |
  \\      /  F ield         | OpenFOAM: The Open Source CFD Toolbox
   \\    /   O peration     | Website:  https://openfoam.org
    \\  /    A nd           | Version:  9
     \\/     M anipulation  |
\*---------------------------------------------------------------------------*/
FoamFile
{
    format      ascii;
    class       surfaceScalarField;
    location    "0.07";
    object      phi;
}
// * * * * * * * * * * * * * * * * * * * * * * * * * * * * * * * * * * * * * //

dimensions      [0 3 -1 0 0 0 0];

internalField   nonuniform List<scalar> 
9850
(
-9.97193e-07
1.38562e-05
-1.00595e-06
1.39845e-05
-9.88743e-07
1.377e-05
-9.82652e-07
1.33976e-05
-1.01471e-06
1.32186e-05
-1.07955e-06
1.3425e-05
-1.15847e-06
1.393e-05
-1.24009e-06
1.4561e-05
-1.2583e-06
1.51073e-05
-1.01113e-06
1.48723e-05
-3.55347e-07
1.2551e-05
3.62492e-07
7.59818e-06
4.55437e-07
2.68917e-06
3.83939e-07
1.15484e-06
3.00862e-07
8.00806e-07
2.67404e-07
7.48397e-07
2.85691e-07
6.88915e-07
3.2563e-07
6.40336e-07
3.59472e-07
6.3798e-07
3.79017e-07
6.55139e-07
3.87206e-07
5.4001e-07
3.91438e-07
5.07421e-07
3.93503e-07
4.70453e-07
3.95608e-07
4.35308e-07
4.01461e-07
4.10834e-07
4.12765e-07
4.09649e-07
4.26081e-07
4.36652e-07
4.33282e-07
4.83193e-07
4.22907e-07
5.42799e-07
3.89544e-07
6.11339e-07
4.1023e-07
6.21112e-07
6.10674e-07
5.87208e-07
9.31966e-07
8.98333e-07
1.33316e-06
1.37195e-06
1.7481e-06
1.93344e-06
2.1359e-06
2.4693e-06
2.46386e-06
2.91086e-06
2.71426e-06
3.21819e-06
2.88455e-06
3.38264e-06
2.98391e-06
3.41978e-06
3.0279e-06
3.35865e-06
3.03354e-06
3.23158e-06
3.01583e-06
3.0673e-06
2.98628e-06
2.88764e-06
2.95267e-06
2.70717e-06
2.91966e-06
2.53436e-06
2.88962e-06
2.37325e-06
2.86347e-06
2.22511e-06
2.84126e-06
2.08947e-06
1.96372e-06
-9.80197e-07
1.38904e-05
-9.77538e-07
1.39818e-05
-9.51269e-07
1.37437e-05
-9.38506e-07
1.33849e-05
-9.62664e-07
1.32428e-05
-1.01578e-06
1.34781e-05
-1.07936e-06
1.39936e-05
-1.13551e-06
1.46171e-05
-1.10397e-06
1.50757e-05
-7.95378e-07
1.45637e-05
-1.133e-07
1.18689e-05
4.82034e-07
7.00285e-06
6.15176e-07
2.55603e-06
3.80782e-07
1.38924e-06
2.83238e-07
8.98349e-07
2.64004e-07
7.67631e-07
2.91367e-07
6.61552e-07
3.32421e-07
5.99282e-07
3.62283e-07
6.08117e-07
3.75071e-07
6.42352e-07
3.77826e-07
5.37255e-07
3.78021e-07
5.07226e-07
3.76199e-07
4.72274e-07
3.71637e-07
4.3987e-07
3.67543e-07
4.14928e-07
3.69394e-07
4.07799e-07
3.7784e-07
4.28207e-07
3.84506e-07
4.76526e-07
3.7636e-07
5.50945e-07
3.61832e-07
6.25866e-07
4.30493e-07
5.52451e-07
6.37689e-07
3.80013e-07
8.89792e-07
6.4623e-07
1.14839e-06
1.11334e-06
1.45892e-06
1.62291e-06
1.78053e-06
2.1477e-06
2.07728e-06
2.61411e-06
2.32412e-06
2.97136e-06
2.50948e-06
3.19728e-06
2.63379e-06
3.29547e-06
2.70555e-06
3.28688e-06
2.73707e-06
3.20006e-06
2.74097e-06
3.0634e-06
2.72808e-06
2.90054e-06
2.70655e-06
2.7287e-06
2.68191e-06
2.559e-06
2.65749e-06
2.39767e-06
2.63504e-06
2.24756e-06
2.61524e-06
2.10927e-06
1.98145e-06
-9.61703e-07
1.39147e-05
-9.48048e-07
1.39682e-05
-9.13385e-07
1.37091e-05
-8.94771e-07
1.33662e-05
-9.1258e-07
1.32606e-05
-9.57271e-07
1.35228e-05
-1.0106e-06
1.40469e-05
-1.0481e-06
1.46546e-05
-9.80279e-07
1.50079e-05
-6.42226e-07
1.42256e-05
9.90955e-09
1.12168e-05
5.67886e-07
6.44487e-06
7.9328e-07
2.33064e-06
4.06575e-07
1.77594e-06
3.01179e-07
1.00375e-06
2.9414e-07
7.74671e-07
3.24201e-07
6.31491e-07
3.55961e-07
5.67522e-07
3.73731e-07
5.90347e-07
3.75671e-07
6.40412e-07
3.70693e-07
5.42232e-07
3.66227e-07
5.11693e-07
3.61998e-07
4.76503e-07
3.5143e-07
4.50438e-07
3.29743e-07
4.36615e-07
3.04378e-07
4.33164e-07
2.90567e-07
4.42018e-07
2.99489e-07
4.67604e-07
3.32974e-07
5.1746e-07
3.84808e-07
5.74033e-07
5.05579e-07
4.3168e-07
7.52318e-07
1.33273e-07
8.39306e-07
5.59242e-07
1.01486e-06
9.37789e-07
1.23897e-06
1.39881e-06
1.49155e-06
1.89511e-06
1.74271e-06
2.36295e-06
1.96703e-06
2.74705e-06
2.14888e-06
3.01542e-06
2.28287e-06
3.16148e-06
2.37163e-06
3.19813e-06
2.42267e-06
3.14903e-06
2.44537e-06
3.04069e-06
2.44881e-06
2.89709e-06
2.44053e-06
2.73698e-06
2.42613e-06
2.5734e-06
2.40936e-06
2.41444e-06
2.39252e-06
2.2644e-06
2.37675e-06
2.12505e-06
1.99656e-06
-9.41847e-07
1.39292e-05
-9.17747e-07
1.39441e-05
-8.75638e-07
1.3667e-05
-8.52412e-07
1.3343e-05
-8.6574e-07
1.32739e-05
-9.05188e-07
1.35622e-05
-9.52913e-07
1.40946e-05
-9.79026e-07
1.46808e-05
-8.90635e-07
1.49195e-05
-5.52443e-07
1.38875e-05
1.26937e-08
1.06517e-05
7.35489e-07
5.72208e-06
9.7722e-07
2.08891e-06
5.57712e-07
2.19545e-06
4.02219e-07
1.15924e-06
3.8834e-07
7.88549e-07
3.98851e-07
6.2098e-07
4.01451e-07
5.64921e-07
3.96795e-07
5.95004e-07
3.83176e-07
6.54031e-07
3.68173e-07
5.57235e-07
3.57762e-07
5.22104e-07
3.55233e-07
4.79033e-07
3.50711e-07
4.54959e-07
3.24067e-07
4.63259e-07
2.75826e-07
4.81405e-07
2.41745e-07
4.76099e-07
2.60801e-07
4.48549e-07
3.58149e-07
4.20112e-07
5.12024e-07
4.20158e-07
6.0271e-07
3.40993e-07
5.96402e-07
1.39581e-07
7.0719e-07
4.48453e-07
8.63221e-07
7.81759e-07
1.04706e-06
1.21497e-06
1.2485e-06
1.69367e-06
1.45438e-06
2.15707e-06
1.64742e-06
2.554e-06
1.81337e-06
2.84947e-06
1.94452e-06
3.03032e-06
2.0397e-06
3.10295e-06
2.10248e-06
3.08625e-06
2.13903e-06
3.00414e-06
2.1562e-06
2.87992e-06
2.16026e-06
2.73291e-06
2.15628e-06
2.57739e-06
2.14794e-06
2.42278e-06
2.13773e-06
2.27461e-06
2.12699e-06
2.13578e-06
2.00808e-06
-9.20526e-07
1.39341e-05
-8.86758e-07
1.39103e-05
-8.38388e-07
1.36186e-05
-8.1188e-07
1.33165e-05
-8.22486e-07
1.32845e-05
-8.59419e-07
1.35992e-05
-9.05229e-07
1.41404e-05
-9.2547e-07
1.4701e-05
-8.27638e-07
1.48217e-05
-5.02681e-07
1.35625e-05
3.32088e-08
1.01158e-05
6.17563e-07
5.13773e-06
7.74782e-07
1.93169e-06
7.13853e-07
2.25638e-06
6.02079e-07
1.27101e-06
5.53062e-07
8.37567e-07
5.09605e-07
6.64437e-07
4.6055e-07
6.13976e-07
4.26421e-07
6.29133e-07
3.98006e-07
6.82446e-07
3.72332e-07
5.82909e-07
3.53201e-07
5.41235e-07
3.53306e-07
4.78928e-07
3.71216e-07
4.37049e-07
3.71397e-07
4.63078e-07
3.36484e-07
5.16318e-07
3.11522e-07
5.01061e-07
3.61872e-07
3.98199e-07
4.83689e-07
2.98294e-07
5.91859e-07
3.11989e-07
5.30266e-07
4.02586e-07
4.54907e-07
2.1494e-07
6.08633e-07
2.94727e-07
7.6437e-07
6.26022e-07
9.13841e-07
1.0655e-06
1.062e-06
1.54551e-06
1.21807e-06
2.001e-06
1.37212e-06
2.39995e-06
1.51226e-06
2.70934e-06
1.63007e-06
2.91251e-06
1.72195e-06
3.01107e-06
1.78844e-06
3.01975e-06
1.83283e-06
2.95976e-06
1.85965e-06
2.8531e-06
1.87359e-06
2.71898e-06
1.87874e-06
2.57223e-06
1.87837e-06
2.42315e-06
1.87478e-06
2.2782e-06
1.86927e-06
2.1413e-06
2.01573e-06
-8.97452e-07
1.39296e-05
-8.55012e-07
1.38679e-05
-8.01747e-07
1.35653e-05
-7.73246e-07
1.3288e-05
-7.82515e-07
1.32938e-05
-8.18722e-07
1.36354e-05
-8.64559e-07
1.41863e-05
-8.81619e-07
1.47181e-05
-7.77985e-07
1.47181e-05
-4.64034e-07
1.32485e-05
1.20553e-08
9.63968e-06
2.87084e-07
4.8627e-06
3.41909e-07
1.87686e-06
5.77166e-07
2.02112e-06
7.26113e-07
1.12207e-06
6.86572e-07
8.77107e-07
5.96109e-07
7.54901e-07
5.01971e-07
7.08114e-07
4.51874e-07
6.7923e-07
4.18823e-07
7.15497e-07
3.85632e-07
6.16099e-07
3.55061e-07
5.71806e-07
3.49801e-07
4.84187e-07
3.85436e-07
4.01415e-07
4.2586e-07
4.22653e-07
4.29043e-07
5.13134e-07
4.40292e-07
4.89813e-07
5.11921e-07
3.2657e-07
7.19709e-07
9.05066e-08
6.72289e-07
3.59408e-07
6.05939e-07
4.68937e-07
4.468e-07
3.74079e-07
4.27359e-07
3.14169e-07
6.6722e-07
3.86162e-07
8.03851e-07
9.28865e-07
9.16842e-07
1.43252e-06
1.02656e-06
1.89129e-06
1.13906e-06
2.28745e-06
1.2479e-06
2.6005e-06
1.34534e-06
2.81507e-06
1.42653e-06
2.92989e-06
1.48987e-06
2.95641e-06
1.5363e-06
2.91332e-06
1.56825e-06
2.82115e-06
1.58873e-06
2.6985e-06
1.6007e-06
2.56026e-06
1.60671e-06
2.41715e-06
1.60868e-06
2.27623e-06
1.60779e-06
2.14219e-06
2.01946e-06
-8.72217e-07
1.3916e-05
-8.22332e-07
1.3818e-05
-7.65614e-07
1.35086e-05
-7.36219e-07
1.32586e-05
-7.45039e-07
1.33026e-05
-7.81312e-07
1.36716e-05
-8.27514e-07
1.42325e-05
-8.42245e-07
1.47328e-05
-7.3414e-07
1.461e-05
-4.2274e-07
1.29372e-05
4.3553e-08
9.17339e-06
1.42841e-07
4.76341e-06
6.17177e-09
2.01353e-06
2.41896e-07
1.7854e-06
5.303e-07
8.33661e-07
6.35783e-07
7.71624e-07
5.69936e-07
8.20747e-07
4.93671e-07
7.8438e-07
4.64818e-07
7.08082e-07
4.43254e-07
7.37061e-07
4.09697e-07
6.49656e-07
3.71042e-07
6.10461e-07
3.53163e-07
5.02066e-07
3.79421e-07
3.75157e-07
4.23e-07
3.79074e-07
4.32047e-07
5.04088e-07
4.68159e-07
4.537e-07
5.76833e-07
2.17896e-07
4.95139e-07
1.72201e-07
5.9072e-07
2.63827e-07
6.68153e-07
3.91504e-07
6.53525e-07
3.88707e-07
6.06466e-07
3.61228e-07
6.08973e-07
3.83655e-07
7.06905e-07
8.30932e-07
7.86036e-07
1.35339e-06
8.59356e-07
1.81797e-06
9.35835e-07
2.21097e-06
1.01424e-06
2.5221e-06
1.0892e-06
2.7401e-06
1.15596e-06
2.86313e-06
1.21178e-06
2.90059e-06
1.25593e-06
2.86917e-06
1.28912e-06
2.78796e-06
1.31285e-06
2.67477e-06
1.32892e-06
2.54419e-06
1.33906e-06
2.40701e-06
1.34465e-06
2.27064e-06
1.34649e-06
2.14036e-06
2.02139e-06
-8.44356e-07
1.38938e-05
-7.88465e-07
1.37621e-05
-7.2973e-07
1.34499e-05
-7.00289e-07
1.32292e-05
-7.09046e-07
1.33114e-05
-7.45412e-07
1.3708e-05
-7.91343e-07
1.42784e-05
-8.03642e-07
1.47451e-05
-6.94075e-07
1.45004e-05
-3.93866e-07
1.26369e-05
-3.9668e-08
8.81919e-06
8.59105e-08
4.63784e-06
1.20979e-07
1.97846e-06
4.91965e-07
1.41441e-06
4.17587e-07
9.0804e-07
4.28937e-07
7.60274e-07
4.63908e-07
7.85776e-07
4.57535e-07
7.90753e-07
4.68343e-07
6.97274e-07
4.63692e-07
7.41713e-07
4.42096e-07
6.71252e-07
4.18348e-07
6.34208e-07
4.03592e-07
5.16823e-07
3.98359e-07
3.8039e-07
3.88654e-07
3.88778e-07
3.91721e-07
5.01021e-07
4.96677e-07
3.48744e-07
4.67385e-07
2.47188e-07
4.83214e-07
1.56372e-07
5.35103e-07
2.11938e-07
6.34404e-07
2.92203e-07
6.86145e-07
3.36967e-07
6.90145e-07
3.57227e-07
6.48128e-07
4.25673e-07
6.4582e-07
8.33241e-07
6.7268e-07
1.32653e-06
7.09488e-07
1.78116e-06
7.5401e-07
2.16644e-06
8.04958e-07
2.47115e-06
8.58393e-07
2.68667e-06
9.09938e-07
2.81159e-06
9.56323e-07
2.85421e-06
9.95731e-07
2.82977e-06
1.02757e-06
2.75612e-06
1.05211e-06
2.65023e-06
1.07006e-06
2.52624e-06
1.08222e-06
2.39485e-06
1.08907e-06
2.26379e-06
1.09056e-06
2.13887e-06
2.02425e-06
-8.13437e-07
1.38639e-05
-7.53153e-07
1.37018e-05
-6.93758e-07
1.33905e-05
-6.64847e-07
1.32003e-05
-6.73499e-07
1.332e-05
-7.09396e-07
1.37439e-05
-7.53885e-07
1.43229e-05
-7.63649e-07
1.47548e-05
-6.61715e-07
1.43984e-05
-4.22549e-07
1.23978e-05
-2.18803e-07
8.61544e-06
-6.46592e-08
4.48369e-06
3.6863e-07
1.54517e-06
6.06877e-07
1.17616e-06
3.97852e-07
1.11707e-06
2.42006e-07
9.1612e-07
4.54244e-07
5.73537e-07
4.51397e-07
7.936e-07
4.54156e-07
6.94515e-07
4.59172e-07
7.36696e-07
4.78183e-07
6.52242e-07
5.16938e-07
5.95453e-07
5.51797e-07
4.81964e-07
5.27912e-07
4.04275e-07
4.15852e-07
5.00838e-07
4.11542e-07
5.05332e-07
4.69793e-07
2.90493e-07
5.11726e-07
2.05255e-07
5.09448e-07
1.58651e-07
5.4343e-07
1.77956e-07
6.08263e-07
2.27371e-07
6.59123e-07
2.86106e-07
6.59334e-07
3.57016e-07
6.13659e-07
4.71348e-07
5.66132e-07
8.80768e-07
5.56249e-07
1.33641e-06
5.65304e-07
1.77211e-06
5.8543e-07
2.14632e-06
6.14406e-07
2.44217e-06
6.49491e-07
2.65158e-06
6.87149e-07
2.77393e-06
7.24144e-07
2.81721e-06
7.58122e-07
2.79579e-06
7.87696e-07
2.72654e-06
8.12271e-07
2.62565e-06
8.31766e-07
2.50675e-06
8.46146e-07
2.38047e-06
8.54429e-07
2.2555e-06
8.52329e-07
2.14097e-06
2.04846e-06
-7.79145e-07
1.38274e-05
-7.16177e-07
1.36388e-05
-6.57343e-07
1.33316e-05
-6.29285e-07
1.31722e-05
-6.37419e-07
1.33282e-05
-6.71695e-07
1.37782e-05
-7.12585e-07
1.43638e-05
-7.16307e-07
1.47586e-05
-6.1716e-07
1.42993e-05
-4.05373e-07
1.2186e-05
-2.22589e-07
8.43266e-06
1.03884e-07
4.15722e-06
2.38435e-07
1.41062e-06
3.28055e-07
1.08654e-06
4.17155e-07
1.02797e-06
4.88516e-07
8.44759e-07
5.20576e-07
5.41477e-07
4.57584e-07
8.56593e-07
3.89579e-07
7.62519e-07
4.15031e-07
7.11245e-07
5.2536e-07
5.41913e-07
6.78234e-07
4.42578e-07
7.79186e-07
3.81012e-07
7.13969e-07
4.69493e-07
5.63266e-07
6.51541e-07
5.52385e-07
5.16213e-07
5.65898e-07
2.7698e-07
5.6457e-07
2.06583e-07
5.554e-07
1.67822e-07
5.67381e-07
1.65975e-07
5.93829e-07
2.00922e-07
6.09265e-07
2.7067e-07
5.88231e-07
3.78051e-07
5.07915e-07
5.51665e-07
4.57581e-07
9.31102e-07
4.31956e-07
1.36204e-06
4.2393e-07
1.78013e-06
4.26994e-07
2.14325e-06
4.39418e-07
2.42975e-06
4.59765e-07
2.63124e-06
4.85561e-07
2.74813e-06
5.13968e-07
2.7888e-06
5.42507e-07
2.76725e-06
5.69378e-07
2.69967e-06
5.93479e-07
2.60155e-06
6.14084e-07
2.48614e-06
6.301e-07
2.36445e-06
6.38234e-07
2.24737e-06
6.29807e-07
2.14939e-06
2.08935e-06
-7.41329e-07
1.37857e-05
-6.77392e-07
1.35749e-05
-6.20162e-07
1.32744e-05
-5.93059e-07
1.31451e-05
-6.00003e-07
1.33351e-05
-6.31005e-07
1.38092e-05
-6.65184e-07
1.4398e-05
-6.56544e-07
1.47499e-05
-5.42435e-07
1.41852e-05
-3.07816e-07
1.19514e-05
2.91925e-08
8.09565e-06
3.21311e-07
3.8651e-06
3.9979e-07
1.33214e-06
3.26701e-07
1.15963e-06
3.57028e-07
9.97639e-07
4.04409e-07
7.97378e-07
3.93457e-07
5.52429e-07
4.09685e-07
8.40366e-07
3.80809e-07
7.91395e-07
4.11338e-07
6.80716e-07
5.29113e-07
4.24139e-07
6.41692e-07
3.29999e-07
7.07556e-07
3.15148e-07
7.5253e-07
4.2452e-07
7.62196e-07
6.41874e-07
7.09486e-07
5.68923e-07
6.58125e-07
3.28342e-07
6.38453e-07
2.26255e-07
6.19589e-07
1.86686e-07
6.07973e-07
1.77592e-07
5.98477e-07
2.10418e-07
5.7731e-07
2.91837e-07
5.26846e-07
4.28516e-07
4.43084e-07
6.35427e-07
3.72418e-07
1.00177e-06
3.25916e-07
1.40854e-06
2.98318e-07
1.80773e-06
2.84244e-07
2.15733e-06
2.8142e-07
2.43257e-06
2.88455e-07
2.6242e-06
3.03243e-07
2.73335e-06
3.23114e-07
2.76893e-06
3.45449e-07
2.74492e-06
3.68061e-07
2.67706e-06
3.89243e-07
2.58037e-06
4.0744e-07
2.46794e-06
4.20142e-07
2.35175e-06
4.2231e-07
2.2452e-06
4.0662e-07
2.16508e-06
2.12176e-06
-7.0003e-07
1.37405e-05
-6.36753e-07
1.35116e-05
-5.81978e-07
1.32196e-05
-5.55804e-07
1.31189e-05
-5.60869e-07
1.33402e-05
-5.8715e-07
1.38355e-05
-6.12556e-07
1.44234e-05
-5.90415e-07
1.47278e-05
-4.61045e-07
1.40558e-05
-2.07635e-07
1.1698e-05
1.54011e-07
7.734e-06
2.71626e-07
3.74748e-06
1.34435e-07
1.46934e-06
1.59598e-07
1.13447e-06
2.24202e-07
9.33035e-07
2.59118e-07
7.62461e-07
2.13828e-07
5.97719e-07
2.77921e-07
7.76273e-07
3.33148e-07
7.36169e-07
4.3751e-07
5.76353e-07
5.35934e-07
3.25715e-07
6.23623e-07
2.4231e-07
6.86336e-07
2.52434e-07
7.59766e-07
3.5109e-07
8.71478e-07
5.30161e-07
9.15363e-07
5.25038e-07
8.49348e-07
3.94356e-07
7.79795e-07
2.95808e-07
7.2203e-07
2.4445e-07
6.70042e-07
2.2958e-07
6.22141e-07
2.58319e-07
5.68896e-07
3.45082e-07
4.94228e-07
5.03184e-07
3.96522e-07
7.33132e-07
3.07256e-07
1.09103e-06
2.38918e-07
1.47688e-06
1.90475e-07
1.85618e-06
1.58555e-07
2.18925e-06
1.40563e-07
2.45057e-06
1.34698e-07
2.63007e-06
1.38719e-07
2.72933e-06
1.4986e-07
2.75779e-06
1.65279e-07
2.7295e-06
1.82428e-07
2.65991e-06
1.99049e-07
2.56375e-06
2.12668e-07
2.45433e-06
2.1981e-07
2.34461e-06
2.15894e-07
2.24912e-06
1.98268e-07
2.18271e-06
2.14764e-06
-6.55479e-07
1.36933e-05
-5.94324e-07
1.34505e-05
-5.42677e-07
1.3168e-05
-5.17378e-07
1.30936e-05
-5.20075e-07
1.33429e-05
-5.40917e-07
1.38563e-05
-5.57404e-07
1.44398e-05
-5.25552e-07
1.46959e-05
-3.9565e-07
1.39259e-05
-1.65619e-07
1.14679e-05
4.13085e-08
7.52707e-06
1.36915e-07
3.65188e-06
-2.63513e-08
1.6326e-06
2.73064e-08
1.08081e-06
8.28907e-08
8.77452e-07
8.89236e-08
7.56429e-07
5.37584e-08
6.32884e-07
1.39991e-07
6.9004e-07
2.82654e-07
5.93505e-07
4.3549e-07
4.23517e-07
5.38855e-07
2.22349e-07
6.09519e-07
1.71646e-07
6.66312e-07
1.95642e-07
7.30509e-07
2.86894e-07
8.51e-07
4.0967e-07
9.27064e-07
4.48974e-07
9.14229e-07
4.07191e-07
8.55319e-07
3.54718e-07
7.8144e-07
3.18329e-07
7.04501e-07
3.06519e-07
6.29271e-07
3.33549e-07
5.54256e-07
4.20097e-07
4.71361e-07
5.86079e-07
3.46673e-07
8.57821e-07
2.4633e-07
1.19138e-06
1.59804e-07
1.5634e-06
9.33268e-08
1.92265e-06
4.53425e-08
2.23723e-06
1.36092e-08
2.4823e-06
-3.94624e-09
2.64762e-06
-9.78438e-09
2.73516e-06
-6.84681e-09
2.75486e-06
1.7978e-09
2.72085e-06
1.32222e-08
2.64849e-06
2.4519e-08
2.55245e-06
3.23131e-08
2.44653e-06
3.25533e-08
2.34437e-06
2.20718e-08
2.2596e-06
2.59456e-09
2.20219e-06
2.16836e-06
-6.08075e-07
1.36457e-05
-5.50273e-07
1.33927e-05
-5.02268e-07
1.312e-05
-4.77794e-07
1.30692e-05
-4.77791e-07
1.33429e-05
-4.92852e-07
1.38714e-05
-5.00866e-07
1.44479e-05
-4.62653e-07
1.46577e-05
-3.45341e-07
1.38086e-05
-1.88385e-07
1.1311e-05
-9.9686e-08
7.43837e-06
1.90367e-08
3.53315e-06
-3.34096e-08
1.68505e-06
-2.82049e-08
1.07561e-06
-1.53183e-08
8.64565e-07
-3.03788e-08
7.7149e-07
-2.96231e-08
6.32128e-07
8.22563e-08
5.78161e-07
2.49118e-07
4.26643e-07
4.15534e-07
2.57101e-07
5.21433e-07
1.1645e-07
5.97996e-07
9.50831e-08
6.58363e-07
1.35275e-07
7.24214e-07
2.21042e-07
8.12427e-07
3.21456e-07
8.77785e-07
3.83616e-07
8.8453e-07
4.00446e-07
8.4437e-07
3.94878e-07
7.751e-07
3.876e-07
6.88376e-07
3.93244e-07
5.92049e-07
4.29876e-07
4.89528e-07
5.22618e-07
3.77766e-07
6.97841e-07
2.69887e-07
9.65699e-07
1.68016e-07
1.29325e-06
7.50296e-08
1.65639e-06
-1.91269e-09
1.99959e-06
-6.1265e-08
2.29658e-06
-1.03616e-07
2.52465e-06
-1.30611e-07
2.67462e-06
-1.44672e-07
2.74923e-06
-1.48824e-07
2.75901e-06
-1.46346e-07
2.71837e-06
-1.406e-07
2.64274e-06
-1.35245e-07
2.5471e-06
-1.34502e-07
2.44579e-06
-1.42435e-07
2.3523e-06
-1.60129e-07
2.27729e-06
-1.81772e-07
2.22383e-06
2.18103e-06
-5.58339e-07
1.35991e-05
-5.04866e-07
1.33392e-05
-4.60861e-07
1.3076e-05
-4.3715e-07
1.30454e-05
-4.34108e-07
1.33398e-05
-4.42801e-07
1.38801e-05
-4.41804e-07
1.44469e-05
-3.96279e-07
1.46122e-05
-2.87132e-07
1.36995e-05
-1.49955e-07
1.11738e-05
-1.61238e-08
7.30454e-06
6.23584e-08
3.45467e-06
-2.06207e-08
1.76803e-06
-2.83661e-08
1.08335e-06
-5.76238e-08
8.93823e-07
-7.42582e-08
7.88124e-07
-5.33051e-08
6.11175e-07
6.9229e-08
4.55627e-07
2.35612e-07
2.60259e-07
4.02564e-07
9.01499e-08
5.15726e-07
3.28761e-09
6.02648e-07
8.16157e-09
6.71624e-07
6.62989e-08
7.32947e-07
1.59718e-07
7.92336e-07
2.62067e-07
8.32071e-07
3.43882e-07
8.3599e-07
3.96527e-07
8.02616e-07
4.28252e-07
7.37823e-07
4.52392e-07
6.48648e-07
4.82419e-07
5.41856e-07
5.36667e-07
4.23806e-07
6.40669e-07
3.02551e-07
8.19096e-07
1.95444e-07
1.07281e-06
7.78522e-08
1.41084e-06
-1.45553e-08
1.7488e-06
-9.62325e-08
2.08127e-06
-1.62819e-07
2.36317e-06
-2.12859e-07
2.57469e-06
-2.47101e-07
2.70886e-06
-2.67695e-07
2.76982e-06
-2.77673e-07
2.76899e-06
-2.8055e-07
2.72125e-06
-2.80221e-07
2.64241e-06
-2.81106e-07
2.54798e-06
-2.87881e-07
2.45256e-06
-3.03725e-07
2.36814e-06
-3.27021e-07
2.30059e-06
-3.49157e-07
2.24597e-06
2.19026e-06
-5.06882e-07
1.35546e-05
-4.58451e-07
1.32908e-05
-4.18675e-07
1.30362e-05
-3.95648e-07
1.30224e-05
-3.892e-07
1.33334e-05
-3.90615e-07
1.38815e-05
-3.78959e-07
1.44352e-05
-3.21853e-07
1.45551e-05
-2.01943e-07
1.35795e-05
-3.96836e-08
1.10115e-05
1.28327e-07
7.13653e-06
1.16996e-07
3.46601e-06
8.77382e-08
1.79729e-06
1.84495e-08
1.15264e-06
-4.39361e-08
9.56208e-07
-6.79838e-08
8.12172e-07
-3.27121e-08
5.75903e-07
8.69617e-08
3.35953e-07
2.4667e-07
1.00551e-07
4.10423e-07
-7.36034e-08
5.27462e-07
-1.13751e-07
6.20218e-07
-8.45949e-08
6.92863e-07
-6.34591e-09
7.49064e-07
1.03517e-07
7.89652e-07
2.21479e-07
8.09786e-07
3.23748e-07
8.01887e-07
4.04426e-07
7.6486e-07
4.65279e-07
6.99991e-07
5.17261e-07
6.11208e-07
5.71201e-07
5.03856e-07
6.44019e-07
3.84059e-07
7.60467e-07
2.55639e-07
9.47515e-07
1.21887e-07
1.20656e-06
1.26251e-08
1.5201e-06
-9.10924e-08
1.85252e-06
-1.81122e-07
2.1713e-06
-2.55567e-07
2.43761e-06
-3.12853e-07
2.63198e-06
-3.5351e-07
2.74952e-06
-3.7974e-07
2.79605e-06
-3.94816e-07
2.78406e-06
-4.02717e-07
2.72915e-06
-4.08042e-07
2.64774e-06
-4.15831e-07
2.55577e-06
-4.30461e-07
2.46719e-06
-4.53187e-07
2.39087e-06
-4.79646e-07
2.32705e-06
-5.00517e-07
2.26684e-06
2.19732e-06
-4.54363e-07
1.35129e-05
-4.11457e-07
1.32479e-05
-3.76054e-07
1.30008e-05
-3.53695e-07
1.30001e-05
-3.43645e-07
1.33233e-05
-3.37234e-07
1.38751e-05
-3.14022e-07
1.4412e-05
-2.4364e-07
1.44847e-05
-1.07368e-07
1.34433e-05
8.43474e-08
1.08198e-05
2.49522e-07
6.97136e-06
2.55236e-07
3.46029e-06
1.90455e-07
1.86207e-06
7.0467e-08
1.27263e-06
-1.19532e-08
1.03863e-06
-2.86402e-08
8.28859e-07
1.52728e-08
5.31991e-07
1.23561e-07
2.27664e-07
2.75126e-07
-5.10141e-08
4.33464e-07
-2.31942e-07
5.51179e-07
-2.31465e-07
6.46581e-07
-1.79997e-07
7.17939e-07
-7.77041e-08
7.67681e-07
5.37751e-08
7.95805e-07
1.93355e-07
8.00311e-07
3.19242e-07
7.80874e-07
4.23863e-07
7.37185e-07
5.08968e-07
6.68736e-07
5.8571e-07
5.79287e-07
6.6065e-07
4.72084e-07
7.51222e-07
3.51033e-07
8.81518e-07
2.19907e-07
1.07864e-06
9.29007e-08
1.33357e-06
-3.79603e-08
1.65096e-06
-1.54884e-07
1.96944e-06
-2.56003e-07
2.27242e-06
-3.3948e-07
2.52109e-06
-4.0417e-07
2.69667e-06
-4.50929e-07
2.79628e-06
-4.8235e-07
2.82747e-06
-5.02238e-07
2.80395e-06
-5.15297e-07
2.74221e-06
-5.26855e-07
2.6593e-06
-5.42033e-07
2.57095e-06
-5.63849e-07
2.48901e-06
-5.9094e-07
2.41796e-06
-6.171e-07
2.35321e-06
-6.3451e-07
2.28425e-06
2.20225e-06
-4.0146e-07
1.34748e-05
-3.64381e-07
1.32108e-05
-3.33475e-07
1.29699e-05
-3.11927e-07
1.29785e-05
-2.98468e-07
1.33099e-05
-2.84611e-07
1.38612e-05
-2.50928e-07
1.43783e-05
-1.70649e-07
1.44044e-05
-2.90744e-08
1.33017e-05
1.54697e-07
1.06361e-05
3.06192e-07
6.81986e-06
2.45347e-07
3.52113e-06
1.87301e-07
1.92011e-06
9.54189e-08
1.36451e-06
3.3596e-08
1.10045e-06
2.69706e-08
8.35484e-07
6.63111e-08
4.92651e-07
1.66998e-07
1.26977e-07
3.10333e-07
-1.94348e-07
4.65482e-07
-3.87091e-07
5.82439e-07
-3.48423e-07
6.76206e-07
-2.73764e-07
7.4353e-07
-1.45028e-07
7.84998e-07
1.23078e-08
8.03032e-07
1.75321e-07
7.96744e-07
3.2553e-07
7.66369e-07
4.54238e-07
7.13877e-07
5.61459e-07
6.41793e-07
6.57795e-07
5.50564e-07
7.51879e-07
4.42002e-07
8.59783e-07
3.1839e-07
1.00513e-06
1.83543e-07
1.21349e-06
3.32152e-08
1.48389e-06
-9.64808e-08
1.78066e-06
-2.20483e-07
2.09344e-06
-3.2974e-07
2.38168e-06
-4.20382e-07
2.61173e-06
-4.91068e-07
2.76735e-06
-5.4282e-07
2.84803e-06
-5.78656e-07
2.86331e-06
-6.03058e-07
2.82835e-06
-6.21515e-07
2.76067e-06
-6.39749e-07
2.67753e-06
-6.62111e-07
2.59331e-06
-6.89429e-07
2.51633e-06
-7.17974e-07
2.4465e-06
-7.41309e-07
2.37654e-06
-7.54549e-07
2.29749e-06
2.20542e-06
-3.48842e-07
1.34406e-05
-3.17765e-07
1.31797e-05
-2.91502e-07
1.29436e-05
-2.71084e-07
1.29581e-05
-2.54766e-07
1.32936e-05
-2.34485e-07
1.38409e-05
-1.92315e-07
1.43361e-05
-1.0678e-07
1.43189e-05
2.60443e-08
1.31689e-05
1.61895e-07
1.05002e-05
2.39132e-07
6.74263e-06
2.24098e-07
3.53617e-06
1.6193e-07
1.98228e-06
1.07951e-07
1.41849e-06
7.14317e-08
1.13697e-06
7.27523e-08
8.34164e-07
1.101e-07
4.55302e-07
2.12085e-07
2.49924e-08
3.52234e-07
-3.34498e-07
5.02813e-07
-5.3767e-07
6.15895e-07
-4.61504e-07
7.06153e-07
-3.64022e-07
7.68924e-07
-2.078e-07
8.03545e-07
-2.23124e-08
8.12274e-07
1.66591e-07
7.96355e-07
3.41449e-07
7.57483e-07
4.9311e-07
6.97345e-07
6.21597e-07
6.18185e-07
7.36955e-07
5.22522e-07
8.47541e-07
4.10434e-07
9.71871e-07
2.81361e-07
1.1342e-06
1.42526e-07
1.35232e-06
-1.13786e-08
1.6378e-06
-1.55513e-07
1.92479e-06
-2.88669e-07
2.2266e-06
-4.05421e-07
2.49843e-06
-5.01951e-07
2.70826e-06
-5.77214e-07
2.84261e-06
-6.32728e-07
2.90355e-06
-6.72202e-07
2.90278e-06
-7.00951e-07
2.8571e-06
-7.25089e-07
2.78481e-06
-7.50078e-07
2.70252e-06
-7.78655e-07
2.62189e-06
-8.09302e-07
2.54697e-06
-8.36998e-07
2.4742e-06
-8.56546e-07
2.39609e-06
-8.6613e-07
2.30707e-06
2.20738e-06
-2.97155e-07
1.34107e-05
-2.72166e-07
1.31547e-05
-2.50715e-07
1.29222e-05
-2.31854e-07
1.29392e-05
-2.13352e-07
1.32751e-05
-1.87578e-07
1.38151e-05
-1.37881e-07
1.42864e-05
-4.67439e-08
1.42278e-05
8.06238e-08
1.30415e-05
2.03745e-07
1.03771e-05
2.72997e-07
6.67337e-06
2.79019e-07
3.53015e-06
1.95876e-07
2.06542e-06
1.43161e-07
1.4712e-06
1.11466e-07
1.16867e-06
1.05199e-07
8.4043e-07
1.51646e-07
4.08855e-07
2.58886e-07
-8.22476e-08
3.97858e-07
-4.73469e-07
5.43065e-07
-6.82878e-07
6.52383e-07
-5.70822e-07
7.37883e-07
-4.49522e-07
7.94552e-07
-2.6447e-07
8.2226e-07
-5.00208e-08
8.22481e-07
1.6637e-07
7.97664e-07
3.66266e-07
7.49773e-07
5.41001e-07
6.81217e-07
6.90153e-07
5.93769e-07
8.24403e-07
4.89833e-07
9.51477e-07
3.69337e-07
1.09237e-06
2.32298e-07
1.27124e-06
8.70973e-08
1.49752e-06
-7.56416e-08
1.80054e-06
-2.21991e-07
2.07114e-06
-3.61503e-07
2.36611e-06
-4.84504e-07
2.62143e-06
-5.8583e-07
2.80959e-06
-6.64564e-07
2.92135e-06
-7.22948e-07
2.96193e-06
-7.65642e-07
2.94547e-06
-7.98821e-07
2.89028e-06
-8.2878e-07
2.81477e-06
-8.59934e-07
2.73367e-06
-8.92948e-07
2.6549e-06
-9.24543e-07
2.57857e-06
-9.49783e-07
2.49944e-06
-9.65533e-07
2.41184e-06
-9.72388e-07
2.31392e-06
2.20862e-06
-2.47021e-07
1.33851e-05
-2.28146e-07
1.31358e-05
-2.1168e-07
1.29057e-05
-1.94838e-07
1.29224e-05
-1.74814e-07
1.3255e-05
-1.44134e-07
1.37845e-05
-8.6822e-08
1.42291e-05
1.40961e-08
1.41268e-05
1.53298e-07
1.29023e-05
3.04168e-07
1.02262e-05
3.67185e-07
6.61036e-06
3.34973e-07
3.56236e-06
2.56685e-07
2.14371e-06
2.0267e-07
1.52522e-06
1.65577e-07
1.20576e-06
1.65701e-07
8.40306e-07
2.12448e-07
3.62108e-07
3.17187e-07
-1.86987e-07
4.49859e-07
-6.06141e-07
5.90152e-07
-8.23171e-07
6.94409e-07
-6.7508e-07
7.73156e-07
-5.28269e-07
8.22504e-07
-3.13818e-07
8.41331e-07
-6.88479e-08
8.32584e-07
1.75117e-07
7.98904e-07
3.99946e-07
7.42339e-07
5.97566e-07
6.63947e-07
7.68545e-07
5.67157e-07
9.21192e-07
4.52718e-07
1.06592e-06
3.2446e-07
1.22062e-06
1.83641e-07
1.41206e-06
2.74266e-08
1.65374e-06
-1.28282e-07
1.95625e-06
-2.89445e-07
2.23231e-06
-4.38636e-07
2.5153e-06
-5.68041e-07
2.75084e-06
-6.73368e-07
2.91492e-06
-7.54621e-07
3.0026e-06
-8.15221e-07
3.02253e-06
-8.6098e-07
2.99123e-06
-8.98699e-07
2.928e-06
-9.34179e-07
2.85025e-06
-9.70136e-07
2.76963e-06
-1.00528e-06
2.69004e-06
-1.0356e-06
2.60889e-06
-1.05737e-06
2.52121e-06
-1.06964e-06
2.42411e-06
-1.07451e-06
2.31879e-06
2.20943e-06
-1.99056e-07
1.33642e-05
-1.86272e-07
1.31231e-05
-1.7496e-07
1.28944e-05
-1.60625e-07
1.2908e-05
-1.39842e-07
1.32342e-05
-1.05079e-07
1.37497e-05
-4.09376e-08
1.4165e-05
6.96581e-08
1.40162e-05
2.26578e-07
1.27454e-05
3.87455e-07
1.00653e-05
4.29494e-07
6.56832e-06
3.54653e-07
3.6372e-06
3.16127e-07
2.18224e-06
2.79458e-07
1.56189e-06
2.54341e-07
1.23088e-06
2.48525e-07
8.46122e-07
2.98206e-07
3.12427e-07
3.87086e-07
-2.75867e-07
5.08687e-07
-7.27742e-07
6.43626e-07
-9.5811e-07
7.4131e-07
-7.72764e-07
8.11975e-07
-5.98934e-07
8.50669e-07
-3.52512e-07
8.59466e-07
-7.76455e-08
8.4119e-07
1.93393e-07
7.98647e-07
4.42488e-07
7.33557e-07
6.62657e-07
6.47285e-07
8.54816e-07
5.42225e-07
1.02625e-06
4.21326e-07
1.18681e-06
2.89496e-07
1.35245e-06
1.49946e-07
1.55161e-06
-1.68054e-08
1.82049e-06
-1.82661e-07
2.1221e-06
-3.61597e-07
2.41124e-06
-5.22271e-07
2.67597e-06
-6.57975e-07
2.88654e-06
-7.66314e-07
3.02326e-06
-8.4908e-07
3.08537e-06
-9.1134e-07
3.08479e-06
-9.60065e-07
3.03996e-06
-1.00216e-06
2.97009e-06
-1.04222e-06
2.8903e-06
-1.08098e-06
2.80839e-06
-1.11583e-06
2.7249e-06
-1.14314e-06
2.6362e-06
-1.16096e-06
2.53903e-06
-1.17016e-06
2.43331e-06
-1.17354e-06
2.32217e-06
2.20995e-06
-1.53897e-07
1.33479e-05
-1.4713e-07
1.31163e-05
-1.41121e-07
1.28884e-05
-1.29828e-07
1.28968e-05
-1.0928e-07
1.32137e-05
-7.20072e-08
1.37124e-05
-3.51849e-09
1.40965e-05
1.11159e-07
1.39016e-05
2.72068e-07
1.25845e-05
4.20557e-07
9.91685e-06
4.85344e-07
6.50353e-06
3.9802e-07
3.72452e-06
3.90118e-07
2.19014e-06
3.66704e-07
1.5853e-06
3.45211e-07
1.25237e-06
3.53168e-07
8.38165e-07
3.80192e-07
2.85404e-07
4.54821e-07
-3.50497e-07
5.71031e-07
-8.43951e-07
6.975e-07
-1.08458e-06
7.87843e-07
-8.63108e-07
8.49087e-07
-6.60177e-07
8.75981e-07
-3.79406e-07
8.7421e-07
-7.58745e-08
8.46744e-07
2.20859e-07
7.95578e-07
4.93654e-07
7.22087e-07
7.36148e-07
6.27349e-07
9.49554e-07
5.13754e-07
1.13985e-06
3.8473e-07
1.31584e-06
2.45637e-07
1.49155e-06
1.01078e-07
1.69617e-06
-7.76452e-08
1.99921e-06
-2.68262e-07
2.31272e-06
-4.53826e-07
2.59681e-06
-6.20113e-07
2.84226e-06
-7.5834e-07
3.02477e-06
-8.67097e-07
3.13201e-06
-9.49807e-07
3.16808e-06
-1.01303e-06
3.14802e-06
-1.06441e-06
3.09134e-06
-1.11018e-06
3.01586e-06
-1.15314e-06
2.93326e-06
-1.19234e-06
2.8476e-06
-1.22476e-06
2.75731e-06
-1.24794e-06
2.65938e-06
-1.26177e-06
2.55287e-06
-1.26836e-06
2.43989e-06
-1.27061e-06
2.32443e-06
2.21027e-06
-1.12231e-07
1.33364e-05
-1.11329e-07
1.31154e-05
-1.10707e-07
1.28878e-05
-1.02987e-07
1.2889e-05
-8.37445e-08
1.31945e-05
-4.58544e-08
1.36745e-05
2.40991e-08
1.40265e-05
1.37341e-07
1.37883e-05
2.84594e-07
1.24372e-05
4.04874e-07
9.79657e-06
4.97185e-07
6.41122e-06
4.85745e-07
3.73596e-06
4.7919e-07
2.19669e-06
4.38181e-07
1.62631e-06
4.11563e-07
1.27899e-06
4.02806e-07
8.46921e-07
4.34916e-07
2.53294e-07
5.15922e-07
-4.31502e-07
6.3545e-07
-9.6348e-07
7.53386e-07
-1.20251e-06
8.30941e-07
-9.40663e-07
8.77624e-07
-7.0686e-07
8.94974e-07
-3.96756e-07
8.83884e-07
-6.4784e-08
8.47458e-07
2.57284e-07
7.87692e-07
5.5342e-07
7.05174e-07
8.18666e-07
6.0008e-07
1.05465e-06
4.72881e-07
1.26705e-06
3.25934e-07
1.46278e-06
1.56644e-07
1.66084e-06
-1.1906e-08
1.86472e-06
-2.01744e-07
2.18905e-06
-3.88697e-07
2.49967e-06
-5.72315e-07
2.78042e-06
-7.36236e-07
3.00618e-06
-8.71464e-07
3.16e-06
-9.77182e-07
3.23773e-06
-1.05799e-06
3.24888e-06
-1.12134e-06
3.21137e-06
-1.17466e-06
3.14465e-06
-1.22269e-06
3.06389e-06
-1.26632e-06
2.9769e-06
-1.30355e-06
2.88482e-06
-1.33185e-06
2.78561e-06
-1.35039e-06
2.67792e-06
-1.36054e-06
2.56302e-06
-1.36499e-06
2.44434e-06
-1.36639e-06
2.32583e-06
2.21045e-06
-7.4812e-08
1.33299e-05
-7.94973e-08
1.31201e-05
-8.42e-08
1.28925e-05
-8.04521e-08
1.28853e-05
-6.33583e-08
1.31774e-05
-2.61805e-08
1.36374e-05
4.37426e-08
1.39566e-05
1.55347e-07
1.36767e-05
2.92609e-07
1.23e-05
4.18817e-07
9.67036e-06
5.37554e-07
6.29248e-06
6.10997e-07
3.66252e-06
5.57735e-07
2.24996e-06
5.00081e-07
1.68397e-06
4.69605e-07
1.30946e-06
4.51211e-07
8.65315e-07
4.75738e-07
2.28767e-07
5.82109e-07
-5.37873e-07
7.01235e-07
-1.08261e-06
8.07722e-07
-1.309e-06
8.71104e-07
-1.00405e-06
9.04492e-07
-7.4025e-07
9.09491e-07
-4.01755e-07
8.87923e-07
-4.32157e-08
8.42156e-07
3.03052e-07
7.73296e-07
6.22279e-07