/*--------------------------------*- C++ -*----------------------------------*\
  =========                 |
  \\      /  F ield         | OpenFOAM: The Open Source CFD Toolbox
   \\    /   O peration     | Website:  https://openfoam.org
    \\  /    A nd           | Version:  9
     \\/     M anipulation  |
\*---------------------------------------------------------------------------*/
FoamFile
{
    format      ascii;
    class       volVectorField;
    location    "0.07";
    object      U;
}
// * * * * * * * * * * * * * * * * * * * * * * * * * * * * * * * * * * * * * //

dimensions      [0 1 -1 0 0 0 0];

internalField   nonuniform List<vector> 
5000
(
(-0.339306 0 0.506027)
(-0.346788 0 0.530429)
(-0.34374 0 0.496763)
(-0.338031 0 0.433703)
(-0.340336 0 0.40078)
(-0.353792 0 0.432648)
(-0.372796 0 0.515873)
(-0.393215 0 0.621343)
(-0.412554 0 0.719169)
(-0.404615 0 0.704154)
(-0.302882 0 0.350654)
(-0.0365333 0 -0.473036)
(0.0278801 0 -1.32834)
(0.0152945 0 -1.61336)
(-0.0102123 0 -1.67412)
(-0.0273115 0 -1.67767)
(-0.0266658 0 -1.68326)
(-0.0174205 0 -1.68984)
(-0.0072352 0 -1.69099)
(-0.000656324 0 -1.68947)
(0.00237616 0 -1.68933)
(0.00375365 0 -1.69127)
(0.00449355 0 -1.6945)
(0.00483306 0 -1.69767)
(0.00552173 0 -1.69823)
(0.00759838 0 -1.69267)
(0.0110766 0 -1.67967)
(0.0144914 0 -1.66176)
(0.0147161 0 -1.64056)
(0.00853539 0 -1.61436)
(0.00105262 0 -1.59258)
(0.0172981 0 -1.56285)
(0.0927826 0 -1.4224)
(0.184365 0 -1.20976)
(0.288958 0 -0.953909)
(0.392901 0 -0.69151)
(0.484861 0 -0.453755)
(0.558298 0 -0.261714)
(0.610908 0 -0.124605)
(0.643909 0 -0.0409189)
(0.6608 0 -0.00196163)
(0.665972 0 0.00405563)
(0.66361 0 -0.0112322)
(0.657088 0 -0.0382283)
(0.648799 0 -0.0700204)
(0.640248 0 -0.102212)
(0.63227 0 -0.132374)
(0.625193 0 -0.159438)
(0.619371 0 -0.183279)
(0.612294 0 -0.205595)
(-0.336571 0 0.512579)
(-0.341053 0 0.530927)
(-0.335281 0 0.493119)
(-0.327759 0 0.432106)
(-0.328587 0 0.405426)
(-0.33967 0 0.442383)
(-0.35527 0 0.527588)
(-0.371726 0 0.632637)
(-0.382749 0 0.717476)
(-0.357415 0 0.656244)
(-0.242112 0 0.238424)
(0.00809352 0 -0.582999)
(0.0725429 0 -1.34075)
(0.0201719 0 -1.59168)
(-0.0165573 0 -1.65966)
(-0.0298347 0 -1.67293)
(-0.0257702 0 -1.68729)
(-0.0154229 0 -1.69698)
(-0.00580851 0 -1.69658)
(-0.000716764 0 -1.69234)
(0.000639405 0 -1.69055)
(0.000822859 0 -1.69176)
(0.000720813 0 -1.6945)
(-4.96182e-05 0 -1.69758)
(-0.00148969 0 -1.6992)
(-0.00224051 0 -1.69566)
(-0.000775242 0 -1.68396)
(0.00209278 0 -1.66423)
(0.00251238 0 -1.63617)
(-0.00170845 0 -1.60357)
(-0.00279031 0 -1.60264)
(0.0298732 0 -1.63251)
(0.0937387 0 -1.52794)
(0.155943 0 -1.34172)
(0.228245 0 -1.10323)
(0.309916 0 -0.843622)
(0.389996 0 -0.594126)
(0.459672 0 -0.379166)
(0.514329 0 -0.213065)
(0.552866 0 -0.099571)
(0.576731 0 -0.0340565)
(0.588829 0 -0.00701153)
(0.592488 0 -0.00740611)
(0.590746 0 -0.0250762)
(0.586003 0 -0.0519494)
(0.579951 0 -0.0823379)
(0.573665 0 -0.11267)
(0.567715 0 -0.140997)
(0.562593 0 -0.166581)
(0.556091 0 -0.190298)
(-0.333425 0 0.517446)
(-0.33497 0 0.52957)
(-0.326629 0 0.488026)
(-0.317483 0 0.429443)
(-0.317061 0 0.408828)
(-0.326305 0 0.450395)
(-0.339593 0 0.53715)
(-0.353469 0 0.640156)
(-0.358447 0 0.708554)
(-0.320373 0 0.600582)
(-0.196825 0 0.124016)
(0.0191192 0 -0.680622)
(0.1252 0 -1.40968)
(0.0301892 0 -1.54654)
(-0.0137665 0 -1.64452)
(-0.0232182 0 -1.67224)
(-0.016787 0 -1.69312)
(-0.00800559 0 -1.70386)
(-0.00146045 0 -1.70099)
(0.000776054 0 -1.69374)
(-0.000316244 0 -1.69042)
(-0.00177325 0 -1.69131)
(-0.00260089 0 -1.6936)
(-0.00379426 0 -1.6954)
(-0.00767447 0 -1.69588)
(-0.0147666 0 -1.69279)
(-0.0210208 0 -1.6827)
(-0.0214355 0 -1.66326)
(-0.0153843 0 -1.63284)
(-0.00632817 0 -1.60293)
(0.00741388 0 -1.62983)
(0.066147 0 -1.72139)
(0.105352 0 -1.59577)
(0.13419 0 -1.42146)
(0.182936 0 -1.20755)
(0.244976 0 -0.963504)
(0.310498 0 -0.71543)
(0.371769 0 -0.489349)
(0.423534 0 -0.303665)
(0.463264 0 -0.166798)
(0.490827 0 -0.0781727)
(0.507745 0 -0.0310621)
(0.516344 0 -0.0158073)
(0.519059 0 -0.0224517)
(0.518024 0 -0.0423807)
(0.514885 0 -0.0690198)
(0.510801 0 -0.0978634)
(0.506485 0 -0.126154)
(0.502501 0 -0.15248)
(0.497053 0 -0.176666)
(-0.329897 0 0.520666)
(-0.328582 0 0.526389)
(-0.31787 0 0.481579)
(-0.307382 0 0.425903)
(-0.306053 0 0.411338)
(-0.314034 0 0.457241)
(-0.325985 0 0.545331)
(-0.338508 0 0.645105)
(-0.339617 0 0.694784)
(-0.294935 0 0.542637)
(-0.176657 0 0.0192747)
(0.0173485 0 -0.785651)
(0.185958 0 -1.4422)
(0.0718488 0 -1.47805)
(0.0126103 0 -1.62233)
(0.00177814 0 -1.67311)
(0.00560822 0 -1.69796)
(0.00683597 0 -1.70759)
(0.00627742 0 -1.70249)
(0.004281 0 -1.69285)
(0.000198632 0 -1.68846)
(-0.00352919 0 -1.68981)
(-0.00512641 0 -1.69256)
(-0.00469508 0 -1.69242)
(-0.00707303 0 -1.68802)
(-0.0181422 0 -1.68162)
(-0.032199 0 -1.67511)
(-0.0349839 0 -1.66736)
(-0.0195528 0 -1.6547)
(0.00953368 0 -1.64065)
(0.0466333 0 -1.68139)
(0.0666758 0 -1.76147)
(0.0615701 0 -1.62139)
(0.0977997 0 -1.47263)
(0.141735 0 -1.28205)
(0.190836 0 -1.05517)
(0.243298 0 -0.814631)
(0.294714 0 -0.585651)
(0.340675 0 -0.3886)
(0.378305 0 -0.235198)
(0.406586 0 -0.128277)
(0.42601 0 -0.0638359)
(0.437976 0 -0.0339217)
(0.44424 0 -0.0292957)
(0.446512 0 -0.0413126)
(0.446231 0 -0.0629229)
(0.444495 0 -0.0889669)
(0.442053 0 -0.116026)
(0.439468 0 -0.142036)
(0.435416 0 -0.165639)
(-0.325949 0 0.522276)
(-0.321886 0 0.521526)
(-0.30907 0 0.473978)
(-0.297561 0 0.421696)
(-0.295661 0 0.413261)
(-0.302916 0 0.463491)
(-0.314332 0 0.55294)
(-0.326382 0 0.64865)
(-0.325252 0 0.678603)
(-0.277139 0 0.486423)
(-0.163781 0 -0.0727643)
(0.00547346 0 -0.896153)
(0.106844 0 -1.4652)
(0.102414 0 -1.41439)
(0.0582427 0 -1.58743)
(0.0506083 0 -1.66395)
(0.0416305 0 -1.69476)
(0.0267989 0 -1.70362)
(0.0157198 0 -1.699)
(0.00952174 0 -1.68908)
(0.00268724 0 -1.68426)
(-0.00387385 0 -1.68685)
(-0.00707019 0 -1.69237)
(-0.0036701 0 -1.69323)
(0.00186258 0 -1.68285)
(-0.0035978 0 -1.66892)
(-0.0164209 0 -1.66724)
(-0.0140709 0 -1.68064)
(0.00753148 0 -1.69411)
(0.0402496 0 -1.69137)
(0.0607918 0 -1.6978)
(0.0224441 0 -1.74215)
(0.0263022 0 -1.66306)
(0.0776968 0 -1.5318)
(0.115697 0 -1.3459)
(0.151353 0 -1.12735)
(0.189957 0 -0.893755)
(0.229954 0 -0.665757)
(0.267798 0 -0.463128)
(0.300651 0 -0.299145)
(0.327035 0 -0.178965)
(0.346703 0 -0.100812)
(0.360275 0 -0.0583977)
(0.368841 0 -0.0434263)
(0.373625 0 -0.0475619)
(0.375758 0 -0.0636206)
(0.376174 0 -0.0860655)
(0.375561 0 -0.111003)
(0.374416 0 -0.13578)
(0.371848 0 -0.157874)
(-0.321483 0 0.522299)
(-0.314828 0 0.515128)
(-0.300245 0 0.465447)
(-0.288061 0 0.417053)
(-0.285873 0 0.414853)
(-0.292787 0 0.469508)
(-0.30418 0 0.56048)
(-0.316123 0 0.651598)
(-0.313603 0 0.6616)
(-0.264423 0 0.433358)
(-0.155656 0 -0.156028)
(-0.0127541 0 -0.977038)
(-0.0460959 0 -1.483)
(0.0367257 0 -1.43211)
(0.0770402 0 -1.57768)
(0.0886759 0 -1.64979)
(0.0710224 0 -1.68096)
(0.0411004 0 -1.69021)
(0.0224308 0 -1.69077)
(0.0154551 0 -1.68328)
(0.0074204 0 -1.67794)
(-0.00184842 0 -1.68155)
(-0.00818115 0 -1.69251)
(-0.00410423 0 -1.70139)
(0.00944532 0 -1.69006)
(0.0150695 0 -1.66537)
(0.0121127 0 -1.66354)
(0.0206569 0 -1.69077)
(0.0428041 0 -1.71988)
(0.0983481 0 -1.70077)
(0.0762629 0 -1.65364)
(0.0358071 0 -1.69683)
(-0.000768421 0 -1.69335)
(0.0350405 0 -1.60979)
(0.0932792 0 -1.40617)
(0.122155 0 -1.18183)
(0.147849 0 -0.952004)
(0.176275 0 -0.727308)
(0.204949 0 -0.523643)
(0.231376 0 -0.354245)
(0.253986 0 -0.225648)
(0.272069 0 -0.137741)
(0.285645 0 -0.0856601)
(0.295221 0 -0.0620801)
(0.301546 0 -0.0591597)
(0.305401 0 -0.0698258)
(0.307492 0 -0.0883954)
(0.308385 0 -0.110657)
(0.308487 0 -0.133411)
(0.307349 0 -0.153093)
(-0.316364 0 0.520771)
(-0.307339 0 0.507376)
(-0.291378 0 0.456215)
(-0.278851 0 0.412176)
(-0.276582 0 0.416316)
(-0.283361 0 0.475509)
(-0.294934 0 0.568133)
(-0.306785 0 0.654226)
(-0.303069 0 0.644051)
(-0.252991 0 0.381761)
(-0.139485 0 -0.234668)
(-0.0252062 0 -1.0108)
(-0.110704 0 -1.48786)
(-0.0762803 0 -1.47857)
(0.0219416 0 -1.62938)
(0.0618036 0 -1.66003)
(0.0629047 0 -1.66733)
(0.0369426 0 -1.67416)
(0.0231092 0 -1.68338)
(0.021051 0 -1.67849)
(0.0141115 0 -1.67078)
(0.0037306 0 -1.6738)
(-0.0057162 0 -1.69081)
(-0.00463861 0 -1.71161)
(0.0070683 0 -1.70367)
(0.0146438 0 -1.66801)
(0.0160139 0 -1.6659)
(0.0298957 0 -1.70628)
(0.0464789 0 -1.77361)
(0.0370625 0 -1.69824)
(0.0637928 0 -1.64915)
(0.0747885 0 -1.66277)
(0.0619856 0 -1.68155)
(0.0522563 0 -1.66435)
(0.0686301 0 -1.45768)
(0.0924164 0 -1.22227)
(0.111125 0 -0.991219)
(0.129944 0 -0.770077)
(0.149924 0 -0.568549)
(0.169643 0 -0.397943)
(0.187681 0 -0.265212)
(0.203115 0 -0.171353)
(0.215573 0 -0.112614)
(0.225118 0 -0.0825434)
(0.232083 0 -0.073854)
(0.236917 0 -0.0797339)
(0.240081 0 -0.0945362)
(0.241959 0 -0.11392)
(0.242793 0 -0.134405)
(0.242418 0 -0.15182)
(-0.310438 0 0.517757)
(-0.299339 0 0.498493)
(-0.282421 0 0.446529)
(-0.269849 0 0.407235)
(-0.267622 0 0.417762)
(-0.274313 0 0.481562)
(-0.286023 0 0.575843)
(-0.297637 0 0.656479)
(-0.29276 0 0.62576)
(-0.243222 0 0.33034)
(-0.139633 0 -0.304175)
(-0.0594607 0 -1.01812)
(-0.101658 0 -1.46531)
(0.00690542 0 -1.53892)
(0.0259243 0 -1.6648)
(0.00688222 0 -1.67205)
(0.0227024 0 -1.66051)
(0.0210741 0 -1.66635)
(0.0209729 0 -1.68263)
(0.0245578 0 -1.67694)
(0.0206729 0 -1.66487)
(0.0133309 0 -1.66614)
(0.00713399 0 -1.68565)
(0.00838664 0 -1.71166)
(0.00418211 0 -1.70464)
(0.00154918 0 -1.66829)
(0.00891189 0 -1.67934)
(0.0384001 0 -1.73721)
(0.0191873 0 -1.76534)
(0.0309676 0 -1.72505)
(0.052742 0 -1.68684)
(0.0741228 0 -1.67274)
(0.0819867 0 -1.66917)
(0.0716235 0 -1.65186)
(0.0636821 0 -1.47522)
(0.0693859 0 -1.24521)
(0.078192 0 -1.01485)
(0.0884677 0 -0.797043)
(0.10078 0 -0.599081)
(0.114271 0 -0.430058)
(0.127711 0 -0.296498)
(0.140112 0 -0.199888)
(0.15087 0 -0.13722)
(0.159732 0 -0.10273)
(0.166699 0 -0.0896469)
(0.171926 0 -0.0914719)
(0.175634 0 -0.102677)
(0.17796 0 -0.118811)
(0.178843 0 -0.135942)
(0.178205 0 -0.149475)
(-0.30356 0 0.513371)
(-0.29076 0 0.488738)
(-0.273316 0 0.436626)
(-0.260944 0 0.402349)
(-0.258802 0 0.419216)
(-0.26533 0 0.487609)
(-0.276934 0 0.58343)
(-0.288044 0 0.658317)
(-0.282411 0 0.607683)
(-0.237995 0 0.283329)
(-0.163842 0 -0.354388)
(-0.130463 0 -1.03774)
(-0.0648591 0 -1.4987)
(0.0580243 0 -1.58566)
(0.0389359 0 -1.65067)
(-0.0462636 0 -1.66704)
(0.0127983 0 -1.66937)
(0.022515 0 -1.66589)
(0.0185906 0 -1.68221)
(0.0191245 0 -1.67508)
(0.0227795 0 -1.66165)
(0.0287662 0 -1.66296)
(0.0405541 0 -1.68058)
(0.0506625 0 -1.70204)
(0.0250546 0 -1.69371)
(-0.00230003 0 -1.6729)
(0.0187428 0 -1.71821)
(0.0326674 0 -1.75234)
(0.0323386 0 -1.7554)
(0.0364329 0 -1.74048)
(0.0495865 0 -1.71737)
(0.0664419 0 -1.69472)
(0.0747752 0 -1.67182)
(0.0651069 0 -1.63091)
(0.0509734 0 -1.46214)
(0.0443347 0 -1.24722)
(0.0453211 0 -1.02418)
(0.0493388 0 -0.811168)
(0.0557475 0 -0.617691)
(0.0640902 0 -0.451967)
(0.0734661 0 -0.31988)
(0.082976 0 -0.222973)
(0.0919285 0 -0.158639)
(0.0998837 0 -0.121592)
(0.106622 0 -0.105477)
(0.1121 0 -0.104099)
(0.116395 0 -0.112043)
(0.119325 0 -0.124677)
(0.119291 0 -0.137791)
(0.114331 0 -0.148253)
(-0.29562 0 0.507778)
(-0.281552 0 0.478392)
(-0.264005 0 0.426722)
(-0.252019 0 0.397588)
(-0.249933 0 0.420631)
(-0.256122 0 0.493502)
(-0.267168 0 0.59063)
(-0.277053 0 0.659564)
(-0.269463 0 0.590992)
(-0.226629 0 0.246476)
(-0.168662 0 -0.382495)
(-0.111723 0 -1.0812)
(-0.0429173 0 -1.56248)
(-0.0188882 0 -1.61534)
(0.00436852 0 -1.6197)
(0.0197107 0 -1.6422)
(0.0355001 0 -1.70745)
(0.0296923 0 -1.66689)
(0.00943078 0 -1.67751)
(-0.00089192 0 -1.6735)
(0.0204034 0 -1.66707)
(0.0546838 0 -1.67354)
(0.0907181 0 -1.69103)
(0.103964 0 -1.70025)
(0.0692987 0 -1.66909)
(0.0354948 0 -1.67187)
(0.0436073 0 -1.73426)
(0.0500195 0 -1.74635)
(0.0466132 0 -1.75131)
(0.0456366 0 -1.7477)
(0.0511014 0 -1.73225)
(0.0581546 0 -1.70664)
(0.059029 0 -1.6689)
(0.0432456 0 -1.60645)
(0.0249929 0 -1.43958)
(0.0153601 0 -1.23758)
(0.0121644 0 -1.02333)
(0.0119105 0 -0.815818)
(0.0140235 0 -0.627134)
(0.0183492 0 -0.465586)
(0.0243423 0 -0.336461)
(0.0312873 0 -0.241053)
(0.0385086 0 -0.176874)
(0.0454819 0 -0.138931)
(0.051857 0 -0.12121)
(0.0574394 0 -0.117742)
(0.0621791 0 -0.122989)
(0.0657259 0 -0.130985)
(0.0653568 0 -0.132538)
(0.0555144 0 -0.110674)
(-0.286562 0 0.501199)
(-0.271697 0 0.467744)
(-0.254435 0 0.417008)
(-0.242965 0 0.392988)
(-0.240852 0 0.421915)
(-0.24646 0 0.499008)
(-0.256371 0 0.597008)
(-0.263955 0 0.659425)
(-0.25276 0 0.57404)
(-0.205262 0 0.212289)
(-0.135321 0 -0.416644)
(-0.0359184 0 -1.12638)
(0.00894832 0 -1.57461)
(-0.00171561 0 -1.61665)
(-0.0137973 0 -1.62771)
(0.0080465 0 -1.66219)
(0.00133677 0 -1.73428)
(0.0108159 0 -1.65945)
(0.00562042 0 -1.67144)
(-0.00427017 0 -1.68327)
(0.0198784 0 -1.69756)
(0.0559376 0 -1.71681)
(0.0795713 0 -1.71976)
(0.0885677 0 -1.69304)
(0.0964462 0 -1.62629)
(0.0918198 0 -1.65419)
(0.0779928 0 -1.71941)
(0.0673854 0 -1.74044)
(0.062927 0 -1.74926)
(0.0595925 0 -1.74873)
(0.0572535 0 -1.73505)
(0.0544476 0 -1.70533)
(0.0465141 0 -1.65561)
(0.0277356 0 -1.57571)
(0.00654132 0 -1.41577)
(-0.00823544 0 -1.22263)
(-0.0169058 0 -1.01548)
(-0.0217184 0 -0.813176)
(-0.0236351 0 -0.629276)
(-0.0229267 0 -0.472344)
(-0.0200151 0 -0.347124)
(-0.0155254 0 -0.254479)
(-0.0101373 0 -0.191819)
(-0.00445469 0 -0.154289)
(0.00107074 0 -0.136092)
(0.00604728 0 -0.131334)
(0.0100885 0 -0.133887)
(0.0125622 0 -0.135514)
(0.0111626 0 -0.122566)
(0.00151644 0 -0.0785351)
(-0.276395 0 0.493888)
(-0.261208 0 0.457076)
(-0.244573 0 0.407641)
(-0.233703 0 0.38855)
(-0.231463 0 0.422945)
(-0.236264 0 0.503844)
(-0.244632 0 0.602067)
(-0.249376 0 0.656991)
(-0.234757 0 0.554211)
(-0.184619 0 0.172622)
(-0.10127 0 -0.474813)
(-0.0111268 0 -1.16651)
(-0.0462889 0 -1.56805)
(-0.0657362 0 -1.60916)
(-0.0448204 0 -1.64023)
(-0.0259833 0 -1.67219)
(-0.0403075 0 -1.70712)
(-0.0323925 0 -1.65608)
(-0.0177277 0 -1.66435)
(-0.00115821 0 -1.69518)
(0.0275843 0 -1.73555)
(0.0528081 0 -1.75678)
(0.0710192 0 -1.75159)
(0.0850922 0 -1.70327)
(0.110282 0 -1.64304)
(0.133741 0 -1.65334)
(0.130897 0 -1.69789)
(0.111002 0 -1.72513)
(0.0936598 0 -1.7374)
(0.0800293 0 -1.73867)
(0.0678279 0 -1.72563)
(0.0559132 0 -1.69254)
(0.0407886 0 -1.63339)
(0.0180635 0 -1.54153)
(-0.00708057 0 -1.38527)
(-0.027235 0 -1.19942)
(-0.0414158 0 -0.999294)
(-0.0510551 0 -0.802846)
(-0.057065 0 -0.624338)
(-0.0598684 0 -0.472641)
(-0.0599229 0 -0.352108)
(-0.0578651 0 -0.263147)
(-0.054412 0 -0.202947)
(-0.0502393 0 -0.166662)
(-0.0459185 0 -0.14855)
(-0.0420092 0 -0.142514)
(-0.0391979 0 -0.14144)
(-0.0384764 0 -0.135208)
(-0.0415805 0 -0.110005)
(-0.0490777 0 -0.0595211)
(-0.265187 0 0.486119)
(-0.25013 0 0.44665)
(-0.234407 0 0.398748)
(-0.224191 0 0.384264)
(-0.221742 0 0.423613)
(-0.225578 0 0.507803)
(-0.232255 0 0.605568)
(-0.234358 0 0.652331)
(-0.217523 0 0.531953)
(-0.169626 0 0.129537)
(-0.101793 0 -0.533397)
(-0.0513289 0 -1.18943)
(-0.0822697 0 -1.54327)
(-0.1049 0 -1.61577)
(-0.0747876 0 -1.65151)
(-0.0681546 0 -1.67459)
(-0.0821308 0 -1.69511)
(-0.0734022 0 -1.67446)
(-0.0417008 0 -1.68582)
(-0.00389638 0 -1.71561)
(0.0295442 0 -1.74552)
(0.0509512 0 -1.75661)
(0.065605 0 -1.74965)
(0.0789099 0 -1.7237)
(0.10287 0 -1.685)
(0.131576 0 -1.67422)
(0.141044 0 -1.68967)
(0.130156 0 -1.70591)
(0.111779 0 -1.71579)
(0.0923132 0 -1.71705)
(0.0730462 0 -1.70461)
(0.0546406 0 -1.67036)
(0.0360487 0 -1.60507)
(0.00893251 0 -1.50008)
(-0.0207219 0 -1.34724)
(-0.0444665 0 -1.167)
(-0.0634169 0 -0.974048)
(-0.0774505 0 -0.784434)
(-0.0871942 0 -0.612284)
(-0.0931745 0 -0.466635)
(-0.0959214 0 -0.351549)
(-0.0961141 0 -0.267015)
(-0.0945158 0 -0.209964)
(-0.0918731 0 -0.17546)
(-0.0888877 0 -0.157639)
(-0.0863054 0 -0.14992)
(-0.0850576 0 -0.144204)
(-0.0862402 0 -0.129801)
(-0.0906451 0 -0.0950977)
(-0.097065 0 -0.0367363)
(-0.253067 0 0.478162)
(-0.238537 0 0.43669)
(-0.223949 0 0.390425)
(-0.21442 0 0.380118)
(-0.211704 0 0.423849)
(-0.214459 0 0.510803)
(-0.219347 0 0.607571)
(-0.21911 0 0.646239)
(-0.201194 0 0.510308)
(-0.161409 0 0.0945091)
(-0.124649 0 -0.56239)
(-0.0958023 0 -1.20489)
(-0.0899217 0 -1.52516)
(-0.110451 0 -1.62268)
(-0.0947257 0 -1.65686)
(-0.0994347 0 -1.67325)
(-0.107565 0 -1.69374)
(-0.0916049 0 -1.69463)
(-0.0529882 0 -1.71525)
(-0.00943674 0 -1.743)
(0.0250636 0 -1.76425)
(0.0472506 0 -1.76947)
(0.0635438 0 -1.76127)
(0.0781765 0 -1.74061)
(0.0976355 0 -1.71221)
(0.119273 0 -1.69421)
(0.129937 0 -1.69056)
(0.125354 0 -1.69254)
(0.110607 0 -1.69409)
(0.0904049 0 -1.69058)
(0.0670394 0 -1.67551)
(0.0416709 0 -1.63891)
(0.0147899 0 -1.56848)
(-0.0127272 0 -1.45443)
(-0.0395858 0 -1.30527)
(-0.0642114 0 -1.12827)
(-0.0856883 0 -0.941698)
(-0.102657 0 -0.759169)
(-0.115218 0 -0.594028)
(-0.12373 0 -0.455081)
(-0.128693 0 -0.346051)
(-0.130796 0 -0.266511)
(-0.130836 0 -0.213099)
(-0.129637 0 -0.180673)
(-0.128052 0 -0.163035)
(-0.127045 0 -0.152917)
(-0.127729 0 -0.141581)
(-0.131045 0 -0.11933)
(-0.136647 0 -0.0791496)
(-0.141981 0 -0.0249643)
(-0.2402 0 0.470261)
(-0.226525 0 0.427382)
(-0.213235 0 0.382746)
(-0.204409 0 0.376105)
(-0.201372 0 0.423606)
(-0.202923 0 0.512798)
(-0.205785 0 0.608155)
(-0.203022 0 0.639242)
(-0.183946 0 0.491504)
(-0.148157 0 0.0716391)
(-0.116616 0 -0.57345)
(-0.0753268 0 -1.21868)
(-0.0808578 0 -1.51307)
(-0.105766 0 -1.62212)
(-0.103387 0 -1.65494)
(-0.112941 0 -1.67023)
(-0.115595 0 -1.69608)
(-0.0956309 0 -1.71435)
(-0.0562727 0 -1.74333)
(-0.0129539 0 -1.77123)
(0.0223923 0 -1.7875)
(0.0470524 0 -1.78852)
(0.0661431 0 -1.77719)
(0.081925 0 -1.7556)
(0.0970347 0 -1.72921)
(0.110529 0 -1.70726)
(0.117068 0 -1.69256)
(0.11359 0 -1.68286)
(0.100987 0 -1.67436)
(0.0813155 0 -1.66274)
(0.0564061 0 -1.64133)
(0.0276297 0 -1.59982)
(-0.00311439 0 -1.5261)
(-0.0319131 0 -1.41257)
(-0.0601025 0 -1.26153)
(-0.0865064 0 -1.08835)
(-0.108441 0 -0.906033)
(-0.127017 0 -0.729587)
(-0.141553 0 -0.571308)
(-0.151978 0 -0.439266)
(-0.158679 0 -0.336606)
(-0.162324 0 -0.26239)
(-0.163741 0 -0.212864)
(-0.163843 0 -0.182509)
(-0.163661 0 -0.164545)
(-0.164361 0 -0.150977)
(-0.16707 0 -0.133107)
(-0.172292 0 -0.10379)
(-0.178725 0 -0.0618261)
(-0.183204 0 -0.0164646)
(-0.226777 0 0.462624)
(-0.214208 0 0.418866)
(-0.202324 0 0.375758)
(-0.194208 0 0.372213)
(-0.190803 0 0.422829)
(-0.191014 0 0.513676)
(-0.191543 0 0.607175)
(-0.185648 0 0.630952)
(-0.163988 0 0.473544)
(-0.125451 0 0.0500962)
(-0.0830438 0 -0.591756)
(-0.0453283 0 -1.22364)
(-0.0705432 0 -1.50183)
(-0.079409 0 -1.61452)
(-0.0994545 0 -1.64655)
(-0.111947 0 -1.66657)
(-0.111516 0 -1.70111)
(-0.0902389 0 -1.73458)
(-0.0528607 0 -1.77045)
(-0.0109932 0 -1.79891)
(0.0245161 0 -1.81128)
(0.050719 0 -1.80811)
(0.0712748 0 -1.79334)
(0.0872132 0 -1.7694)
(0.0993482 0 -1.74112)
(0.107363 0 -1.71461)
(0.10945 0 -1.69207)
(0.104144 0 -1.67316)
(0.0913773 0 -1.65521)
(0.0719364 0 -1.63477)
(0.0471304 0 -1.60575)
(0.0184489 0 -1.55835)
(-0.013434 0 -1.48075)
(-0.0469577 0 -1.36787)
(-0.0775357 0 -1.21673)
(-0.104511 0 -1.04808)
(-0.128489 0 -0.868695)
(-0.149178 0 -0.697176)
(-0.165664 0 -0.545335)
(-0.177814 0 -0.420198)
(-0.186022 0 -0.32406)
(-0.190995 0 -0.255326)
(-0.193642 0 -0.209694)
(-0.195028 0 -0.181049)
(-0.196383 0 -0.161877)
(-0.198977 0 -0.143763)
(-0.203689 0 -0.119144)
(-0.210332 0 -0.0847205)
(-0.216939 0 -0.0446178)
(-0.220572 0 -0.00981754)
(-0.212999 0 0.455412)
(-0.201716 0 0.41124)
(-0.191304 0 0.36949)
(-0.183906 0 0.368431)
(-0.180119 0 0.421463)
(-0.178918 0 0.51329)
(-0.176982 0 0.604339)
(-0.167747 0 0.62053)
(-0.142998 0 0.452895)
(-0.0992484 0 0.0210038)
(-0.046407 0 -0.620252)
(-0.0170079 0 -1.22077)
(-0.0376169 0 -1.49304)
(-0.0587715 0 -1.59794)
(-0.0911132 0 -1.63355)
(-0.103213 0 -1.66308)
(-0.099699 0 -1.70789)
(-0.0793666 0 -1.7536)
(-0.0449916 0 -1.79632)
(-0.00488081 0 -1.82571)
(0.0301879 0 -1.8353)
(0.0570447 0 -1.82838)
(0.0779354 0 -1.80965)
(0.0930057 0 -1.78195)
(0.102768 0 -1.7495)
(0.107055 0 -1.71756)
(0.105435 0 -1.68825)
(0.0977171 0 -1.66173)
(0.0837511 0 -1.63543)
(0.0639144 0 -1.60691)
(0.0391323 0 -1.57047)
(0.0103201 0 -1.51671)
(-0.0215637 0 -1.43366)
(-0.0544291 0 -1.31877)
(-0.087659 0 -1.16973)
(-0.118619 0 -1.00323)
(-0.145943 0 -0.827555)
(-0.169125 0 -0.661248)
(-0.187641 0 -0.516074)
(-0.201465 0 -0.398123)
(-0.211063 0 -0.308756)
(-0.217252 0 -0.245599)
(-0.221095 0 -0.203635)
(-0.223864 0 -0.17599)
(-0.226942 0 -0.154548)
(-0.231481 0 -0.131277)
(-0.237812 0 -0.100999)
(-0.245018 0 -0.0645801)
(-0.250969 0 -0.0293983)
(-0.253557 0 -0.00493397)
(-0.199069 0 0.448746)
(-0.189187 0 0.404567)
(-0.180285 0 0.36396)
(-0.173633 0 0.364767)
(-0.169514 0 0.419495)
(-0.166955 0 0.511589)
(-0.162724 0 0.599569)
(-0.150618 0 0.607853)
(-0.123965 0 0.4292)
(-0.0798113 0 -0.0125655)
(-0.0264299 0 -0.652872)
(-0.0140102 0 -1.21825)
(-0.0399884 0 -1.48527)
(-0.0589312 0 -1.57949)
(-0.0817685 0 -1.62101)
(-0.0898693 0 -1.66106)
(-0.085751 0 -1.71463)
(-0.0675651 0 -1.77058)
(-0.0352801 0 -1.82068)
(0.00339706 0 -1.85185)
(0.0380551 0 -1.85935)
(0.064709 0 -1.84876)
(0.0850021 0 -1.82531)
(0.0985951 0 -1.79269)
(0.106021 0 -1.75509)
(0.107573 0 -1.71717)
(0.103103 0 -1.68137)
(0.0928158 0 -1.64803)
(0.0772489 0 -1.61453)
(0.056774 0 -1.57875)
(0.0317337 0 -1.53515)
(0.00266021 0 -1.47461)
(-0.0301887 0 -1.38579)
(-0.0662234 0 -1.26594)
(-0.102017 0 -1.1179)
(-0.134114 0 -0.952646)
(-0.163433 0 -0.781417)
(-0.188522 0 -0.621219)
(-0.20868 0 -0.483399)
(-0.223865 0 -0.373154)
(-0.234609 0 -0.290872)
(-0.241865 0 -0.233283)
(-0.246898 0 -0.194505)
(-0.25117 0 -0.166929)
(-0.256066 0 -0.142394)
(-0.262354 0 -0.11436)
(-0.269676 0 -0.0808232)
(-0.276635 0 -0.0458796)
(-0.281468 0 -0.0174552)
(-0.283128 0 -0.00172682)
(-0.185177 0 0.442709)
(-0.176763 0 0.398883)
(-0.169395 0 0.359191)
(-0.16354 0 0.361255)
(-0.1592 0 0.416987)
(-0.155444 0 0.508692)
(-0.149222 0 0.593143)
(-0.134891 0 0.593735)
(-0.107579 0 0.405278)
(-0.0699431 0 -0.0413188)
(-0.0362116 0 -0.675235)
(-0.0257892 0 -1.21489)
(-0.0478266 0 -1.47607)
(-0.0600919 0 -1.56737)
(-0.0739035 0 -1.61316)
(-0.0787249 0 -1.66077)
(-0.0746245 0 -1.72089)
(-0.0564471 0 -1.78719)
(-0.0241969 0 -1.84424)
(0.0133009 0 -1.87736)
(0.0468926 0 -1.88289)
(0.0726977 0 -1.86853)
(0.0920247 0 -1.83995)
(0.104228 0 -1.80163)
(0.109614 0 -1.75833)
(0.108745 0 -1.71423)
(0.101944 0 -1.67193)
(0.0895609 0 -1.63204)
(0.0721141 0 -1.59211)
(0.0502007 0 -1.54978)
(0.0240744 0 -1.49928)
(-0.00604171 0 -1.43142)
(-0.0392739 0 -1.33632)
(-0.0765726 0 -1.20884)
(-0.115318 0 -1.06309)
(-0.149972 0 -0.898486)
(-0.181452 0 -0.731517)
(-0.208237 0 -0.577907)
(-0.229695 0 -0.44798)
(-0.2459 0 -0.345853)
(-0.257526 0 -0.270797)
(-0.265727 0 -0.218485)
(-0.271987 0 -0.182111)
(-0.277862 0 -0.153663)
(-0.284512 0 -0.125807)
(-0.292135 0 -0.0944352)
(-0.29979 0 -0.0606144)
(-0.306014 0 -0.029947)
(-0.309703 0 -0.00878704)
(-0.310733 0 0.00023263)
(-0.171503 0 0.437357)
(-0.16459 0 0.394209)
(-0.158768 0 0.355208)
(-0.153781 0 0.357962)
(-0.149358 0 0.414053)
(-0.144596 0 0.504803)
(-0.13658 0 0.585415)
(-0.120199 0 0.578931)
(-0.0916961 0 0.383539)
(-0.0569568 0 -0.0615341)
(-0.0311117 0 -0.682877)
(-0.0145146 0 -1.21206)
(-0.0367718 0 -1.46308)
(-0.0502681 0 -1.55922)
(-0.0640628 0 -1.60807)
(-0.0697653 0 -1.6608)
(-0.0656366 0 -1.72815)
(-0.0450154 0 -1.80513)
(-0.0123941 0 -1.86772)
(0.0240898 0 -1.90203)
(0.0565456 0 -1.9056)
(0.0812859 0 -1.8874)
(0.0992703 0 -1.85343)
(0.109864 0 -1.80901)
(0.113314 0 -1.75944)
(0.110235 0 -1.70894)
(0.101179 0 -1.66014)
(0.0866233 0 -1.61375)
(0.0670678 0 -1.5674)
(0.0431018 0 -1.51883)
(0.0150607 0 -1.46155)
(-0.0174807 0 -1.38612)
(-0.052367 0 -1.28501)
(-0.0910519 0 -1.14824)
(-0.131572 0 -1.00517)
(-0.167394 0 -0.841439)
(-0.20051 0 -0.678807)
(-0.228685 0 -0.532224)
(-0.251149 0 -0.410652)
(-0.268099 0 -0.316896)
(-0.28043 0 -0.248929)
(-0.289544 0 -0.201253)
(-0.297101 0 -0.166307)
(-0.304575 0 -0.136318)
(-0.312692 0 -0.105682)
(-0.321062 0 -0.0730686)
(-0.328464 0 -0.0416883)
(-0.333737 0 -0.0169201)
(-0.336475 0 -0.00257622)
(-0.337131 0 0.00146185)
(-0.158213 0 0.432728)
(-0.152808 0 0.390555)
(-0.148543 0 0.352041)
(-0.144501 0 0.354967)
(-0.140143 0 0.410814)
(-0.134558 0 0.500072)
(-0.124853 0 0.576504)
(-0.10619 0 0.56317)
(-0.0752657 0 0.362367)
(-0.0342504 0 -0.0818064)
(-0.00541881 0 -0.692127)
(0.00319415 0 -1.20934)
(-0.0248122 0 -1.4491)
(-0.0342146 0 -1.55051)
(-0.0499768 0 -1.60257)
(-0.0557601 0 -1.66041)
(-0.0503926 0 -1.73648)
(-0.0295939 0 -1.82337)
(0.00130231 0 -1.89055)
(0.0364905 0 -1.92586)
(0.0678037 0 -1.92739)
(0.0910783 0 -1.90505)
(0.107231 0 -1.86546)
(0.11577 0 -1.81458)
(0.116999 0 -1.75843)
(0.11169 0 -1.70136)
(0.100461 0 -1.64593)
(0.0836254 0 -1.59278)
(0.0617081 0 -1.53978)
(0.0353066 0 -1.48444)
(0.00484068 0 -1.42023)
(-0.0295298 0 -1.33773)
(-0.0664078 0 -1.2297)
(-0.105211 0 -1.08657)
(-0.146411 0 -0.943503)
(-0.185381 0 -0.78105)
(-0.220658 0 -0.623395)
(-0.250147 0 -0.484586)
(-0.273384 0 -0.371944)
(-0.290863 0 -0.28672)
(-0.303794 0 -0.225446)
(-0.313846 0 -0.181525)
(-0.322727 0 -0.147115)
(-0.331622 0 -0.115498)
(-0.340712 0 -0.0833894)
(-0.349182 0 -0.0518573)
(-0.355873 0 -0.0249365)
(-0.360139 0 -0.00659423)
(-0.362129 0 0.00187524)
(-0.362565 0 0.00226274)
(-0.145469 0 0.428848)
(-0.141565 0 0.387919)
(-0.138857 0 0.349721)
(-0.135845 0 0.35235)
(-0.131713 0 0.407384)
(-0.125531 0 0.494594)
(-0.114414 0 0.566382)
(-0.093559 0 0.545691)
(-0.0602915 0 0.33834)
(-0.0132476 0 -0.107856)
(0.016837 0 -0.701194)
(0.00958965 0 -1.2001)
(-0.0168 0 -1.43878)
(-0.0157304 0 -1.54271)
(-0.0294507 0 -1.59693)
(-0.0337121 0 -1.6597)
(-0.0283679 0 -1.74438)
(-0.0105543 0 -1.83912)
(0.016996 0 -1.91147)
(0.0505457 0 -1.94879)
(0.0804459 0 -1.94809)
(0.10197 0 -1.92114)
(0.11569 0 -1.87541)
(0.121531 0 -1.81791)
(0.120316 0 -1.75513)
(0.112741 0 -1.69149)
(0.0993729 0 -1.62938)
(0.0805137 0 -1.56928)
(0.0565264 0 -1.50952)
(0.0280896 0 -1.44735)
(-0.00343474 0 -1.37713)
(-0.0374668 0 -1.28929)
(-0.0762287 0 -1.17249)
(-0.117664 0 -1.02659)
(-0.162101 0 -0.876626)
(-0.205125 0 -0.716504)
(-0.242562 0 -0.565246)
(-0.273118 0 -0.435342)
(-0.296831 0 -0.332284)
(-0.314624 0 -0.255596)
(-0.328089 0 -0.200376)
(-0.33909 0 -0.159271)
(-0.3492 0 -0.124881)
(-0.359142 0 -0.0922752)
(-0.368591 0 -0.06053)
(-0.376577 0 -0.0321966)
(-0.38227 0 -0.0109044)
(-0.385561 0 0.00128248)
(-0.38696 0 0.00500363)
(-0.387264 0 0.00278211)
(-0.133438 0 0.425739)
(-0.131013 0 0.386294)
(-0.129853 0 0.348273)
(-0.127956 0 0.350194)
(-0.124238 0 0.403901)
(-0.117754 0 0.488533)
(-0.105781 0 0.555232)
(-0.0835384 0 0.526659)
(-0.0490109 0 0.311181)
(-0.00409059 0 -0.13492)
(0.0288233 0 -0.709683)
(0.0177335 0 -1.18588)
(-0.000421307 0 -1.43501)
(0.00407328 0 -1.53764)
(-0.0071063 0 -1.59261)
(-0.00801169 0 -1.65936)
(-0.00468283 0 -1.75015)
(0.00743312 0 -1.85174)
(0.0334615 0 -1.9309)
(0.0654168 0 -1.97059)
(0.093146 0 -1.96747)
(0.112435 0 -1.93542)
(0.123504 0 -1.88283)
(0.126546 0 -1.81874)
(0.122821 0 -1.74948)
(0.113046 0 -1.67937)
(0.0975816 0 -1.61059)
(0.0766358 0 -1.54355)
(0.0505049 0 -1.47697)
(0.0197056 0 -1.40847)
(-0.0139943 0 -1.33316)
(-0.0484304 0 -1.24074)
(-0.0893169 0 -1.11102)
(-0.136096 0 -0.960426)
(-0.184409 0 -0.804178)
(-0.22924 0 -0.64805)
(-0.267538 0 -0.504997)
(-0.298349 0 -0.385232)
(-0.322003 0 -0.292252)
(-0.339833 0 -0.223806)
(-0.353741 0 -0.173784)
(-0.365612 0 -0.134692)
(-0.376672 0 -0.100364)
(-0.387116 0 -0.0680294)
(-0.39629 0 -0.0386169)
(-0.40335 0 -0.0150558)
(-0.407925 0 0.000248019)
(-0.410337 0 0.00703899)
(-0.41127 0 0.00713069)
(-0.411497 0 0.00311067)
(-0.1223 0 0.423422)
(-0.121313 0 0.385663)
(-0.121672 0 0.34772)
(-0.120961 0 0.34859)
(-0.117857 0 0.400541)
(-0.111385 0 0.482187)
(-0.0991144 0 0.543557)
(-0.0765501 0 0.507285)
(-0.0421705 0 0.284359)
(-0.00637051 0 -0.158757)
(0.0247371 0 -0.723452)
(0.0312524 0 -1.17596)
(0.030002 0 -1.43411)
(0.0207971 0 -1.53248)
(0.0105098 0 -1.58891)
(0.00705735 0 -1.65967)
(0.00706575 0 -1.75529)
(0.0216109 0 -1.86456)
(0.0500719 0 -1.95079)
(0.0810655 0 -1.99116)
(0.105688 0 -1.98475)
(0.121332 0 -1.94705)
(0.129358 0 -1.88784)
(0.130066 0 -1.81723)
(0.124106 0 -1.7416)
(0.11217 0 -1.66503)
(0.0945488 0 -1.58947)
(0.0712058 0 -1.51517)
(0.0422005 0 -1.44103)
(0.00771887 0 -1.36513)
(-0.032584 0 -1.28301)
(-0.0741369 0 -1.18685)
(-0.11887 0 -1.04311)
(-0.16695 0 -0.887365)
(-0.214517 0 -0.729412)
(-0.258578 0 -0.57829)
(-0.29622 0 -0.444555)
(-0.326234 0 -0.335609)
(-0.349196 0 -0.252661)
(-0.366768 0 -0.191715)
(-0.380983 0 -0.145904)
(-0.393497 0 -0.108358)
(-0.405034 0 -0.0747295)
(-0.415338 0 -0.0442712)
(-0.423678 0 -0.0188969)
(-0.429537 0 -0.000963215)
(-0.433001 0 0.00864859)
(-0.434668 0 0.0110393)
(-0.43524 0 0.00850402)
(-0.43542 0 0.00330387)
(-0.112255 0 0.421915)
(-0.112642 0 0.385992)
(-0.114451 0 0.348066)
(-0.11496 0 0.347621)
(-0.112632 0 0.397479)
(-0.10643 0 0.475871)
(-0.0941394 0 0.531828)
(-0.0717076 0 0.488496)
(-0.0374475 0 0.260609)
(-0.00558419 0 -0.178164)
(0.0281864 0 -0.740796)
(0.0548097 0 -1.18061)
(0.0591335 0 -1.42966)
(0.0363707 0 -1.52391)
(0.0258574 0 -1.58427)
(0.0208352 0 -1.65754)
(0.016168 0 -1.75952)
(0.0356747 0 -1.88127)
(0.0674711 0 -1.97127)
(0.0964687 0 -2.01014)
(0.11762 0 -1.99918)
(0.129658 0 -1.95565)
(0.134416 0 -1.8904)
(0.132304 0 -1.81345)
(0.123922 0 -1.73151)
(0.109749 0 -1.64844)
(0.0898409 0 -1.56586)
(0.0641435 0 -1.48404)
(0.033142 0 -1.40236)
(-0.00139082 0 -1.31932)
(-0.0381697 0 -1.23015)
(-0.0848562 0 -1.12252)
(-0.139647 0 -0.97074)
(-0.194156 0 -0.811147)
(-0.245293 0 -0.654423)
(-0.290152 0 -0.509544)
(-0.327124 0 -0.385802)
(-0.356008 0 -0.287754)
(-0.378056 0 -0.214202)
(-0.395283 0 -0.159666)
(-0.409675 0 -0.117187)
(-0.422473 0 -0.0812206)
(-0.433892 0 -0.0494083)
(-0.443427 0 -0.0224327)
(-0.450519 0 -0.00225069)
(-0.455068 0 0.00992411)
(-0.45752 0 0.0145931)
(-0.458582 0 0.0136325)
(-0.458883 0 0.009311)
(-0.459031 0 0.00339579)
(-0.103529 0 0.421231)
(-0.105188 0 0.387223)
(-0.108325 0 0.349286)
(-0.110031 0 0.347339)
(-0.108576 0 0.394836)