/*--------------------------------*- C++ -*----------------------------------*\
  =========                 |
  \\      /  F ield         | OpenFOAM: The Open Source CFD Toolbox
   \\    /   O peration     | Website:  https://openfoam.org
    \\  /    A nd           | Version:  9
     \\/     M anipulation  |
\*---------------------------------------------------------------------------*/
FoamFile
{
    format      ascii;
    class       volScalarField;
    location    "0.04";
    object      alpha.water;
}
// * * * * * * * * * * * * * * * * * * * * * * * * * * * * * * * * * * * * * //

dimensions      [0 0 0 0 0 0 0];

internalField   nonuniform List<scalar> 
20000
(
1.14822e-301
4.49511e-301
1.78174e-300
7.26729e-300
3.05286e-299
1.32116e-298
5.89119e-298
2.70725e-297
1.28233e-296
6.26151e-296
3.15223e-295
1.63629e-294
8.75866e-294
4.83473e-293
2.75216e-292
1.6156e-291
9.77991e-291
6.10432e-290
3.92814e-289
2.6056e-288
1.78115e-287
1.25443e-286
9.09909e-286
6.79475e-285
5.221e-284
4.12545e-283
3.34968e-282
2.79242e-281
2.38787e-280
2.09265e-279
1.87639e-278
1.96444e-277
2.01218e-276
2.01354e-275
1.96661e-274
1.87287e-273
1.7372e-272
1.56757e-271
1.37428e-270
1.16893e-269
9.63184e-269
7.67579e-268
5.9055e-267
4.37794e-266
3.12071e-265
2.13416e-264
1.39674e-263
8.72334e-263
5.18106e-262
2.91382e-261
1.54413e-260
7.671e-260
3.55158e-259
1.52056e-258
5.95382e-258
2.09972e-257
6.53885e-257
1.7565e-256
3.97521e-256
7.44649e-256
1.14587e-255
1.45628e-255
1.55027e-255
1.40504e-255
1.09899e-255
7.4871e-256
4.46762e-256
2.34427e-256
1.08754e-256
4.52652e-257
1.79445e-257
6.85311e-258
2.51285e-258
8.88039e-259
3.03768e-259
1.01038e-259
3.283e-260
1.04667e-260
3.28758e-261
1.02115e-261
3.14697e-262
9.65117e-263
2.95324e-263
9.03787e-264
2.77191e-264
8.53561e-265
2.64321e-265
8.24304e-266
2.59206e-266
8.22778e-267
2.63885e-267
8.55862e-268
2.80907e-268
9.33585e-269
3.14338e-269
1.0726e-269
3.70831e-270
1.29443e-270
4.45824e-271
1.30862e-271
6.13306e-299
2.39822e-298
9.49448e-298
3.8678e-297
1.62273e-296
7.01333e-296
3.12311e-295
1.43322e-294
6.77905e-294
3.30534e-293
1.66153e-292
8.61169e-292
4.60245e-291
2.53648e-290
1.44154e-289
8.44824e-289
5.10545e-288
3.1812e-287
2.04354e-286
1.35312e-285
9.23329e-285
6.49114e-284
4.69986e-283
3.50324e-282
2.68695e-281
2.11929e-280
1.71767e-279
1.42938e-278
1.22017e-277
1.0675e-276
9.55598e-276
9.98798e-275
1.02154e-273
1.02085e-272
9.95874e-272
9.47448e-271
8.78101e-270
7.91881e-269
6.93983e-268
5.90217e-267
4.86407e-266
3.87802e-265
2.98593e-264
2.21604e-263
1.58201e-262
1.08395e-261
7.11094e-261
4.45404e-260
2.65471e-259
1.4993e-258
7.98468e-258
3.98952e-257
1.85942e-256
8.02191e-256
3.16823e-255
1.12786e-254
3.54603e-254
9.6112e-254
2.19189e-253
4.1306e-253
6.38393e-253
8.13629e-253
8.67475e-253
7.86676e-253
6.1534e-253
4.1915e-253
2.5009e-253
1.3125e-253
6.09217e-254
2.53814e-254
1.0058e-254
3.84398e-255
1.41122e-255
4.99511e-256
1.71181e-256
5.70564e-257
1.85818e-257
5.93899e-258
1.87045e-258
5.8263e-259
1.8009e-259
5.54011e-260
1.70066e-260
5.22144e-261
1.60669e-261
4.96389e-262
1.54226e-262
4.82557e-263
1.52241e-263
4.84813e-264
1.55988e-264
5.07503e-265
1.6708e-265
5.56939e-266
1.88063e-266
6.43508e-267
2.23075e-267
7.80637e-268
2.69466e-268
7.92173e-269
2.37986e-296
9.299e-296
3.67849e-295
1.49729e-294
6.27651e-294
2.71028e-293
1.20582e-292
5.52842e-292
2.61239e-291
1.27249e-290
6.39008e-290
3.30852e-289
1.76633e-288
9.72398e-288
5.52024e-287
3.23155e-286
1.95066e-285
1.21406e-284
7.78977e-284
5.15191e-283
3.51135e-282
2.46561e-281
1.78311e-280
1.32756e-279
1.01705e-278
8.01276e-278
6.48717e-277
5.39263e-276
4.59869e-275
4.01948e-274
3.59492e-273
3.75429e-272
3.83716e-271
3.83259e-270
3.73756e-269
3.55528e-268
3.29524e-267
2.97253e-266
2.60642e-265
2.21845e-264
1.83023e-263
1.46123e-262
1.12702e-261
8.38165e-261
5.99831e-260
4.12172e-259
2.71296e-258
1.70583e-257
1.02119e-256
5.79624e-256
3.1043e-255
1.56082e-254
7.32469e-254
3.18331e-253
1.26687e-252
4.54439e-252
1.4392e-251
3.92725e-251
9.01342e-251
1.70905e-250
2.65746e-250
3.40616e-250
3.64903e-250
3.32132e-250
2.60481e-250
1.77767e-250
1.06223e-250
5.58212e-251
2.59471e-251
1.08276e-251
4.29131e-252
1.64187e-252
6.03665e-253
2.14044e-253
7.34975e-254
2.45514e-254
8.01499e-255
2.56836e-255
8.11135e-256
2.53401e-256
7.85656e-257
2.42457e-257
7.46696e-258
2.30015e-258
7.10157e-259
2.20148e-259
6.86311e-260
2.15466e-260
6.82051e-261
2.17922e-261
7.03456e-262
2.29602e-262
7.58269e-263
2.53532e-263
8.58651e-264
2.94656e-264
1.02428e-264
3.59387e-265
1.24348e-265
3.66147e-266
8.68714e-294
3.39241e-293
1.34112e-292
5.45532e-292
2.28528e-291
9.86122e-291
4.38412e-290
2.00851e-289
9.4836e-289
4.61576e-288
2.31599e-287
1.19812e-286
6.39093e-286
3.51523e-285
1.99379e-284
1.16611e-283
7.03253e-283
4.37285e-282
2.80314e-281
1.85217e-280
1.26119e-279
8.8476e-279
6.39258e-278
4.75509e-277
3.63967e-276
2.86501e-275
2.31762e-274
1.92508e-273
1.64046e-272
1.4329e-271
1.28079e-270
1.33686e-269
1.36587e-268
1.36397e-267
1.33011e-266
1.26545e-265
1.17334e-264
1.05906e-263
9.29401e-263
7.91932e-262
6.54251e-261
5.23224e-260
4.04367e-259
3.01439e-258
2.16315e-257
1.49107e-256
9.84933e-256
6.21786e-255
3.73901e-254
2.13285e-253
1.14858e-252
5.80928e-252
2.74323e-251
1.19976e-250
4.80417e-250
1.73324e-249
5.51807e-249
1.51331e-248
3.49169e-248
6.66136e-248
1.04315e-247
1.34706e-247
1.45327e-247
1.33066e-247
1.04856e-247
7.18238e-248
4.3044e-248
2.2677e-248
1.05658e-248
4.41951e-249
1.753e-249
6.71806e-250
2.47479e-250
8.79357e-251
3.02645e-251
1.01349e-251
3.31748e-252
1.06611e-252
3.37713e-253
1.05836e-253
3.29217e-254
1.01942e-254
3.15036e-255
9.73863e-256
3.01742e-256
9.3874e-257
2.93699e-257
9.25345e-258
2.9395e-258
9.4248e-259
3.05281e-259
9.99776e-260
3.31269e-260
1.11119e-260
3.77509e-261
1.2994e-261
4.53026e-262
1.594e-262
5.52901e-263
1.63072e-263
3.15527e-291
1.23144e-290
4.8652e-290
1.97775e-289
8.27938e-289
3.57016e-288
1.58609e-287
7.26101e-287
3.42582e-286
1.66607e-285
8.35292e-285
4.3176e-284
2.30113e-283
1.26461e-282
7.16645e-282
4.18772e-281
2.52325e-280
1.56754e-279
1.00393e-278
6.62739e-278
4.50863e-277
3.16007e-276
2.28117e-275
1.69534e-274
1.29654e-273
1.01973e-272
8.24244e-272
6.84124e-271
5.82573e-270
5.08538e-269
4.54293e-268
4.73947e-267
4.84066e-266
4.83303e-265
4.71301e-264
4.48469e-263
4.15979e-262
3.75689e-261
3.29968e-260
2.81466e-259
2.32847e-258
1.86522e-257
1.44434e-256
1.07916e-255
7.76463e-255
5.36834e-254
3.55814e-253
2.25475e-252
1.36152e-251
7.80197e-251
4.22221e-250
2.14659e-249
1.01897e-248
4.47891e-248
1.80165e-247
6.52552e-247
2.08462e-246
5.73679e-246
1.32944e-245
2.55137e-245
4.026e-245
5.24418e-245
5.70667e-245
5.26575e-245
4.17667e-245
2.87601e-245
1.731e-245
9.15305e-246
4.27887e-246
1.79547e-246
7.13302e-247
2.73984e-247
1.01178e-247
3.60444e-248
1.24392e-248
4.17763e-249
1.37165e-249
4.42209e-250
1.40549e-250
4.42002e-251
1.37983e-251
4.28832e-252
1.3302e-252
4.12758e-253
1.28377e-253
4.00916e-254
1.25912e-254
3.98211e-255
1.26974e-255
4.08625e-256
1.32843e-256
4.36615e-257
1.45178e-257
4.88646e-258
1.66565e-258
5.75189e-259
2.01168e-259
7.0996e-260
2.46915e-260
7.29537e-261
1.15079e-288
4.48845e-288
1.77209e-287
7.19864e-287
3.01136e-286
1.29756e-285
5.76016e-285
2.63488e-284
1.24215e-283
6.03591e-283
3.02355e-282
1.5615e-281
8.31486e-281
4.5654e-280
2.58479e-279
1.50901e-278
9.08374e-278
5.6378e-277
3.60726e-276
2.37902e-275
1.6169e-274
1.13219e-273
8.16521e-273
6.06263e-272
4.63226e-271
3.64007e-270
2.93974e-269
2.43802e-268
2.07455e-267
1.80966e-266
1.6156e-265
1.68455e-264
1.71981e-263
1.71666e-262
1.67388e-261
1.59293e-260
1.47794e-259
1.33545e-258
1.17377e-257
1.0022e-256
8.30097e-256
6.65943e-255
5.16597e-254
3.86796e-253
2.78978e-252
1.93413e-251
1.28592e-250
8.17655e-250
4.95574e-249
2.85116e-248
1.5495e-247
7.91176e-247
3.77132e-246
1.66391e-245
6.71374e-245
2.43742e-244
7.80159e-244
2.15182e-243
5.00465e-243
9.65961e-243
1.53644e-242
2.02043e-242
2.22007e-242
2.06724e-242
1.6529e-242
1.14603e-242
6.93646e-243
3.68478e-243
1.72999e-243
7.28841e-244
2.90249e-244
1.11818e-244
4.14189e-245
1.48014e-245
5.1245e-246
1.72679e-246
5.68931e-247
1.84081e-247
5.87259e-248
1.85392e-248
5.81032e-249
1.813e-249
5.64663e-250
1.75932e-250
5.49439e-251
1.72294e-251
5.43327e-252
1.72534e-252
5.52367e-253
1.7847e-253
5.82479e-254
1.92182e-254
6.41433e-255
2.16693e-255
7.41304e-256
2.5689e-256
9.01528e-257
3.19207e-257
1.11339e-257
3.29626e-258
4.21562e-286
1.64305e-285
6.4821e-285
2.63113e-284
1.09979e-283
4.735e-283
2.10021e-282
9.59874e-282
4.52113e-281
2.19495e-280
1.0985e-279
5.66783e-279
3.01518e-278
1.65392e-277
9.35475e-277
5.45589e-276
3.28094e-275
2.03423e-274
1.30023e-273
8.56634e-273
5.8161e-272
4.06839e-271
2.93109e-270
2.17413e-269
1.65955e-268
1.30284e-267
1.05121e-266
8.71027e-266
7.40552e-265
6.45492e-264
5.7586e-263
6.00048e-262
6.12298e-261
6.10958e-260
5.95614e-259
5.66795e-258
5.25966e-257
4.75426e-256
4.18106e-255
3.57278e-254
2.96234e-253
2.37963e-252
1.84888e-251
1.38691e-250
1.00248e-249
6.96716e-249
4.64483e-248
2.96227e-247
1.80117e-246
1.03977e-245
5.67053e-245
2.90536e-244
1.38926e-243
6.14525e-243
2.48407e-242
9.02841e-242
2.89217e-241
7.98852e-241
1.86371e-240
3.61719e-240
5.80032e-240
7.70421e-240
8.55485e-240
8.04697e-240
6.49356e-240
4.53869e-240
2.76638e-240
1.47822e-240
6.97454e-241
2.95261e-241
1.17964e-241
4.5613e-242
1.69579e-242
6.0824e-243
2.1137e-243
7.1497e-244
2.36491e-244
7.68277e-245
2.46114e-245
7.80258e-246
2.45594e-246
7.69686e-247
2.4078e-247
7.5353e-248
2.36378e-248
7.44535e-249
2.35828e-249
7.52169e-250
2.41854e-250
7.84792e-251
2.57221e-251
8.52201e-252
2.85596e-252
9.68679e-253
3.32682e-253
1.15729e-253
4.07657e-254
1.44858e-254
5.06886e-255
1.50421e-255
1.54946e-283
6.03416e-283
2.37858e-282
9.64658e-282
4.02863e-281
1.73292e-280
7.67929e-280
3.50644e-279
1.65e-278
8.00267e-278
4.00107e-277
2.06231e-276
1.09598e-275
6.0055e-275
3.39317e-274
1.97684e-273
1.1875e-272
7.35458e-272
4.69571e-271
3.09025e-270
2.0958e-269
1.4644e-268
1.05388e-267
7.80869e-267
5.95414e-266
4.66948e-265
3.7638e-264
3.11565e-263
2.6465e-262
2.30479e-261
2.0545e-260
2.1392e-259
2.18155e-258
2.17576e-257
2.12045e-256
2.01754e-255
1.87224e-254
1.69269e-253
1.48922e-252
1.27336e-251
1.05669e-250
8.49764e-250
6.6112e-249
4.96723e-248
3.59705e-247
2.50522e-246
1.67408e-245
1.07036e-244
6.52561e-244
3.77748e-243
2.06578e-242
1.06117e-241
5.08536e-241
2.25292e-240
9.11391e-240
3.31295e-239
1.06132e-238
2.93402e-238
6.86396e-238
1.33943e-237
2.16546e-237
2.90605e-237
3.26272e-237
3.10272e-237
2.52921e-237
1.7839e-237
1.09603e-237
5.89837e-238
2.79978e-238
1.19164e-238
4.78036e-239
1.85655e-239
6.93215e-240
2.49702e-240
8.71462e-241
2.96058e-241
9.83611e-242
3.20986e-242
1.033e-242
3.29028e-243
1.04056e-243
3.27675e-244
1.03001e-244
3.23907e-245
1.021e-245
3.23147e-246
1.02848e-246
3.29598e-247
1.06481e-247
3.47134e-248
1.143e-248
3.80408e-249
1.28054e-249
4.36233e-250
1.50464e-250
5.25618e-251
1.85913e-251
6.63252e-252
2.32923e-252
6.93135e-253
5.70758e-281
2.22071e-280
8.7456e-280
3.54349e-279
1.47841e-278
6.35308e-278
2.81248e-277
1.28289e-276
6.03049e-276
2.92175e-275
1.4592e-274
7.51306e-274
3.98825e-273
2.18292e-272
1.23196e-271
7.16903e-271
4.30145e-270
2.66091e-269
1.69691e-268
1.11542e-267
7.55574e-267
5.27319e-266
3.79047e-265
2.80526e-264
2.13656e-263
1.67369e-262
1.34758e-261
1.11434e-260
9.45587e-260
8.22702e-259
7.32693e-258
7.62259e-257
7.76791e-256
7.74277e-255
7.54259e-254
7.17446e-253
6.65694e-252
6.01884e-251
5.29659e-250
4.53082e-249
3.7623e-248
3.02814e-247
2.35847e-246
1.77433e-245
1.28686e-244
8.97823e-244
6.01114e-243
3.85126e-242
2.35297e-241
1.36497e-240
7.4798e-240
3.84917e-239
1.84702e-238
8.18789e-238
3.31199e-237
1.20319e-236
3.8524e-236
1.06551e-235
2.49903e-235
4.90248e-235
7.99093e-235
1.08361e-234
1.23058e-234
1.18375e-234
9.75471e-235
6.94843e-235
4.30725e-235
2.33646e-235
1.11705e-235
4.78322e-236
1.9281e-236
7.52652e-237
2.82431e-237
1.02231e-237
3.58519e-238
1.22393e-238
4.08646e-239
1.34024e-239
4.33514e-240
1.38792e-240
4.41218e-241
1.39667e-241
4.41336e-242
1.39518e-242
4.42095e-243
1.40657e-243
4.50003e-244
1.4496e-244
4.70715e-245
1.54234e-245
5.10387e-246
1.70703e-246
5.77419e-247
1.97647e-247
6.8492e-248
2.40371e-248
8.54056e-249
3.06022e-249
1.07904e-249
3.22145e-250
2.10126e-278
8.16696e-278
3.21288e-277
1.30036e-276
5.41935e-276
2.32621e-275
1.02863e-274
4.68656e-274
2.20042e-273
1.06482e-272
5.31151e-272
2.73138e-271
1.44812e-270
7.91602e-270
4.46177e-269
2.59302e-268
1.55378e-267
9.59905e-267
6.11332e-266
4.01302e-265
2.71473e-264
1.89207e-263
1.35822e-262
1.00385e-261
7.63546e-261
5.97345e-260
4.8034e-259
3.96702e-258
3.36216e-257
2.92178e-256
2.59918e-255
2.70114e-254
2.74997e-253
2.73872e-252
2.66597e-251
2.53434e-250
2.35046e-249
2.12451e-248
1.86931e-247
1.59909e-246
1.32813e-245
1.06938e-244
8.3336e-244
6.27428e-243
4.55476e-242
3.1812e-241
2.13242e-240
1.36791e-239
8.36765e-239
4.85963e-238
2.66553e-237
1.37254e-236
6.5866e-236
2.91803e-235
1.17878e-234
4.27485e-234
1.36664e-233
3.77845e-233
8.87724e-233
1.74938e-232
2.87268e-232
3.93344e-232
4.51588e-232
4.39282e-232
3.65881e-232
2.63211e-232
1.64638e-232
9.00476e-233
4.33811e-233
1.87049e-233
7.57997e-234
2.97627e-234
1.12329e-234
4.08916e-235
1.44225e-235
4.95205e-236
1.66304e-236
5.48655e-237
1.78529e-237
5.7502e-238
1.83909e-238
5.85718e-239
1.86214e-239
5.92272e-240
1.88819e-240
6.04393e-241
1.94529e-241
6.30382e-242
2.05909e-242
6.78626e-243
2.25865e-243
7.59723e-244
2.58424e-244
8.8945e-245
3.09903e-245
1.09341e-245
3.90533e-246
1.40645e-246
4.98261e-247
1.4934e-247
6.59479e-276
2.55466e-275
1.00145e-274
4.03842e-274
1.6767e-273
7.16917e-273
3.15746e-272
1.43265e-271
6.69797e-271
3.22708e-270
1.60248e-269
8.20227e-269
4.32785e-268
2.35413e-267
1.32015e-266
7.63213e-266
4.5487e-265
2.79457e-264
1.76964e-263
1.15486e-262
7.76534e-262
5.37866e-261
3.83652e-260
2.81702e-259
2.1283e-258
1.65357e-257
1.32028e-256
1.08248e-255
9.10601e-255
7.85271e-254
6.93055e-253
7.14263e-252
7.21023e-251
7.11872e-250
6.86846e-249
6.47045e-248
5.94568e-247
5.32347e-246
4.63883e-245
3.92907e-244
3.23026e-243
2.5739e-242
1.98441e-241
1.47761e-240
1.06048e-239
7.31958e-239
4.84638e-238
3.06904e-237
1.85207e-236
1.06029e-235
5.72775e-235
2.90161e-234
1.36818e-233
5.94763e-233
2.35444e-232
8.35902e-232
2.61542e-231
7.08178e-231
1.6322e-230
3.16293e-230
5.12102e-230
6.92971e-230
7.8764e-230
7.59486e-230
6.27714e-230
4.48655e-230
2.79306e-230
1.524e-230
7.34498e-231
3.17793e-231
1.29468e-231
5.12619e-232
1.95514e-232
7.2057e-233
2.57699e-233
8.98365e-234
3.06643e-234
1.02913e-234
3.40891e-235
1.11829e-235
3.64425e-236
1.18288e-236
3.83336e-237
1.2429e-237
4.0393e-238
1.31793e-238
4.32331e-239
1.42764e-239
4.75092e-240
1.59483e-240
5.40492e-241
1.85065e-241
6.40605e-242
2.24297e-242
7.94734e-243
2.85047e-243
1.03454e-243
3.78339e-244
1.35913e-244
4.11785e-245
1.26714e-273
4.87982e-273
1.90102e-272
7.61685e-272
3.14163e-271
1.33424e-270
5.83574e-270
2.62917e-269
1.2203e-268
5.83584e-268
2.87594e-267
1.46063e-266
7.64574e-266
4.12516e-265
2.29412e-264
1.31506e-263
7.76986e-263
4.7314e-262
2.96913e-261
1.91983e-260
1.27882e-259
8.77322e-259
6.197e-258
4.50523e-257
3.36951e-256
2.59115e-255
2.04737e-254
1.66089e-253
1.38215e-252
1.17889e-251
1.02887e-250
1.04806e-249
1.04562e-248
1.02018e-247
9.72602e-247
9.05244e-246
8.21756e-245
7.26778e-244
6.25512e-243
5.23229e-242
4.24783e-241
3.34195e-240
2.54367e-239
1.86961e-238
1.32429e-237
9.01919e-237
5.89097e-236
3.6789e-235
2.18848e-234
1.23443e-233
6.56645e-233
3.27327e-232
1.51746e-231
6.47975e-231
2.5177e-230
8.76994e-230
2.69295e-229
7.16446e-229
1.6258e-228
3.1103e-228
4.98575e-228
6.69629e-228
7.56835e-228
7.26573e-228
5.98381e-228
4.26535e-228
2.65127e-228
1.44679e-228
6.98787e-229
3.03695e-229
1.24445e-229
4.96598e-230
1.91218e-230
7.12449e-231
2.57877e-231
9.10728e-232
3.1517e-232
1.07306e-232
3.60766e-233
1.20165e-233
3.97707e-234
1.31131e-234
4.31726e-235
1.42217e-235
4.69586e-236
1.55662e-236
5.18752e-237
1.74011e-237
5.8817e-238
2.00515e-238
6.90032e-239
2.39872e-239
8.42845e-240
2.99506e-240
1.07683e-240
3.91835e-241
1.44238e-241
5.34763e-242
1.94534e-242
5.95338e-243
1.5936e-271
6.09748e-271
2.35914e-270
9.38601e-270
3.84351e-269
1.62032e-268
7.03374e-268
3.14455e-267
1.44805e-266
6.86944e-266
3.35757e-265
1.69097e-264
8.77588e-264
4.69365e-263
2.58708e-262
1.46955e-261
8.60248e-261
5.18914e-260
3.22518e-259
2.06506e-258
1.36192e-257
9.24908e-257
6.46618e-256
4.65199e-255
3.44251e-254
2.6189e-253
2.04681e-252
1.64212e-251
1.35125e-250
1.13946e-249
9.82981e-249
9.89327e-248
9.75142e-247
9.39882e-246
8.85121e-245
8.13712e-244
7.29549e-243
6.37222e-242
5.41595e-241
4.47355e-240
3.58609e-239
2.7856e-238
2.09321e-237
1.51878e-236
1.06187e-235
7.13747e-235
4.60011e-234
2.83398e-233
1.66257e-232
9.24492e-232
4.8458e-231
2.37892e-230
1.08543e-229
4.55887e-229
1.74145e-228
5.96331e-228
1.80125e-227
4.72085e-227
1.05778e-226
2.00381e-226
3.19015e-226
4.26663e-226
4.81162e-226
4.61497e-226
3.80031e-226
2.71039e-226
1.68696e-226
9.22799e-227
4.4742e-227
1.9551e-227
8.06238e-228
3.24174e-228
1.25928e-228
4.73781e-229
1.73309e-229
6.18988e-230
2.16757e-230
7.47124e-231
2.54387e-231
8.58375e-232
2.87864e-232
9.61901e-233
3.20985e-233
1.07181e-233
3.58746e-234
1.20551e-234
4.07247e-235
1.38476e-235
4.74438e-236
1.63936e-236
5.71762e-237
2.01421e-237
7.17145e-238
2.58198e-238
9.40446e-239
3.46632e-239
1.29225e-239
4.85036e-240
1.78469e-240
5.51337e-241
1.45091e-269
5.51486e-269
2.11882e-268
8.36953e-268
3.40218e-267
1.42354e-266
6.13232e-266
2.72017e-265
1.24265e-264
5.84715e-264
2.83421e-263
1.41533e-262
7.28201e-262
3.86046e-261
2.10878e-260
1.18694e-259
6.88361e-259
4.11306e-258
2.53179e-257
1.60525e-256
1.04815e-255
7.04641e-255
4.87578e-254
3.47133e-253
2.54173e-252
1.91296e-251
1.47888e-250
1.17346e-249
9.54868e-249
7.96121e-248
6.78929e-247
6.75198e-246
6.57578e-245
6.26194e-244
5.82592e-243
5.29091e-242
4.68581e-241
4.04266e-240
3.39369e-239
2.76852e-238
2.19175e-237
1.68126e-236
1.24752e-235
8.93748e-235
6.16929e-234
4.09348e-233
2.60392e-232
1.58296e-231
9.16101e-231
5.02352e-230
2.59562e-229
1.25553e-228
5.6416e-228
2.3324e-227
8.76778e-227
2.95513e-226
8.793e-226
2.2739e-225
5.03942e-225
9.46997e-225
1.50011e-224
2.00173e-224
2.25705e-224
2.16746e-224
1.78858e-224
1.27906e-224
7.98721e-225
4.38699e-225
2.13791e-225
9.40053e-226
3.90308e-226
1.58136e-226
6.19503e-227
2.35209e-227
8.68788e-228
3.1349e-228
1.10958e-228
3.86711e-229
1.33179e-229
4.54648e-230
1.54288e-230
5.21791e-231
1.76249e-231
5.95768e-232
2.01881e-232
6.86827e-233
2.34916e-233
8.08741e-234
2.80535e-234
9.81392e-235
3.46515e-235
1.23573e-235
4.4536e-236
1.62296e-236
5.98273e-237
2.23151e-237
8.41743e-238
3.1958e-238
1.18857e-238
3.70553e-239
1.03029e-267
3.88972e-267
1.48383e-266
5.81862e-266
2.34767e-265
9.74865e-265
4.16701e-264
1.8338e-263
8.3099e-263
3.87803e-262
1.86402e-261
9.22903e-261
4.70719e-260
2.47338e-259
1.33892e-258
7.46711e-258
4.29015e-257
2.53913e-256
1.5479e-255
9.71821e-255
6.28245e-254
4.18088e-253
2.86336e-252
2.01742e-251
1.46162e-250
1.08832e-249
8.32289e-249
6.5319e-248
5.25635e-247
4.33336e-246
3.65346e-245
3.59058e-244
3.45552e-243
3.25145e-242
2.98888e-241
2.68178e-240
2.34641e-239
1.9998e-238
1.65832e-237
1.33629e-236
1.0449e-235
7.91634e-235
5.80115e-234
4.10417e-233
2.79734e-232
1.83251e-231
1.15068e-230
6.90351e-230
3.94186e-229
2.132e-228
1.08615e-227
5.1781e-227
2.29225e-226
9.33324e-226
3.45498e-225
1.14712e-224
3.36574e-224
8.5978e-224
1.88686e-223
3.5215e-223
5.55703e-223
7.40754e-223
8.36217e-223
8.05171e-223
6.66825e-223
4.7888e-223
3.00464e-223
1.65915e-223
8.13503e-224
3.60196e-224
1.5065e-224
6.15158e-225
2.43004e-225
9.30773e-226
3.46991e-226
1.26421e-226
4.51967e-227
1.59157e-227
5.53962e-228
1.91174e-228
6.5596e-229
2.24338e-229
7.66393e-230
2.62038e-230
8.98217e-231
3.0914e-231
1.0697e-231
3.72567e-232
1.30746e-232
4.62729e-233
1.65285e-233
5.96276e-234
2.17381e-234
8.01265e-235
2.98742e-235
1.1269e-235
4.29836e-236
1.6498e-236
6.19937e-237
1.95042e-237
6.04108e-266
2.26458e-265
8.57448e-265
3.33676e-264
1.33584e-263
5.50312e-263
2.3333e-262
1.01839e-261
4.57618e-261
2.11738e-260
1.00891e-259
4.95117e-259
2.50262e-258
1.30298e-257
6.98797e-257
3.86041e-256
2.1967e-255
1.28747e-254
7.77116e-254
4.83009e-253
3.09075e-252
2.03567e-251
1.37963e-250
9.61769e-250
6.89356e-249
5.07745e-248
3.84051e-247
2.98077e-246
2.37188e-245
1.93329e-244
1.61129e-243
1.5648e-242
1.48804e-241
1.38345e-240
1.25648e-239
1.11381e-238
9.62747e-238
8.1058e-237
6.63988e-236
5.28511e-235
4.08197e-234
3.05449e-233
2.21066e-232
1.54452e-231
1.03952e-230
6.72358e-230
4.16775e-229
2.46787e-228
1.39043e-227
7.41835e-227
3.72688e-226
1.75154e-225
7.64126e-225
3.06545e-224
1.11811e-223
3.65968e-223
1.05972e-222
2.67655e-222
5.8222e-222
1.08021e-221
1.6997e-221
2.26554e-221
2.56316e-221
2.47738e-221
2.06163e-221
1.48868e-221
9.39638e-222
5.22222e-222
2.57855e-222
1.15045e-222
4.84964e-223
1.9964e-223
7.95256e-224
3.07257e-224
1.15579e-224
4.25032e-225
1.53417e-225
5.45591e-226
1.91822e-226
6.68822e-227
2.31899e-227
8.01544e-228
2.7678e-228
9.56641e-229
3.31515e-229
1.15356e-229
4.03581e-230
1.42124e-230
5.04305e-231
1.80463e-231
6.51756e-232
2.37725e-232
8.76211e-233
3.26515e-233
1.23066e-233
4.69256e-234
1.80911e-234
7.01696e-235
2.66334e-235
8.45673e-236
3.09584e-264
1.15095e-263
4.32017e-263
1.66636e-262
6.6113e-262
2.69878e-261
1.13369e-260
4.90168e-260
2.18165e-259
9.99709e-259
4.71697e-258
2.2919e-257
1.14685e-256
5.91041e-256
3.13722e-255
1.7151e-254
9.65693e-254
5.59971e-253
3.34369e-252
2.0557e-251
1.30103e-250
8.47436e-250
5.67927e-249
3.91463e-248
2.77406e-247
2.01991e-246
1.51026e-245
1.1586e-244
9.11182e-244
7.3396e-243
6.04456e-242
5.79834e-241
5.44644e-240
5.00157e-239
4.48679e-238
3.92844e-237
3.35384e-236
2.78896e-235
2.2564e-234
1.77383e-233
1.35307e-232
9.99926e-232
7.14681e-231
4.93086e-230
3.27694e-229
2.09266e-228
1.28057e-227
7.48422e-227
4.16104e-226
2.1902e-225
1.08526e-224
5.02936e-224
2.16304e-223
8.55386e-223
3.0761e-222
9.93294e-222
2.84107e-221
7.10147e-221
1.53263e-220
2.82946e-220
4.44346e-220
5.92787e-220
6.72825e-220
6.53493e-220
5.47095e-220
3.97708e-220
2.52837e-220
1.41586e-220
7.04704e-221
3.17059e-221
1.3479e-221
5.59619e-222
2.24827e-222
8.7621e-223
3.32533e-223
1.23399e-223
4.49561e-224
1.61396e-224
5.72944e-225
2.01735e-225
7.06462e-226
2.46656e-226
8.60437e-227
3.00466e-227
1.05207e-227
3.69916e-228
1.30777e-228
4.65397e-229
1.66882e-229
6.03488e-230
2.20256e-230
8.11848e-231
3.02381e-231
1.13863e-231
4.33646e-232
1.67074e-232
6.50781e-233
2.54995e-233
9.7744e-234
3.13285e-234
1.50578e-262
5.53139e-262
2.05027e-261
7.80818e-261
3.05845e-260
1.23248e-259
5.11064e-259
2.18106e-258
9.58133e-258
4.33325e-257
2.01783e-256
9.67578e-256
4.77809e-255
2.43006e-254
1.27288e-253
6.86712e-253
3.81561e-252
2.1834e-251
1.28659e-250
7.80596e-250
4.87543e-249
3.13401e-248
2.07283e-247
1.41011e-246
9.86233e-246
7.08781e-245
5.23075e-244
3.96087e-243
3.07477e-242
2.44476e-241
1.98737e-240
1.88121e-239
1.74385e-238
1.58051e-237
1.39943e-236
1.20945e-235
1.01928e-234
8.36757e-234
6.68348e-233
5.18736e-232
3.90679e-231
2.85067e-230
2.01176e-229
1.37046e-228
8.99259e-228
5.66973e-227
3.4251e-226
1.97593e-225
1.0842e-224
5.63121e-224
2.75288e-223
1.25843e-222
5.33831e-222
2.08229e-221
7.38864e-221
2.35594e-220
6.66308e-220
1.65009e-219
3.5373e-219
6.50553e-219
1.02083e-218
1.36461e-218
1.55577e-218
1.52047e-218
1.28234e-218
9.39803e-219
6.02619e-219
3.40474e-219
1.71016e-219
7.76633e-220
3.33225e-220
1.39602e-220
5.65798e-221
2.22445e-221
8.51667e-222
3.18862e-222
1.17213e-222
4.24641e-223
1.52135e-223
5.40668e-224
1.91123e-224
6.73644e-225
2.37251e-225
8.36498e-226
2.95748e-226
1.05005e-226
3.74879e-227
1.34725e-227
4.8788e-228
1.7818e-228
6.56765e-229
2.44485e-229
9.19664e-230
3.49748e-230
1.34525e-230
5.23445e-231
2.05913e-231
8.14782e-232
3.15358e-232
1.0205e-232
7.925e-261
2.8526e-260
1.03489e-259
3.85699e-259
1.47844e-258
5.83032e-258
2.36602e-257
9.88266e-257
4.24955e-256
1.88148e-255
8.5785e-255
4.02843e-254
1.94859e-253
9.70963e-253
4.98434e-252
2.63601e-251
1.43621e-250
8.06125e-250
4.66084e-249
2.77555e-248
1.70208e-247
1.07463e-246
6.98336e-246
4.66919e-245
3.21072e-244
2.26941e-243
1.64772e-242
1.2279e-241
9.38344e-241
7.34638e-240
5.88167e-239
5.48261e-238
5.00646e-237
4.47111e-236
3.90196e-235
3.32463e-234
2.76293e-233
2.23714e-232
1.76278e-231
1.34996e-230
1.00332e-229
7.22562e-229
5.0334e-228
3.38494e-227
2.19278e-226
1.36493e-225
8.1407e-225
4.63641e-224
2.51141e-223
1.28757e-222
6.21293e-222
2.80328e-221
1.17378e-220
4.52027e-220
1.58433e-219
4.9947e-219
1.39872e-218
3.43701e-218
7.32978e-218
1.34503e-217
2.11231e-217
2.834e-217
3.25099e-217
3.20271e-217
2.72623e-217
2.01812e-217
1.30763e-217
7.46686e-218
3.79057e-218
1.73969e-218
7.54094e-219
3.18998e-219
1.30479e-219
5.1758e-220
1.99908e-220
7.54967e-221
2.79927e-221
1.02289e-221
3.69633e-222
1.32499e-222
4.72444e-223
1.6797e-223
5.9675e-224
2.1225e-224
7.57043e-225
2.71172e-225
9.76731e-226
3.54161e-226
1.29405e-226
4.76868e-227
1.77365e-227
6.66264e-228
2.52917e-228
9.7068e-229
3.76806e-229
1.47978e-229
5.87547e-230
2.34668e-230
9.16848e-231
2.99591e-231
5.09886e-259
1.78204e-258
6.26407e-258
2.26082e-257
8.38942e-257
3.20198e-256
1.25737e-255
5.0814e-255
2.11398e-254
9.05572e-254
3.99533e-253
1.81586e-252
8.50344e-252
4.10359e-251
2.04103e-250
1.04639e-249
5.53007e-249
3.01278e-248
1.69198e-247
9.79442e-247
5.84337e-246
3.59223e-245
2.27492e-244
1.48363e-243
9.95986e-243
6.87882e-242
4.88438e-241
3.5627e-240
2.66696e-239
2.04686e-238
1.60757e-237
1.47028e-236
1.31834e-235
1.15692e-234
9.92752e-234
8.3221e-233
6.80814e-232
5.42923e-231
4.21528e-230
3.18208e-229
2.33214e-228
1.65674e-227
1.13876e-226
7.55829e-226
4.83349e-225
2.97063e-224
1.74956e-223
9.84061e-223
5.2646e-222
2.66602e-221
1.27079e-220
5.66494e-220
2.34407e-219
8.92455e-219
3.09468e-218
9.66328e-218
2.68482e-217
6.55989e-217
1.39482e-216
2.55967e-216
4.03256e-216
5.44321e-216
6.29837e-216
6.27068e-216
5.4014e-216
4.04917e-216
2.65776e-216
1.53734e-216
7.90349e-217
3.67157e-217
1.6101e-217
6.8825e-218
2.84261e-218
1.13798e-218
4.43392e-219
1.68867e-219
6.31264e-220
2.32518e-220
8.46835e-221
3.05908e-221
1.0991e-221
3.93738e-222
1.40941e-222
5.05075e-223
1.81507e-223
6.55067e-224
2.37738e-224
8.68609e-225
3.19813e-225
1.18766e-225
4.45183e-226
1.6855e-226
6.44929e-227
2.49519e-227
9.76531e-228
3.86684e-228
1.54828e-228
6.23714e-229
2.4586e-229
8.11234e-230
3.9364e-257
1.33352e-256
4.53091e-256
1.57892e-255
5.65177e-255
2.07896e-254
7.86135e-254
3.0569e-253
1.22277e-252
5.03298e-252
2.13239e-251
9.30261e-251
4.17998e-250
1.9351e-249
9.23239e-249
4.54063e-248
2.30255e-247
1.20414e-246
6.495e-246
3.61374e-245
2.07406e-244
1.22787e-243
7.49706e-243
4.71999e-242
3.06306e-241
2.04798e-240
1.40986e-239
9.98494e-239
7.26809e-238
5.43179e-237
4.15968e-236
3.7121e-235
3.25258e-234
2.79299e-233
2.34811e-232
1.93072e-231
1.55089e-230
1.21555e-229
9.28361e-229
6.89917e-228
4.98124e-227
3.48823e-226
2.3648e-225
1.54886e-224
9.77839e-224
5.93528e-223
3.45346e-222
1.91961e-221
1.01518e-220
5.08343e-220
2.39675e-219
1.05722e-218
4.33086e-218
1.6335e-217
5.61704e-217
1.74173e-216
4.81458e-216
1.1732e-215
2.49497e-215
4.59374e-215
7.28416e-215
9.92553e-215
1.16246e-214
1.17368e-214
1.02653e-214
7.81893e-215
5.21505e-215
3.0642e-215
1.59915e-215
7.53473e-216
3.34759e-216
1.44742e-216
6.04048e-217
2.44125e-217
9.59561e-218
3.68448e-218
1.38794e-218
5.14948e-219
1.88842e-219
6.86687e-220
2.48297e-220
8.95003e-221
3.22311e-221
1.1619e-221
4.20002e-222
1.52467e-222
5.56565e-223
2.04541e-223
7.57548e-224
2.83006e-224
1.06728e-224
4.06584e-225
1.56558e-225
6.09645e-226
2.40184e-226
9.57603e-227
3.86145e-227
1.5671e-227
6.22695e-228
2.07423e-228
3.24145e-255
1.0676e-254
3.51729e-254
1.18706e-253
4.11082e-253
1.46135e-252
5.33446e-252
2.00023e-251
7.70655e-251
3.05191e-250
1.24268e-249
5.20443e-249
2.24264e-248
9.94663e-248
4.54229e-247
2.13656e-246
1.0355e-245
5.17292e-245
2.66448e-244
1.41551e-243
7.75807e-243
4.38753e-242
2.56076e-241
1.54247e-240
9.58803e-240
6.14894e-239
4.0667e-238
2.77184e-237
1.9454e-236
1.40453e-235
1.04107e-234
9.00232e-234
7.66067e-233
6.4022e-232
5.24889e-231
4.21667e-230
3.31497e-229
2.54685e-228
1.90942e-227
1.39473e-226
9.90938e-226
6.83564e-225
4.56916e-224
2.95315e-223
1.84118e-222
1.10439e-221
6.35417e-221
3.49454e-220
1.82953e-219
9.07431e-219
4.2404e-218
1.85513e-217
7.54323e-217
2.8269e-216
9.6709e-216
2.98843e-215
8.25005e-215
2.01298e-214
4.29934e-214
7.97571e-214
1.27833e-213
1.76586e-213
2.10203e-213
2.16102e-213
1.92662e-213
1.49642e-213
1.01752e-213
6.09037e-214
3.23431e-214
1.54859e-214
6.98038e-215
3.05607e-215
1.28959e-215
5.26364e-216
2.08736e-216
8.0793e-217
3.0656e-217
1.14491e-217
4.22405e-218
1.54454e-218
5.61359e-219
2.03316e-219
7.35486e-220
2.6627e-220
9.66451e-221
3.5223e-221
1.29079e-221
4.76208e-222
1.77055e-222
6.64044e-223
2.51431e-223
9.61806e-224
3.71942e-224
1.45486e-224
5.75878e-225
2.3074e-225
9.35352e-226
3.81781e-226
1.52722e-226
5.13298e-227
2.60633e-253
8.36547e-253
2.67948e-252
8.78293e-252
2.95146e-251
1.01721e-250
3.59665e-250
1.30502e-249
4.86063e-249
1.85888e-248
7.30164e-248
2.94669e-247
1.22217e-246
5.21137e-246
2.28533e-245
1.03105e-244
4.78746e-244
2.28875e-243
1.12703e-242
5.71869e-242
2.99128e-241
1.61357e-240
8.97942e-240
5.15671e-239
3.05675e-238
1.87048e-237
1.18146e-236
7.70043e-236
5.17609e-235
3.58549e-234
2.55497e-233
2.12639e-232
1.74636e-231
1.41238e-230
1.12357e-229
8.78073e-229
6.73178e-228
5.05509e-227
3.71204e-226
2.66083e-225
1.85839e-224
1.26214e-223
8.31788e-223
5.30712e-222
3.27015e-221
1.94065e-220
1.10576e-219
6.02793e-219
3.13099e-218
1.54211e-217
7.16271e-217
3.11785e-216
1.26282e-215
4.72035e-215
1.61325e-214
4.9899e-214
1.38209e-213
3.39261e-213
7.31176e-213
1.37305e-212
2.23457e-212
3.14289e-212
3.81793e-212
4.01169e-212
3.65808e-212
2.90595e-212
2.01956e-212
1.23405e-212
6.67981e-213
3.25498e-213
1.48993e-213
6.61031e-214
2.82218e-214
1.16384e-214