/*--------------------------------*- C++ -*----------------------------------*\
  =========                 |
  \\      /  F ield         | OpenFOAM: The Open Source CFD Toolbox
   \\    /   O peration     | Website:  https://openfoam.org
    \\  /    A nd           | Version:  9
     \\/     M anipulation  |
\*---------------------------------------------------------------------------*/
FoamFile
{
    format      ascii;
    class       surfaceScalarField;
    location    "0.04";
    object      alphaPhi0.water;
}
// * * * * * * * * * * * * * * * * * * * * * * * * * * * * * * * * * * * * * //

dimensions      [0 3 -1 0 0 0 0];

internalField   nonuniform List<scalar> 
39700
(
-6.04806e-308
1.84935e-307
-2.39675e-307
7.58999e-307
-9.77504e-307
3.15322e-306
-4.10613e-306
1.34791e-305
-1.77689e-305
5.93408e-305
-7.92292e-305
2.69116e-304
-3.64071e-304
1.25748e-303
-1.72437e-303
6.05496e-303
-8.41943e-303
3.00495e-302
-4.23829e-302
1.53723e-301
-2.19988e-301
8.10705e-301
-1.17745e-300
4.4081e-300
-6.49885e-300
2.47135e-299
-3.69908e-299
1.42866e-298
-2.17123e-298
8.51607e-298
-1.31418e-297
5.23431e-297
-8.20165e-297
3.31714e-296
-5.27702e-296
2.16726e-295
-3.49979e-295
1.45962e-294
-2.392e-294
1.01315e-293
-1.68433e-293
7.24623e-293
-1.22149e-292
5.33858e-292
-9.11951e-292
4.05007e-291
-7.00563e-291
3.16255e-290
-5.53414e-290
2.54052e-289
-4.49218e-289
2.0982e-288
-3.74366e-288
1.78023e-287
-3.20017e-287
1.55036e-286
-2.80342e-286
1.38455e-285
-2.51263e-285
1.26678e-284
-2.62917e-284
1.38243e-283
-2.69157e-283
1.43837e-282
-2.69179e-282
1.46403e-281
-2.62739e-281
1.45557e-280
-2.50043e-280
1.41224e-279
-2.31759e-279
1.33578e-278
-2.08961e-278
1.23035e-277
-1.83038e-277
1.10222e-276
-1.55542e-276
9.59136e-276
-1.28035e-275
8.09566e-275
-1.01922e-274
6.61789e-274
-7.83214e-274
5.2307e-273
-5.79862e-273
3.99017e-272
-4.12744e-272
2.93199e-271
-2.81805e-271
2.07087e-270
-1.84088e-270
1.40269e-269
-1.14721e-269
9.08816e-269
-6.79649e-269
5.61578e-268
-3.81163e-268
3.29767e-267
-2.01373e-267
1.83226e-266
-9.96913e-267
9.58559e-266
-4.59685e-266
4.69696e-265
-1.95931e-265
2.14252e-264
-7.64165e-265
9.02509e-264
-2.69102e-264
3.47243e-263
-8.41286e-264
1.20273e-262
-2.2875e-263
3.68328e-262
-5.28706e-263
9.771e-262
-1.01672e-262
2.20061e-261
-1.60383e-262
4.14373e-261
-2.07322e-262
6.47457e-261
-2.22268e-262
8.41719e-261
-2.01255e-262
9.19903e-261
-1.56548e-262
8.56313e-261
-1.05885e-262
6.8699e-261
-6.2729e-263
4.79074e-261
-3.27031e-263
2.92017e-261
-1.50869e-263
1.56242e-261
-6.24948e-264
7.37958e-262
-2.46724e-264
3.12315e-262
-9.39263e-265
1.02606e-262
-3.43494e-265
3.77874e-263
-1.21127e-265
1.33443e-263
-4.13588e-266
4.5372e-264
-1.37357e-266
1.49197e-264
-4.45722e-267
4.76708e-265
-1.4194e-267
1.48698e-265
-4.45388e-268
4.54844e-266
-1.38219e-268
1.37e-266
-4.2563e-269
4.0786e-267
-1.30443e-269
1.20421e-267
-3.98912e-270
3.5367e-268
-1.22015e-270
1.03601e-268
-3.74043e-271
3.03405e-269
-1.15132e-271
8.90207e-270
-3.564e-272
2.62163e-270
-1.11111e-272
7.76202e-271
-3.49298e-273
2.31381e-271
-1.10848e-273
6.95314e-272
-3.55445e-274
2.10873e-272
-1.15262e-274
6.46055e-273
-3.78251e-275
2.00123e-273
-1.25696e-275
6.27226e-274
-4.23177e-276
1.99031e-274
-1.44388e-276
6.39752e-275
-4.99167e-277
2.08376e-275
-1.74235e-277
6.87594e-276
-6.00113e-278
2.29054e-276
-1.7618e-278
7.52847e-277
2.10901e-277
-3.2283e-305
9.87729e-305
-1.27749e-304
4.04926e-304
-5.2031e-304
1.68025e-303
-2.18263e-303
7.17377e-303
-9.43176e-303
3.15419e-302
-4.1994e-302
1.42858e-301
-1.92681e-301
6.66624e-301
-9.11208e-301
3.20547e-300
-4.44204e-300
1.58855e-299
-2.23247e-299
8.11468e-299
-1.15683e-298
4.27316e-298
-6.18108e-298
2.31993e-297
-3.40559e-297
1.29861e-296
-1.93491e-296
7.49517e-296
-1.13361e-295
4.46052e-295
-6.84828e-295
2.73707e-294
-4.26555e-294
1.73163e-293
-2.73897e-293
1.12942e-292
-1.81278e-292
7.59331e-292
-1.23637e-291
5.26137e-291
-8.6872e-291
3.7563e-290
-6.2862e-290
2.76243e-289
-4.68267e-289
2.0919e-288
-3.58903e-288
1.63052e-287
-2.8286e-287
1.30744e-286
-2.29062e-286
1.07784e-285
-1.90437e-285
9.12857e-285
-1.62395e-284
7.93572e-284
-1.41913e-283
7.07469e-283
-1.26878e-282
6.46193e-282
-1.32406e-281
7.04018e-281
-1.35197e-280
7.31302e-280
-1.34866e-279
7.43233e-279
-1.31317e-278
7.37936e-278
-1.24676e-277
7.15118e-277
-1.15295e-276
6.75717e-276
-1.03727e-275
6.21877e-275
-9.06694e-275
5.56775e-274
-7.68977e-274
4.84318e-273
-6.31815e-273
4.08743e-272
-5.02083e-272
3.34182e-271
-3.85205e-271
2.64252e-270
-2.84767e-270
2.01735e-269
-2.02416e-269
1.484e-268
-1.3802e-268
1.04971e-267
-9.00456e-268
7.12358e-267
-5.60453e-267
4.6263e-266
-3.31652e-266
2.86696e-265
-1.85827e-265
1.68943e-264
-9.81172e-265
9.42624e-264
-4.85628e-264
4.95576e-263
-2.24012e-263
2.44229e-262
-9.56592e-263
1.12148e-261
-3.75055e-262
4.7606e-261
-1.33613e-261
1.84782e-260
-4.26581e-261
6.46249e-260
-1.19746e-260
1.99897e-259
-2.88111e-260
5.35309e-259
-5.77738e-260
1.21524e-258
-9.44986e-260
2.30192e-258
-1.25323e-259
3.61097e-258
-1.36202e-259
4.70514e-258
-1.23744e-259
5.14771e-258
-9.58977e-260
4.7933e-258
-6.43708e-260
3.84516e-258
-3.77922e-260
2.68097e-258
-1.95277e-260
1.63408e-258
-8.93688e-261
8.74483e-259
-3.67677e-261
4.13277e-259
-1.44075e-261
1.75082e-259
-5.45958e-262
5.74993e-260
-1.98983e-262
2.11914e-260
-7.00015e-263
7.49297e-261
-2.38655e-263
2.55176e-261
-7.91955e-264
8.40656e-262
-2.56935e-264
2.69167e-262
-8.18465e-265
8.41547e-263
-2.57017e-265
2.58063e-263
-7.98525e-266
7.79386e-264
-2.46262e-266
2.32692e-264
-7.56057e-267
6.89076e-265
-2.31678e-267
2.03005e-265
-7.10202e-268
5.96559e-266
-2.18237e-268
1.75276e-266
-6.73438e-269
5.15965e-267
-2.09015e-269
1.52454e-267
-6.53388e-270
4.5288e-268
-2.05972e-270
1.35448e-268
-6.55474e-271
4.08367e-269
-2.10775e-271
1.24251e-269
-6.85412e-272
3.81886e-270
-2.25559e-272
1.18665e-270
-7.51624e-273
3.73059e-271
-2.53739e-273
1.18732e-271
-8.68079e-274
3.82747e-272
-3.00887e-274
1.25014e-272
-1.05286e-274
4.13623e-273
-3.63447e-275
1.38137e-273
-1.06874e-275
4.55046e-274
1.27672e-274
-1.2518e-302
3.83257e-302
-4.95006e-302
1.57004e-301
-2.01441e-301
6.50978e-301
-8.44253e-301
2.77705e-300
-3.64481e-300
1.21998e-299
-1.62121e-299
5.52062e-299
-7.43098e-299
2.57377e-298
-3.51046e-298
1.23644e-297
-1.70943e-297
6.12158e-297
-8.5815e-297
3.12394e-296
-4.44159e-296
1.64338e-295
-2.37034e-295
8.91276e-295
-1.30436e-294
4.98373e-294
-7.40137e-294
2.87333e-293
-4.33056e-293
1.70808e-292
-2.61261e-292
1.04693e-291
-1.62505e-291
6.61598e-291
-1.04199e-290
4.31016e-290
-6.88634e-290
2.89441e-289
-4.68972e-289
2.00317e-288
-3.29016e-288
1.42845e-287
-2.37713e-287
1.04926e-286
-1.76797e-286
7.93634e-286
-1.35289e-285
6.17868e-285
-1.06451e-284
4.94868e-284
-8.60635e-284
4.07504e-283
-7.14325e-283
3.44747e-282
-6.08123e-282
2.9938e-281
-5.30534e-281
2.66627e-280
-4.73521e-280
2.43301e-279
-4.93233e-279
2.64836e-278
-5.02736e-278
2.74869e-277
-5.00663e-277
2.79163e-276
-4.86709e-276
2.77029e-275
-4.614e-275
2.6837e-274
-4.26088e-274
2.53545e-273
-3.82842e-273
2.33355e-272
-3.34257e-272
2.08984e-271
-2.8319e-271
1.81882e-270
-2.32464e-270
1.5362e-269
-1.84587e-269
1.25732e-268
-1.41526e-268
9.95582e-268
-1.04571e-267
7.61344e-267
-7.43016e-267
5.61214e-266
-5.06494e-266
3.97946e-265
-3.30383e-265
2.70828e-264
-2.0562e-264
1.76469e-263
-1.21691e-263
1.09777e-262
-6.82138e-263
6.49721e-262
-3.60493e-262
3.64325e-261
-1.78703e-261
1.9262e-260
-8.26503e-261
9.55237e-260
-3.54575e-260
4.41672e-259
-1.40162e-259
1.8889e-258
-5.06215e-259
7.38978e-258
-1.64988e-258
2.60536e-257
-4.75847e-258
8.12247e-257
-1.18034e-257
2.19118e-256
-2.43842e-257
5.00784e-256
-4.09295e-257
9.54365e-256
-5.53922e-257
1.50543e-255
-6.10536e-257
1.97135e-255
-5.59157e-257
2.16576e-255
-4.34576e-257
2.02321e-255
-2.91445e-257
1.62695e-255
-1.70557e-257
1.13643e-255
-8.77476e-258
6.93698e-256
-3.99747e-258
3.71747e-256
-1.63754e-258
1.75945e-256
-6.38119e-259
7.46623e-257
-2.41011e-259
2.45243e-257
-8.76262e-260
9.04872e-258
-3.0774e-260
3.20435e-258
-1.04807e-260
1.0932e-258
-3.47633e-261
3.60867e-259
-1.12791e-261
1.15801e-259
-3.59488e-262
3.62929e-260
-1.12996e-262
1.11584e-260
-3.51528e-263
3.37939e-261
-1.08587e-263
1.01191e-261
-3.34013e-264
3.0058e-262
-1.0257e-264
8.88336e-263
-3.15161e-265
2.61901e-263
-9.7087e-266
7.72058e-264
-3.0038e-266
2.28038e-264
-9.34836e-267
6.76079e-265
-2.93053e-267
2.01519e-265
-9.26456e-268
6.04749e-266
-2.95683e-268
1.82942e-266
-9.53566e-269
5.58475e-267
-3.10988e-269
1.72211e-267
-1.02637e-269
5.36838e-268
-3.4299e-270
1.69302e-268
-1.16114e-270
5.40483e-269
-3.98333e-271
1.7475e-269
-1.38436e-271
5.72418e-270
-4.85645e-272
1.89917e-270
-1.68014e-272
6.35945e-271
-4.94716e-273
2.09987e-271
5.90109e-272
-4.56588e-300
1.39896e-299
-1.80465e-299
5.72762e-299
-7.33948e-299
2.37333e-298
-3.07393e-298
1.01179e-297
-1.32611e-297
4.44189e-297
-5.89403e-297
2.00861e-296
-2.69941e-296
9.35751e-296
-1.27415e-295
4.49196e-295
-6.19906e-295
2.22223e-294
-3.10913e-294
1.13313e-293
-1.60769e-293
5.95606e-293
-8.57128e-293
3.2275e-292
-4.71186e-292
1.80316e-291
-2.67085e-291
1.03868e-290
-1.56103e-290
6.16905e-290
-9.40716e-290
3.77776e-289
-5.84458e-289
2.38511e-288
-3.74317e-288
1.5524e-287
-2.47084e-287
1.04151e-286
-1.68062e-286
7.20135e-286
-1.17759e-285
5.13043e-285
-8.49717e-285
3.765e-284
-6.31147e-284
2.84512e-283
-4.8233e-283
2.21299e-282
-3.79011e-282
1.77087e-281
-3.06008e-281
1.45698e-280
-2.5364e-280
1.23158e-279
-2.15635e-279
1.06868e-278
-1.87865e-278
9.51066e-278
-1.67446e-277
8.6729e-277
-1.74148e-276
9.4349e-276
-1.77247e-275
9.78712e-275
-1.76276e-274
9.93634e-274
-1.71145e-273
9.85834e-273
-1.62056e-272
9.54989e-272
-1.49493e-271
9.02376e-271
-1.34191e-270
8.30823e-270
-1.17062e-269
7.44492e-269
-9.91066e-269
6.48481e-268
-8.13063e-268
5.48317e-267
-6.45315e-267
4.49391e-266
-4.94617e-266
3.56437e-265
-3.65399e-265
2.73121e-264
-2.59618e-264
2.018e-263
-1.7699e-263
1.43481e-262
-1.15475e-262
9.79525e-262
-7.18953e-262
6.40506e-261
-4.25758e-261
4.00033e-260
-2.38897e-260
2.37821e-259
-1.26452e-259
1.3402e-258
-6.28373e-259
7.12465e-258
-2.91711e-258
3.55428e-257
-1.25884e-257
1.65375e-256
-5.02243e-257
7.11862e-256
-1.83925e-256
2.80308e-255
-6.10842e-256
9.94485e-255
-1.8017e-255
3.11887e-254
-4.5754e-255
8.46151e-254
-9.66591e-255
1.94489e-253
-1.65559e-254
3.72889e-253
-2.28026e-254
5.9204e-253
-2.54936e-254
7.80452e-253
-2.3592e-254
8.6281e-253
-1.84552e-254
8.10415e-253
-1.24158e-254
6.54594e-253
-7.27045e-255
4.58872e-253
-3.73682e-255
2.80925e-253
-1.6993e-255
1.5093e-253
-6.94644e-256
7.16072e-254
-2.6968e-256
3.04601e-254
-1.01653e-256
1.00138e-254
-3.69064e-257
3.70102e-255
-1.29497e-257
1.3132e-255
-4.40852e-258
4.48977e-256
-1.46236e-258
1.48555e-256
-4.74718e-259
4.7791e-257
-1.51444e-259
1.50185e-257
-4.76646e-260
4.63081e-258
-1.48526e-260
1.40673e-258
-4.59681e-261
4.22563e-259
-1.41705e-261
1.25933e-259
-4.36193e-262
3.73447e-260
-1.34371e-262
1.10483e-260
-4.15061e-263
3.26841e-261
-1.28781e-263
9.68812e-262
-4.01965e-264
2.88259e-262
-1.26386e-264
8.62295e-263
-4.00773e-265
2.59694e-263
-1.28302e-265
7.88381e-264
-4.15041e-266
2.41515e-264
-1.35773e-266
7.47303e-265
-4.49461e-267
2.33747e-265
-1.5065e-267
7.39607e-266
-5.11505e-268
2.36875e-266
-1.75979e-268
7.6827e-267
-6.13308e-269
2.52424e-267
-2.15727e-269
8.39964e-268
-7.48052e-270
2.82056e-268
-2.20574e-270
9.33663e-269
2.62815e-269
-1.65751e-297
5.08113e-297
-6.54759e-297
2.0791e-296
-2.6612e-296
8.60965e-296
-1.11381e-295
3.66805e-295
-4.80166e-295
1.60923e-294
-2.13256e-294
7.27184e-294
-9.75932e-294
3.38529e-293
-4.60275e-293
1.62386e-292
-2.23746e-292
8.02731e-292
-1.1212e-291
4.08996e-291
-5.79226e-291
2.14807e-290
-3.08517e-290
1.16304e-289
-1.69433e-289
6.49229e-289
-9.59432e-289
3.73656e-288
-5.60173e-288
2.21731e-287
-3.37211e-287
1.35661e-286
-2.09274e-286
8.55737e-286
-1.33878e-285
5.56469e-285
-8.82688e-285
3.72996e-284
-5.99674e-284
2.57665e-283
-4.19676e-283
1.834e-282
-3.02452e-282
1.34466e-281
-2.24371e-281
1.01521e-280
-1.71248e-280
7.88955e-280
-1.34392e-279
6.30788e-279
-1.08364e-278
5.18547e-278
-8.97018e-278
4.37975e-277
-7.61604e-277
3.79754e-276
-6.62647e-276
3.37724e-275
-5.89838e-275
3.07779e-274
-6.12536e-274
3.34628e-273
-6.22564e-273
3.46945e-272
-6.1834e-272
3.52112e-271
-5.99606e-271
3.49281e-270
-5.67115e-270
3.38347e-269
-5.22609e-269
3.19759e-268
-4.6868e-268
2.94513e-267
-4.08524e-267
2.64064e-266
-3.45622e-266
2.30199e-265
-2.83386e-265
1.94851e-264
-2.24821e-264
1.59911e-263
-1.72269e-263
1.27041e-262
-1.27245e-262
9.75348e-262
-9.04084e-262
7.22291e-261
-6.16439e-261
5.14902e-260
-4.02317e-260
3.52568e-259
-2.50617e-259
2.31319e-258
-1.48536e-258
1.45016e-257
-8.34522e-258
8.65708e-257
-4.42598e-257
4.90081e-256
-2.20594e-256
2.61818e-255
-1.02862e-255
1.31295e-254
-4.46839e-255
6.14162e-254
-1.80004e-254
2.65757e-253
-6.67913e-254
1.05165e-252
-2.2543e-253
3.74793e-252
-6.7663e-253
1.18029e-251
-1.74801e-252
3.21544e-251
-3.7537e-252
7.42586e-251
-6.53255e-252
1.43206e-250
-9.13828e-252
2.28979e-250
-1.03643e-251
3.04221e-250
-9.70752e-252
3.38964e-250
-7.66406e-252
3.20655e-250
-5.18781e-252
2.60612e-250
-3.04889e-252
1.83622e-250
-1.56984e-252
1.12893e-250
-7.14297e-253
6.08777e-251
-2.91967e-253
2.89805e-251
-1.13128e-253
1.23675e-251
-4.26142e-254
4.07245e-252
-1.54665e-254
1.50866e-252
-5.42684e-255
5.36649e-253
-1.84811e-255
1.83962e-253
-6.13482e-256
6.10369e-254
-1.99367e-256
1.96933e-254
-6.36931e-257
6.20778e-255
-2.00816e-257
1.9203e-255
-6.27038e-258
5.85308e-256
-1.94512e-258
1.76434e-256
-6.01135e-259
5.27707e-257
-1.85544e-259
1.57066e-257
-5.73219e-260
4.66418e-258
-1.77597e-260
1.38505e-258
-5.52748e-261
4.12123e-259
-1.73081e-261
1.23093e-259
-5.45974e-262
3.69629e-260
-1.73699e-262
1.11744e-260
-5.57913e-263
3.40514e-261
-1.81075e-263
1.04703e-261
-5.94306e-264
3.25163e-262
-1.97379e-264
1.02074e-262
-6.63702e-265
3.24112e-263
-2.26059e-265
1.04161e-263
-7.80147e-266
3.38963e-264
-2.72713e-266
1.11733e-264
-9.62038e-267
3.72978e-265
-3.34452e-267
1.25622e-265
-9.87855e-268
4.16945e-266
1.17575e-266
-6.0443e-295
1.85317e-294
-2.38604e-294
7.57796e-294
-9.69089e-294
3.13592e-293
-4.053e-293
1.33508e-292
-1.74591e-292
5.85296e-292
-7.74792e-292
2.64287e-291
-3.54278e-291
1.2294e-290
-1.66943e-290
5.89252e-290
-8.10811e-290
2.9105e-289
-4.05927e-289
1.48168e-288
-2.09507e-288
7.7752e-288
-1.11481e-287
4.20611e-287
-6.11613e-287
2.34582e-286
-3.45969e-286
1.34888e-285
-2.01779e-285
7.99702e-285
-1.21331e-284
4.88822e-284
-7.52128e-284
3.08052e-283
-4.80594e-283
2.00129e-282
-3.16489e-282
1.34015e-281
-2.14751e-281
9.24883e-281
-1.50105e-280
6.57674e-280
-1.0804e-279
4.81736e-279
-8.00454e-279
3.63362e-278
-6.10139e-278
2.82116e-277
-4.78191e-277
2.25352e-276
-3.85067e-276
1.85088e-275
-3.18323e-275
1.56196e-274
-2.69905e-274
1.35322e-273
-2.34518e-273
1.20254e-272
-2.08467e-272
1.09514e-271
-2.16162e-271
1.18992e-270
-2.19387e-270
1.23302e-269
-2.17605e-269
1.25086e-268
-2.10745e-268
1.24047e-267
-1.99091e-267
1.20152e-266
-1.8327e-266
1.1356e-265
-1.64197e-265
1.04623e-264
-1.42999e-264
9.38512e-264
-1.20891e-263
8.18727e-263
-9.9061e-263
6.93664e-262
-7.85513e-262
5.69964e-261
-6.01695e-261
4.53479e-260
-4.44353e-260
3.48771e-259
-3.15707e-259
2.58819e-258
-2.15294e-258
1.84949e-257
-1.40562e-257
1.26986e-256
-8.76153e-257
8.35714e-256
-5.1979e-256
5.25695e-255
-2.92477e-255
3.14991e-254
-1.55475e-254
1.79032e-253
-7.77542e-254
9.60519e-253
-3.64371e-253
4.83788e-252
-1.59405e-252
2.27278e-251
-6.483e-252
9.8741e-251
-2.43421e-251
3.92111e-250
-8.32364e-251
1.4016e-249
-2.53037e-250
4.42569e-249
-6.61466e-250
1.20922e-248
-1.43708e-249
2.80375e-248
-2.5328e-249
5.43739e-248
-3.59291e-249
8.75847e-248
-4.13305e-249
1.17376e-247
-3.92225e-249
1.31946e-247
-3.13118e-249
1.25877e-247
-2.13797e-249
1.03088e-247
-1.26412e-249
7.31204e-248
-6.5343e-250
4.52044e-248
-2.98118e-250
2.44893e-248
-1.22068e-250
1.17087e-248
-4.72848e-251
5.01705e-249
-1.78234e-251
1.65609e-249
-6.47384e-252
6.15366e-250
-2.2736e-252
2.19574e-250
-7.75157e-253
7.55081e-251
-2.57678e-253
2.51346e-251
-8.38823e-254
8.13697e-252
-2.6852e-254
2.57396e-252
-8.48533e-255
7.9912e-253
-2.65619e-255
2.44489e-253
-8.26232e-256
7.39834e-254
-2.56095e-256
2.22157e-254
-7.92908e-257
6.63888e-255
-2.45757e-257
1.97951e-255
-7.6397e-258
5.90242e-256
-2.38597e-258
1.76353e-256
-7.49741e-259
5.28909e-257
-2.37345e-259
1.59477e-257
-7.57812e-260
4.84094e-258
-2.44281e-260
1.48114e-258
-7.95686e-261
4.5725e-259
-2.62084e-261
1.42562e-259
-8.73505e-262
4.49252e-260
-2.94749e-262
1.43191e-260
-1.00738e-262
4.61879e-261
-3.48828e-263
1.50849e-261
-1.22343e-263
4.98999e-262
-4.32965e-264
1.67143e-262
-1.50953e-264
5.64796e-263
-4.4677e-265
1.88004e-263
5.31233e-264
-2.21452e-292
6.78857e-292
-8.73537e-292
2.77397e-291
-3.54506e-291
1.14706e-290
-1.48144e-290
4.87969e-290
-6.37621e-290
2.13753e-289
-2.82716e-289
9.64399e-289
-1.29158e-288
4.48238e-288
-6.08057e-288
2.14656e-287
-2.9504e-287
1.05932e-286
-1.47565e-286
5.38792e-286
-7.60836e-286
2.82473e-285
-4.04427e-285
1.52664e-284
-2.21641e-284
8.50619e-284
-1.25236e-283
4.88643e-283
-7.29585e-283
2.89411e-282
-4.38195e-282
1.76727e-281
-2.71312e-281
1.11259e-280
-1.73151e-280
7.22063e-280
-1.13884e-279
4.83029e-279
-7.71774e-279
3.33009e-278
-5.38747e-278
2.36554e-277
-3.87262e-277
1.73094e-276
-2.86533e-276
1.30427e-275
-2.18112e-275
1.01162e-274
-1.70709e-274
8.07276e-274
-1.37275e-273
6.62402e-273
-1.13323e-272
5.5848e-272
-9.59522e-272
4.83416e-271
-8.32556e-271
4.29226e-270
-7.39029e-270
3.90588e-269
-7.6512e-269
4.24084e-268
-7.7539e-268
4.39157e-267
-7.68013e-267
4.45282e-266
-7.4282e-266
4.41424e-265
-7.00879e-265
4.27473e-264
-6.44445e-264
4.04006e-263
-5.76781e-263
3.72264e-262
-5.0185e-262
3.34053e-261
-4.23918e-261
2.9158e-260
-3.47129e-260
2.47234e-259
-2.75107e-259
2.03355e-258
-2.10643e-258
1.62003e-257
-1.55522e-257
1.24791e-256
-1.10488e-256
9.27767e-256
-7.53566e-256
6.64387e-255
-4.92173e-255
4.57278e-254
-3.0699e-254
3.01758e-253
-1.82326e-253
1.90382e-252
-1.02765e-252
1.14441e-251
-5.47659e-252
6.52666e-251
-2.74903e-251
3.51399e-250
-1.29501e-250
1.77616e-249
-5.70571e-250
8.37188e-249
-2.34135e-249
3.64762e-248
-8.88074e-249
1.45182e-247
-3.06732e-248
5.19858e-247
-9.40744e-248
1.64406e-246
-2.47868e-247
4.50134e-246
-5.43057e-247
1.0473e-245
-9.67121e-247
2.04212e-245
-1.3895e-246
3.31437e-245
-1.62072e-246
4.48273e-245
-1.55923e-246
5.08813e-245
-1.26018e-246
4.90016e-245
-8.69334e-247
4.04827e-245
-5.18214e-247
2.89391e-245
-2.6947e-247
1.80143e-245
-1.23451e-247
9.81655e-246
-5.07185e-248
4.7168e-246
-1.96716e-248
2.03098e-246
-7.42881e-249
6.72619e-247
-2.70321e-249
2.50864e-247
-9.51097e-250
8.98477e-248
-3.24897e-250
3.10126e-248
-1.08233e-250
1.03623e-248
-3.53162e-251
3.36762e-249
-1.13345e-251
1.06951e-249
-3.59183e-252
3.33396e-250
-1.12777e-252
1.02428e-250
-3.5193e-253
3.11276e-251
-1.09452e-253
9.38756e-252
-3.40075e-254
2.81771e-252
-1.05788e-254
8.43883e-253
-3.3009e-255
2.5275e-253
-1.03485e-255
7.58546e-254
-3.2644e-256
2.28515e-254
-1.03745e-256
6.92086e-255
-3.32548e-257
2.1101e-255
-1.07619e-257
6.48429e-256
-3.51917e-258
2.01043e-256
-1.16367e-258
6.29478e-257
-3.8934e-259
1.99195e-257
-1.31877e-259
6.37499e-258
-4.52421e-260
2.06459e-258
-1.57243e-260
6.7694e-259
-5.53502e-261
2.24788e-259
-1.96572e-261
7.55761e-260
-6.87546e-262
2.56299e-260
-2.03974e-262
8.55896e-261
2.4242e-261
-8.14293e-290
2.49513e-289
-3.20936e-289
1.01874e-288
-1.30132e-288
4.20905e-288
-5.43321e-288
1.78902e-287
-2.33635e-287
7.82981e-287
-1.03494e-286
3.52942e-286
-4.72352e-286
1.63891e-285
-2.22155e-285
7.84116e-285
-1.07683e-284
3.86587e-284
-5.3801e-284
1.96433e-283
-2.77095e-283
1.02882e-282
-1.47128e-282
5.55464e-282
-8.05395e-282
3.09175e-281
-4.5455e-281
1.7742e-280
-2.64488e-280
1.0497e-279
-1.58659e-279
6.40299e-279
-9.81121e-279
4.02663e-278
-6.2535e-278
2.61039e-277
-4.10766e-277
1.74431e-276
-2.77999e-276
1.20122e-275
-1.93798e-275
8.52347e-275
-1.39114e-274
6.22998e-274
-1.02786e-273
4.68917e-273
-7.81316e-273
3.63306e-272
-6.10638e-272
2.89609e-271
-4.90337e-271
2.37387e-270
-4.04197e-270
1.99941e-269
-3.41743e-269
1.72899e-268
-2.96091e-268
1.53374e-267
-2.62444e-267
1.39446e-266
-2.71274e-266
1.51281e-265
-2.74494e-265
1.56541e-264
-2.71486e-264
1.58626e-263
-2.62217e-263
1.57177e-262
-2.4709e-262
1.52159e-261
-2.2692e-261
1.43782e-260
-2.02868e-260
1.32487e-259
-1.76335e-259
1.18911e-258
-1.48819e-258
1.03833e-257
-1.21768e-257
8.80949e-257
-9.64422e-257
7.25202e-256
-7.38076e-256
5.78353e-255
-5.44759e-255
4.46095e-254
-3.86964e-254
3.32176e-253
-2.63944e-253
2.38313e-252
-1.72449e-252
1.64367e-251
-1.07639e-251
1.08718e-250
-6.40017e-251
6.87643e-250
-3.61376e-250
4.1446e-249
-1.93097e-249
2.3703e-248
-9.72958e-249
1.27978e-247
-4.60739e-248
6.48622e-247
-2.04371e-247
3.06456e-246
-8.4534e-247
1.33772e-245
-3.23293e-246
5.33107e-245
-1.12484e-245
1.91039e-244
-3.47006e-245
6.04611e-244
-9.19021e-245
1.65783e-243
-2.02616e-244
3.86908e-243
-3.6406e-244
7.58444e-243
-5.29289e-244
1.2404e-242
-6.25771e-244
1.69371e-242
-6.10482e-244
1.94217e-242
-4.99873e-244
1.88966e-242
-3.48796e-244
1.57625e-242
-2.09901e-244
1.13671e-242
-1.09989e-244
7.1317e-243
-5.06812e-245
3.91376e-243
-2.09146e-245
1.89191e-243
-8.13346e-246
8.19038e-244
-3.08073e-246
2.72369e-244
-1.12417e-246
1.02037e-244
-3.96602e-247
3.67052e-245
-1.35852e-247
1.27244e-245
-4.53855e-248
4.27004e-246
-1.48539e-248
1.3938e-246
-4.78255e-249
4.44629e-247
-1.52069e-249
1.39236e-247
-4.79168e-250
4.29753e-248
-1.50086e-250
1.31216e-248
-4.6858e-251
3.97616e-249
-1.46172e-251
1.19921e-249
-4.56564e-252
3.60898e-250
-1.43056e-252
1.08618e-250
-4.5039e-253
3.27568e-251
-1.42683e-253
9.91605e-252
-4.55415e-254
3.0177e-252
-1.46612e-254
9.24478e-253
-4.76518e-255
2.85438e-253
-1.56495e-255
8.89144e-254
-5.19694e-256
2.79684e-254
-1.74618e-256
8.89077e-255
-5.93954e-257
2.85811e-255
-2.0461e-257
9.29689e-256
-7.14056e-258
3.06142e-256
-2.52365e-258
1.02089e-256
-8.99764e-259
3.44652e-257
-3.15837e-259
1.17346e-257
-9.39595e-260
3.9329e-258
1.11705e-258
-3.00167e-287
9.19096e-287
-1.18194e-286
3.74915e-286
-4.78795e-286
1.54756e-285
-1.99708e-285
6.57148e-285
-8.5791e-285
2.87328e-284
-3.79641e-284
1.29389e-283
-1.73087e-283
6.00221e-283
-8.1318e-283
2.86873e-282
-3.93729e-282
1.41287e-281
-1.96494e-281
7.17144e-281
-1.01084e-280
3.75195e-280
-5.36086e-280
2.02348e-279
-2.93104e-279
1.12502e-278
-1.65217e-278
6.44864e-278
-9.6013e-278
3.81093e-277
-5.7521e-277
2.32191e-276
-3.5523e-276
1.45846e-275
-2.26113e-275
9.4438e-275
-1.4832e-274
6.30302e-274
-1.0024e-273
4.33543e-273
-6.97805e-273
3.07261e-272
-5.00187e-272
2.24316e-271
-3.69031e-271
1.68638e-270
-2.801e-270
1.30504e-269
-2.18587e-269
1.03911e-268
-1.75261e-268
8.50777e-268
-1.44254e-267
7.15784e-267
-1.21781e-266
6.18314e-266
-1.05353e-265
5.47932e-265
-9.32384e-265
4.97692e-264
-9.6216e-264
5.39438e-263
-9.72034e-263
5.57716e-262
-9.59917e-262
5.64736e-261
-9.25801e-261
5.59242e-260
-8.71196e-260
5.41144e-259
-7.9905e-259
5.11197e-258
-7.13506e-258
4.70971e-257
-6.1951e-257
4.22725e-256
-5.22327e-256
3.69204e-255
-4.27017e-255
3.13375e-254
-3.3796e-254
2.58133e-253
-2.58494e-253
2.06036e-252
-1.90712e-252
1.59089e-251
-1.35442e-251
1.18616e-250
-9.23863e-251
8.52277e-250
-6.038e-250
5.8884e-249
-3.77135e-249
3.90224e-248
-2.24504e-248
2.47324e-247
-1.26992e-247
1.49388e-246
-6.80373e-247
8.56208e-246
-3.44105e-246
4.63268e-245
-1.63762e-245
2.35245e-244
-7.30861e-245
1.11317e-243
-3.04347e-244
4.86389e-243
-1.17136e-243
1.93912e-242
-4.09588e-243
6.94887e-242
-1.26795e-242
2.19952e-241
-3.36878e-242
6.03739e-241
-7.46268e-242
1.41301e-240
-1.35142e-241
2.78429e-240
-1.98664e-241
4.58866e-240
-2.38001e-241
6.32641e-240
-2.35463e-241
7.33192e-240
-1.95426e-241
7.21114e-240
-1.38035e-241
6.07766e-240
-8.39485e-242
4.42499e-240
-4.43797e-242
2.80053e-240
-2.06e-242
1.54902e-240
-8.54829e-243
7.54196e-241
-3.33703e-243
3.28491e-241
-1.26906e-243
1.09771e-241
-4.64817e-244
4.13358e-242
-1.6457e-244
1.49444e-242
-5.657e-245
5.20623e-243
-1.89665e-245
1.75568e-243
-6.23026e-246
5.75906e-244
-2.01363e-246
1.84633e-244
-6.42806e-247
5.81101e-245
-2.0338e-247
1.80277e-245
-6.39736e-248
5.53288e-246
-2.00602e-248
1.68536e-246
-6.28568e-249
5.1098e-247
-1.97226e-249
1.5459e-247
-6.2083e-250
4.67724e-248
-1.96373e-250
1.41801e-248
-6.25043e-251
4.31518e-249
-2.00446e-251
1.3201e-249
-6.48358e-252
4.06516e-250
-2.11728e-252
1.26161e-250
-6.98629e-253
3.94992e-251
-2.33092e-253
1.24871e-251
-7.86841e-254
3.98914e-252
-2.68875e-254
1.28864e-252
-9.30467e-255
4.21182e-253
-3.26184e-255
1.39348e-253
-1.15794e-255
4.66836e-254
-4.14628e-256
1.5832e-254
-1.46127e-256
5.41409e-255
-4.36125e-257
1.82191e-255
5.19162e-256
-1.10621e-284
3.38364e-284
-4.35121e-284
1.37878e-283
-1.76071e-283
5.68522e-283
-7.33587e-283
2.41151e-282
-3.14777e-282
1.05322e-281
-1.39133e-281
4.73753e-281
-6.33588e-281
2.19516e-280
-2.97305e-280
1.04795e-279
-1.43773e-279
5.15509e-279
-7.16603e-279
2.61348e-278
-3.68173e-278
1.36565e-277
-1.94998e-277
7.35599e-277
-1.06471e-276
4.08468e-276
-5.99332e-276
2.33836e-275
-3.47802e-275
1.38011e-274
-2.08069e-274
8.39772e-274
-1.28309e-273
5.26791e-273
-8.15504e-273
3.40653e-272
-5.34126e-272
2.27055e-271
-3.60427e-271
1.55966e-270
-2.50513e-270
1.10387e-269
-1.79283e-269
8.04792e-269
-1.3206e-268
6.04216e-268
-1.00072e-267
4.66957e-267
-7.79668e-267
3.71308e-266
-6.2409e-266
3.0361e-265
-5.1282e-265
2.55106e-264
-4.32197e-264
2.20089e-263
-3.73263e-263
1.94798e-262
-3.29778e-262
1.76727e-261
-3.39683e-261
1.91333e-260
-3.42556e-260
1.976e-259
-3.37701e-259
1.99891e-258
-3.25154e-258
1.97775e-257
-3.05486e-257
1.91232e-256
-2.79758e-256
1.80539e-255
-2.49446e-255
1.66254e-254
-2.16289e-254
1.49176e-253
-1.82129e-253
1.30268e-252
-1.48723e-252
1.10571e-251
-1.17584e-251
9.10964e-251
-8.98548e-251
7.2738e-250
-6.62441e-250
5.61951e-249
-4.702e-249
4.19295e-248
-3.20622e-248
3.01545e-247
-2.09537e-247
2.0856e-246
-1.3092e-246
1.38375e-245
-7.79964e-246
8.78115e-245
-4.4181e-245
5.31062e-244
-2.37224e-244
3.04738e-243
-1.20355e-243
1.65057e-242
-5.7513e-243
8.3879e-242
-2.57919e-242
3.97034e-241
-1.0793e-241
1.73434e-240
-4.17054e-241
6.90863e-240
-1.46175e-240
2.47291e-239
-4.52957e-240
7.82046e-239
-1.20471e-239
2.14692e-238
-2.67673e-239
5.03475e-238
-4.87784e-239
9.96472e-238
-7.24034e-239
1.65369e-237
-8.77969e-239
2.30052e-237
-8.80179e-239
2.6933e-237
-7.40134e-239
2.67684e-237
-5.2914e-239
2.27916e-237
-3.25278e-239
1.6753e-237
-1.73571e-239
1.06966e-237
-8.1218e-240
5.96498e-238
-3.39303e-240
2.92642e-238
-1.33068e-240
1.28348e-238
-5.08595e-241
4.3119e-239
-1.87169e-241
1.63331e-239
-6.65726e-242
5.93938e-240
-2.29882e-242
2.08106e-240
-7.74281e-243
7.05838e-241
-2.55537e-243
2.32878e-241
-8.29881e-244
7.50989e-242
-2.66232e-244
2.37768e-242
-8.46614e-245
7.42072e-243
-2.67685e-245
2.29133e-243
-8.43817e-246
7.02222e-244
-2.65822e-246
2.14211e-244
-8.38607e-247
6.5205e-245
-2.65427e-247
1.98495e-245
-8.44205e-248
6.05466e-246
-2.70195e-248
1.85373e-246
-8.71302e-249
5.70523e-247
-2.83393e-249
1.76743e-247
-9.30565e-250
5.51771e-248
-3.08741e-250
1.73766e-248
-1.03571e-250
5.52518e-249
-3.51513e-251
1.77516e-249
-1.2076e-251
5.76668e-250
-4.20116e-252
1.89522e-250
-1.48047e-252
6.30448e-251
-5.28274e-253
2.12342e-251
-1.90113e-253
7.23908e-252
-6.73155e-254
2.48817e-252
-2.01695e-254
8.4127e-253
2.40671e-253
-3.46931e-282
1.06194e-281
-1.3598e-281
4.31284e-281
-5.48228e-281
1.77205e-280
-2.27552e-280
7.48903e-280
-9.72605e-280
3.2585e-279
-4.28169e-279
1.46002e-278
-1.94173e-278
6.738e-278
-9.07245e-278
3.20338e-277
-4.36796e-277
1.56912e-276
-2.16721e-276
7.92016e-276
-1.10823e-275
4.11994e-275
-5.84117e-275
2.20887e-274
-3.17341e-274
1.22068e-273
-1.77712e-273
6.95358e-273
-1.02581e-272
4.08318e-272
-6.10314e-272
2.47155e-271
-3.74231e-271
1.54207e-270
-2.36466e-270
9.91663e-270
-1.53946e-269
6.57207e-269
-1.03239e-268
4.48794e-268
-7.12973e-268
3.15725e-267
-5.06891e-267
2.28758e-266
-3.70845e-266
1.70652e-265
-2.79057e-265
1.31023e-264
-2.15851e-264
1.03486e-263
-1.71499e-263
8.40346e-263
-1.39847e-262
7.01101e-262
-1.16933e-261
6.00475e-261
-1.00167e-260
5.27509e-260
-8.77522e-260
4.74906e-259
-8.95747e-259
5.10094e-258
-8.95006e-258
5.22423e-257
-8.73988e-257
5.24003e-256
-8.33368e-256
5.1397e-255
-7.75178e-255
4.92575e-254
-7.02658e-254
4.60832e-253
-6.19967e-253
4.20452e-252
-5.31786e-252
3.73699e-251
-4.42857e-251
3.23181e-250
-3.57533e-250
2.716e-249
-2.79386e-249
2.21495e-248
-2.10952e-248
1.75017e-247
-1.53616e-247
1.33766e-246
-1.07668e-246
9.87091e-246
-7.24751e-246
7.01816e-245
-4.6745e-245
4.79685e-244
-2.88181e-244
3.14363e-243
-1.69379e-243
1.96939e-242
-9.46512e-243
1.17503e-241
-5.01388e-242
6.64707e-241
-2.50986e-241
3.54619e-240
-1.1834e-240
1.77323e-239
-5.23445e-240
8.24931e-239
-2.15816e-239
3.53716e-238
-8.2009e-239
1.38142e-237
-2.82008e-238
4.84363e-237
-8.559e-238
1.50006e-236
-2.22938e-237
4.03501e-236
-4.85999e-237
9.28494e-236
-8.71714e-237
1.80689e-235
-1.27804e-236
2.95525e-235
-1.5354e-236
4.0602e-235
-1.52835e-236
4.70251e-235
-1.27796e-236
4.62985e-235
-9.09613e-237
3.90965e-235
-5.57469e-237
2.85421e-235
-2.97107e-237
1.81338e-235
-1.39161e-237
1.0087e-235
-5.83398e-238
4.95049e-236
-2.29912e-238
2.1787e-236
-8.85547e-239
7.35857e-237
-3.29065e-239
2.81086e-237
-1.18383e-239
1.03299e-237
-4.14084e-240
3.66454e-238
-1.41458e-240
1.26035e-238
-4.74025e-241
4.22213e-239
-1.56448e-241
1.38394e-239
-5.10432e-242
4.45754e-240
-1.65173e-242
1.41625e-240
-5.31676e-243
4.45413e-241
-1.7068e-243
1.3909e-241
-5.47692e-244
4.32439e-242
-1.76024e-244
1.34182e-242
-5.67614e-245
4.1641e-243
-1.83927e-245
1.29485e-243
-5.99698e-246
4.04111e-244
-1.96983e-246
1.26764e-244
-6.52505e-247
4.00182e-245
-2.18166e-247
1.27284e-245
-7.36848e-248
4.0829e-246
-2.51566e-248
1.32196e-246
-8.68682e-249
4.32358e-247
-3.03542e-249
1.42932e-247
-1.07375e-249
4.77877e-248
-3.84617e-250
1.61662e-248
-1.39447e-250
5.53527e-249
-5.09574e-251
1.91755e-249
-1.82955e-251
6.69297e-250
-5.54127e-252
2.2947e-250