/*--------------------------------*- C++ -*----------------------------------*\
  =========                 |
  \\      /  F ield         | OpenFOAM: The Open Source CFD Toolbox
   \\    /   O peration     | Website:  https://openfoam.org
    \\  /    A nd           | Version:  9
     \\/     M anipulation  |
\*---------------------------------------------------------------------------*/
FoamFile
{
    format      ascii;
    class       volScalarField;
    location    "0.04";
    object      p;
}
// * * * * * * * * * * * * * * * * * * * * * * * * * * * * * * * * * * * * * //

dimensions      [1 -1 -2 0 0 0 0];

internalField   nonuniform List<scalar> 
20000
(
0.857891
0.857896
0.857895
0.857892
0.857889
0.857883
0.857876
0.857867
0.857854
0.857839
0.857819
0.857795
0.857766
0.85773
0.857688
0.857637
0.857577
0.857506
0.857423
0.857325
0.85721
0.857077
0.856921
0.856741
0.856532
0.85629
0.85601
0.855686
0.855312
0.854879
0.854336
0.853675
0.852944
0.85214
0.851258
0.850294
0.849241
0.848094
0.846845
0.845489
0.844017
0.842421
0.840692
0.838818
0.836787
0.834581
0.832176
0.829538
0.826635
0.823443
0.819941
0.816092
0.811837
0.807132
0.80203
0.796781
0.791933
0.78836
0.78706
0.788701
0.793213
0.799752
0.80717
0.814525
0.821281
0.82724
0.832397
0.83683
0.84063
0.843882
0.8464
0.848306
0.849879
0.851187
0.85228
0.853197
0.853968
0.854615
0.855158
0.855614
0.855996
0.856315
0.856582
0.856804
0.856988
0.857142
0.857269
0.857374
0.857461
0.857534
0.857593
0.857643
0.857684
0.857719
0.857748
0.857773
0.857795
0.857815
0.857834
0.857856
0.855932
0.855938
0.85594
0.855941
0.855942
0.855941
0.855939
0.855934
0.855927
0.855917
0.855904
0.855887
0.855865
0.855837
0.855804
0.855763
0.855714
0.855654
0.855584
0.8555
0.855401
0.855285
0.855149
0.854989
0.854803
0.854586
0.854333
0.854039
0.853697
0.853301
0.852802
0.852189
0.851508
0.850755
0.849926
0.849017
0.848022
0.846936
0.845752
0.844464
0.843066
0.841549
0.839904
0.838122
0.83619
0.834095
0.831816
0.829334
0.826625
0.823674
0.820469
0.816999
0.813256
0.809266
0.80514
0.80112
0.797625
0.795222
0.794499
0.795826
0.799157
0.804015
0.809711
0.815616
0.821292
0.826504
0.831163
0.835264
0.83884
0.841935
0.844354
0.84621
0.847757
0.849052
0.850137
0.851049
0.851817
0.852463
0.853008
0.853466
0.853852
0.854176
0.854449
0.854678
0.854871
0.855033
0.855169
0.855284
0.85538
0.855462
0.855532
0.855592
0.855643
0.855689
0.855729
0.855765
0.855798
0.855829
0.855859
0.85589
0.85396
0.853963
0.853967
0.853971
0.853974
0.853976
0.853977
0.853976
0.853973
0.853967
0.853959
0.853947
0.853931
0.853911
0.853884
0.853851
0.85381
0.853761
0.853701
0.853629
0.853542
0.85344
0.853319
0.853176
0.853008
0.852811
0.85258
0.85231
0.851994
0.851626
0.851162
0.850588
0.849947
0.849236
0.848451
0.847588
0.846641
0.845605
0.844476
0.843246
0.84191
0.84046
0.838888
0.837186
0.835343
0.833347
0.831184
0.828838
0.826295
0.823548
0.820593
0.817437
0.814094
0.81062
0.807133
0.803852
0.801108
0.799314
0.79888
0.800048
0.802785
0.806761
0.811489
0.816499
0.821437
0.826082
0.830323
0.834119
0.837474
0.840405
0.842715
0.844499
0.845996
0.847253
0.84831
0.8492
0.849949
0.850581
0.851113
0.851561
0.851938
0.852255
0.852522
0.852747
0.852936
0.853095
0.853228
0.853341
0.853437
0.853517
0.853587
0.853646
0.853697
0.853742
0.853782
0.853817
0.853849
0.853879
0.853906
0.853933
0.851994
0.851999
0.852004
0.85201
0.852016
0.852021
0.852025
0.852028
0.852029
0.852028
0.852025
0.852019
0.85201
0.851996
0.851977
0.851952
0.85192
0.851881
0.851831
0.851771
0.851698
0.85161
0.851504
0.851378
0.851229
0.851052
0.850843
0.850597
0.850307
0.849968
0.849538
0.849003
0.848404
0.847736
0.846996
0.846179
0.845282
0.8443
0.843227
0.842058
0.840786
0.839407
0.837912
0.836294
0.834544
0.832654
0.830612
0.828409
0.826036
0.823491
0.820782
0.817923
0.814944
0.811907
0.80893
0.8062
0.803985
0.8026
0.802347
0.803398
0.805724
0.809082
0.813106
0.817431
0.821765
0.825912
0.829758
0.833249
0.836368
0.839119
0.841302
0.842996
0.844425
0.845628
0.846642
0.847496
0.848215
0.848821
0.849331
0.84976
0.850121
0.850423
0.850677
0.85089
0.851068
0.851218
0.851343
0.851448
0.851537
0.851611
0.851674
0.851728
0.851774
0.851813
0.851848
0.851878
0.851905
0.851929
0.851951
0.851974
0.850031
0.850041
0.85005
0.85006
0.85007
0.85008
0.850089
0.850097
0.850103
0.850109
0.850112
0.850113
0.850111
0.850105
0.850095
0.85008
0.850059
0.850031
0.849994
0.849947
0.849889
0.849817
0.849729
0.849622
0.849493
0.849339
0.849154
0.848934
0.848674
0.848367
0.847975
0.847483
0.846929
0.846309
0.845619
0.844855
0.844014
0.84309
0.84208
0.840978
0.839779
0.838478
0.837068
0.835543
0.833897
0.832123
0.830214
0.828165
0.825972
0.823641
0.821184
0.818622
0.815996
0.813373
0.810861
0.808622
0.806866
0.805826
0.805715
0.806648
0.808602
0.811405
0.814794
0.818491
0.82226
0.825928
0.829382
0.83256
0.83543
0.837983
0.840023
0.841615
0.842962
0.8441
0.84506
0.845869
0.84655
0.847123
0.847604
0.848008
0.848346
0.848629
0.848865
0.849063
0.849227
0.849364
0.849477
0.849572
0.84965
0.849716
0.84977
0.849816
0.849855
0.849887
0.849915
0.84994
0.849961
0.84998
0.849997
0.850014
0.84807
0.848084
0.848099
0.848114
0.848129
0.848144
0.848159
0.848173
0.848186
0.848199
0.84821
0.848219
0.848226
0.848229
0.84823
0.848225
0.848216
0.8482
0.848177
0.848146
0.848103
0.848049
0.84798
0.847893
0.847787
0.847656
0.847498
0.847307
0.847078
0.846805
0.846453
0.846008
0.845503
0.844933
0.844297
0.84359
0.842808
0.841947
0.841004
0.839974
0.838852
0.837634
0.836315
0.83489
0.833354
0.831702
0.829932
0.828041
0.826033
0.823915
0.821705
0.819431
0.817136
0.814889
0.812789
0.810971
0.809595
0.808833
0.808827
0.809654
0.811294
0.813627
0.816469
0.819613
0.82287
0.826091
0.829169
0.832035
0.834652
0.836999
0.838885
0.840365
0.841622
0.842684
0.843581
0.844337
0.844972
0.845505
0.845951
0.846324
0.846634
0.846892
0.847106
0.847283
0.847429
0.847549
0.847647
0.847728
0.847793
0.847847
0.84789
0.847925
0.847954
0.847977
0.847996
0.848012
0.848026
0.848037
0.848047
0.848056
0.846111
0.846129
0.846149
0.846169
0.84619
0.846211
0.846232
0.846253
0.846274
0.846294
0.846314
0.846332
0.846348
0.846362
0.846373
0.84638
0.846383
0.846381
0.846373
0.846357
0.846331
0.846295
0.846246
0.846181
0.846097
0.845992
0.845861
0.8457
0.845503
0.845265
0.844954
0.844558
0.844102
0.843586
0.843004
0.842356
0.841635
0.84084
0.839967
0.839011
0.837969
0.836836
0.83561
0.834286
0.832862
0.831335
0.829705
0.827972
0.826144
0.824232
0.822255
0.820246
0.818248
0.816328
0.814571
0.813089
0.812006
0.811447
0.811513
0.812252
0.81365
0.815619
0.818025
0.820713
0.823532
0.826356
0.829087
0.831659
0.834028
0.836167
0.837896
0.839257
0.840414
0.841394
0.84222
0.842915
0.843497
0.843983
0.844388
0.844723
0.845
0.845227
0.845414
0.845565
0.845688
0.845786
0.845865
0.845927
0.845975
0.846012
0.84604
0.846061
0.846076
0.846086
0.846093
0.846097
0.8461
0.8461
0.8461
0.846099
0.844151
0.844175
0.844201
0.844227
0.844254
0.844282
0.84431
0.844339
0.844367
0.844396
0.844424
0.844452
0.844478
0.844503
0.844525
0.844545
0.844562
0.844574
0.844581
0.844581
0.844573
0.844556
0.844527
0.844484
0.844424
0.844345
0.844242
0.84411
0.843947
0.843745
0.843477
0.843129
0.842725
0.842263
0.841739
0.84115
0.840493
0.839765
0.838963
0.838083
0.837122
0.836077
0.834946
0.833726
0.832414
0.831012
0.82952
0.827942
0.826288
0.82457
0.822812
0.821043
0.819309
0.817667
0.816194
0.81498
0.814121
0.813711
0.813823
0.814491
0.815699
0.817385
0.819445
0.82176
0.824209
0.826686
0.829104
0.831401
0.833531
0.835467
0.837036
0.838274
0.839327
0.840218
0.840967
0.841595
0.842118
0.842551
0.842908
0.8432
0.843438
0.84363
0.843783
0.843904
0.843999
0.844071
0.844125
0.844164
0.844191
0.844208
0.844217
0.84422
0.844218
0.844212
0.844203
0.844193
0.844181
0.844169
0.844155
0.844143
0.842192
0.842222
0.842254
0.842287
0.842321
0.842356
0.842392
0.842429
0.842466
0.842504
0.842542
0.842579
0.842617
0.842653
0.842688
0.842721
0.842752
0.842779
0.842802
0.84282
0.842831
0.842833
0.842825
0.842805
0.84277
0.842717
0.842643
0.842543
0.842413
0.842248
0.842024
0.841727
0.841376
0.84097
0.840504
0.839977
0.839386
0.838727
0.837998
0.837196
0.836318
0.835363
0.834328
0.833212
0.832014
0.830736
0.829381
0.827955
0.826468
0.824935
0.823379
0.821831
0.820331
0.818932
0.817698
0.816703
0.816024
0.815729
0.815873
0.816478
0.817532
0.818986
0.82076
0.822761
0.824892
0.827062
0.829196
0.831236
0.83314
0.834876
0.836286
0.837399
0.838345
0.839142
0.83981
0.840365
0.840823
0.841198
0.841502
0.841746
0.84194
0.842091
0.842207
0.842294
0.842356
0.842398
0.842423
0.842436
0.842437
0.842431
0.842417
0.842399
0.842377
0.842352
0.842326
0.842298
0.84227
0.842242
0.842214
0.842188
0.840233
0.84027
0.840309
0.840349
0.84039
0.840433
0.840478
0.840523
0.84057
0.840617
0.840665
0.840714
0.840763
0.840812
0.84086
0.840908
0.840953
0.840996
0.841036
0.841072
0.841102
0.841125
0.84114
0.841143
0.841134
0.841108
0.841064
0.840996
0.840901
0.840774
0.840596
0.840351
0.840055
0.839706
0.839301
0.838838
0.838313
0.837725
0.837071
0.836349
0.835557
0.834692
0.833755
0.832744
0.83166
0.830506
0.829286
0.828007
0.82668
0.825322
0.823955
0.822608
0.821318
0.820132
0.819104
0.818294
0.817761
0.817559
0.817726
0.818277
0.819201
0.820459
0.821992
0.823723
0.825575
0.827472
0.829348
0.83115
0.832837
0.83438
0.835633
0.83662
0.837456
0.838157
0.838739
0.839217
0.839606
0.839919
0.840166
0.840358
0.840503
0.84061
0.840684
0.840732
0.840757
0.840765
0.840759
0.840741
0.840714
0.84068
0.840641
0.840599
0.840554
0.840507
0.84046
0.840413
0.840367
0.840321
0.840275
0.840233
0.838275
0.838318
0.838364
0.838412
0.838462
0.838513
0.838566
0.838621
0.838677
0.838735
0.838795
0.838855
0.838917
0.838979
0.839041
0.839103
0.839164
0.839224
0.839282
0.839337
0.839387
0.839431
0.839469
0.839497
0.839514
0.839517
0.839503
0.839468
0.83941
0.839322
0.83919
0.838999
0.83876
0.83847
0.838127
0.837729
0.837273
0.836757
0.83618
0.835539
0.834833
0.83406
0.833221
0.832315
0.831344
0.830312
0.829224
0.828087
0.826915
0.825722
0.82453
0.823366
0.822264
0.821265
0.820414
0.81976
0.819348
0.81922
0.819403
0.819907
0.820721
0.821816
0.823144
0.824644
0.826252
0.827905
0.829546
0.831127
0.832611
0.833967
0.835066
0.835928
0.836653
0.837255
0.837749
0.838147
0.838464
0.83871
0.838896
0.839032
0.839125
0.839183
0.839212
0.839217
0.839202
0.839173
0.83913
0.839079
0.83902
0.838956
0.838889
0.838819
0.838748
0.838677
0.838607
0.838538
0.83847
0.838404
0.83834
0.83828
0.836316
0.836367
0.836421
0.836477
0.836535
0.836595
0.836658
0.836722
0.836789
0.836858
0.836929
0.837002
0.837076
0.837152
0.837229
0.837307
0.837384
0.837462
0.837538
0.837612
0.837683
0.83775
0.837811
0.837865
0.837909
0.837941
0.837959
0.837959
0.837937
0.83789
0.837806
0.83767
0.837488
0.837258
0.836979
0.836647
0.836261
0.835819
0.83532
0.834761
0.834141
0.833461
0.83272
0.831919
0.83106
0.830148
0.829188
0.828189
0.827163
0.826124
0.825094
0.824098
0.823165
0.82233
0.821631
0.821108
0.820797
0.820728
0.820922
0.821385
0.822108
0.823065
0.824219
0.82552
0.826915
0.828352
0.82978
0.831158
0.832449
0.833627
0.834575
0.835313
0.835928
0.83643
0.836833
0.837149
0.83739
0.837567
0.837689
0.837765
0.837802
0.837808
0.837788
0.837747
0.837689
0.837618
0.837537
0.837448
0.837354
0.837257
0.837158
0.837059
0.83696
0.836862
0.836766
0.836672
0.836581
0.836493
0.836408
0.836327
0.834358
0.834417
0.834479
0.834543
0.83461
0.83468
0.834752
0.834827
0.834905
0.834985
0.835068
0.835154
0.835242
0.835332
0.835424
0.835518
0.835613
0.835708
0.835804
0.835898
0.835991
0.836081
0.836166
0.836246
0.836318
0.83638
0.836431
0.836466
0.836482
0.836476
0.836441
0.836361
0.836238
0.83607
0.835854
0.83559
0.835276
0.834909
0.834488
0.834012
0.83348
0.832892
0.832249
0.831552
0.830804
0.830009
0.829173
0.828306
0.827418
0.826525
0.825645
0.824802
0.82402
0.82333
0.822763
0.822352
0.822125
0.822105
0.822307
0.822735
0.823379
0.82422
0.825225
0.826354
0.827563
0.828807
0.830042
0.831232
0.832343
0.83335
0.834152
0.834769
0.835272
0.835674
0.835985
0.836217
0.83638
0.836485
0.83654
0.836553
0.836532
0.836482
0.83641
0.83632
0.836215
0.8361
0.835976
0.835848
0.835716
0.835583
0.83545
0.835318
0.835188
0.83506
0.834936
0.834816
0.8347
0.834587
0.834478
0.834376
0.8324
0.832467
0.832537
0.83261
0.832687
0.832766
0.832849
0.832935
0.833024
0.833116
0.833212
0.833311
0.833413
0.833518
0.833626
0.833737
0.833849
0.833963
0.834079
0.834194
0.834309
0.834422
0.834533
0.83464
0.834741
0.834834
0.834917
0.834988
0.835044
0.83508
0.835094
0.835071
0.835008
0.834903
0.834753
0.834558
0.834315
0.834023
0.833681
0.833289
0.832845
0.832349
0.831804
0.83121
0.83057
0.82989
0.829175
0.828434
0.827678
0.826921
0.826181
0.825477
0.824831
0.82427
0.82382
0.823505
0.82335
0.823371
0.823579
0.823976
0.824554
0.825295
0.826172
0.827151
0.828196
0.829267
0.830328
0.831343
0.832285
0.83313
0.833791
0.834288
0.834682
0.834983
0.835201
0.835347
0.83543
0.835461
0.835446
0.835394
0.835311
0.835203
0.835076
0.834933
0.834779
0.834616
0.834448
0.834277
0.834105
0.833933
0.833763
0.833596
0.833432
0.833273
0.833119
0.832969
0.832825
0.832686
0.832552
0.832425
0.830442
0.830518
0.830596
0.830679
0.830765
0.830854
0.830948
0.831045
0.831146
0.831251
0.83136
0.831473
0.831589
0.83171
0.831834
0.831962
0.832093
0.832226
0.832361
0.832499
0.832636
0.832774
0.832911
0.833045
0.833175
0.8333
0.833418
0.833525
0.83362
0.8337
0.833765
0.8338
0.833798
0.833756
0.833672
0.833546
0.833376
0.833161
0.832899
0.83259
0.832233
0.83183
0.831382
0.830889
0.830356
0.829788
0.82919
0.82857
0.82794
0.827311
0.8267
0.826124
0.825602
0.825157
0.824809
0.824579
0.824486
0.824542
0.824756
0.825127
0.825647
0.826302
0.827067
0.827916
0.828815
0.829732
0.830633
0.831488
0.832271
0.832961
0.833485
0.833866
0.834151
0.834352
0.834476
0.834535
0.834537
0.834491
0.834404
0.834284
0.834137
0.833968
0.833782
0.833585
0.833378
0.833165
0.83295
0.832734
0.832518
0.832305
0.832096
0.831892
0.831692
0.831499
0.831312
0.831131
0.830957
0.830789
0.830628
0.830475
0.828485
0.828568
0.828656
0.828748
0.828844
0.828944
0.829049
0.829158
0.829271
0.829389
0.829511
0.829638
0.82977
0.829907
0.830048
0.830193
0.830342
0.830495
0.830652
0.830811
0.830972
0.831135
0.831298
0.83146
0.831621
0.831778
0.83193
0.832076
0.832211
0.832335
0.832451
0.832546
0.832605
0.832627
0.832611
0.832555
0.832458
0.832319
0.832137
0.831912
0.831643
0.831332
0.830979
0.830587
0.830159
0.829699
0.829214
0.828711
0.8282
0.827692
0.827201
0.826744
0.826335
0.825994
0.825738
0.825584
0.825545
0.825633
0.825851
0.8262
0.826671
0.827251
0.82792
0.828653
0.829423
0.8302
0.830956
0.831663
0.832297
0.832839
0.833231
0.833498
0.833677
0.833777
0.833808
0.833779
0.833698
0.833573
0.833412
0.833221
0.833007
0.832775
0.832529
0.832273
0.832012
0.831747
0.831481
0.831217
0.830956
0.8307
0.830449
0.830205
0.829967
0.829738
0.829516
0.829302
0.829096
0.828897
0.828707
0.828526
0.826527
0.82662
0.826717
0.826819
0.826925
0.827036
0.827152
0.827273
0.827398
0.82753
0.827666
0.827808
0.827955
0.828108
0.828266
0.828429
0.828598
0.828771
0.828949
0.82913
0.829316
0.829504
0.829694
0.829885
0.830077
0.830267
0.830455
0.830638
0.830815
0.830983
0.831152
0.831306
0.831428
0.831515
0.831566
0.831581
0.831558
0.831496
0.831395
0.831253
0.831072
0.830852
0.830594
0.830301
0.829975
0.829622
0.829246
0.828855
0.828457
0.828063
0.827686
0.827338
0.827034
0.826788
0.826615
0.826528
0.826538
0.826654
0.826877
0.827207
0.827636
0.828151
0.828736
0.829368
0.830022
0.830674
0.831296
0.831866
0.83236
0.832762
0.833027
0.833182
0.833256
0.833257
0.833194
0.833076
0.83291
0.832705
0.832468
0.832204
0.831921
0.831622
0.831313
0.830997
0.830678
0.830358
0.83004
0.829726
0.829417
0.829115
0.82882
0.828534
0.828257
0.827989
0.82773
0.82748
0.827241
0.82701
0.826787
0.826577
0.82457
0.824672
0.824779
0.824891
0.825008
0.82513
0.825257
0.82539
0.825529
0.825673
0.825824
0.825981
0.826144
0.826313
0.826489
0.82667
0.826858
0.827052
0.827252
0.827456
0.827666
0.82788
0.828098
0.828319
0.828542
0.828766
0.82899
0.829212
0.829431
0.829644
0.829865
0.83008
0.830265
0.830417
0.830537
0.830623
0.830674
0.83069
0.830668
0.830611
0.830517
0.830387
0.830223
0.830027
0.829802
0.829552
0.829283
0.829
0.828711
0.828425
0.828154
0.827909
0.8277
0.827542
0.827445
0.827419
0.827475
0.827616
0.827845
0.828159
0.828553
0.829012
0.829523
0.830065
0.830617
0.831154
0.831655
0.832097
0.83246
0.832728
0.832869
0.832916
0.832887
0.832789
0.832632
0.832424
0.832172
0.831885
0.83157
0.831231
0.830876
0.830509
0.830134
0.829756
0.829376
0.828999
0.828626
0.82826
0.827901
0.82755
0.82721
0.826879
0.82656
0.826251
0.825953
0.825666
0.825391
0.825125
0.82487
0.824629
0.822612
0.822724
0.822841
0.822963
0.823091
0.823224
0.823364
0.823509
0.823661
0.823819
0.823985
0.824157
0.824336
0.824522
0.824715
0.824916
0.825124
0.825338
0.82556
0.825788
0.826022
0.826263
0.826509
0.82676
0.827015
0.827273
0.827534
0.827796
0.828057
0.828315
0.82859
0.828867
0.829115
0.829333
0.829522
0.82968
0.829805
0.829897
0.829957
0.829983
0.829975
0.829936
0.829865
0.829765
0.829639
0.82949
0.829323
0.829144
0.828959
0.828777
0.828607
0.828457
0.828339
0.828262
0.828234
0.828266
0.828363
0.828529
0.828765
0.829067
0.82943
0.829842
0.830288
0.83075
0.831209
0.831643
0.832032
0.832355
0.832594
0.832734
0.832757
0.832699
0.832567
0.832372
0.83212
0.831821
0.831483
0.831112
0.830716
0.830301
0.829872
0.829434
0.828991
0.828548
0.828106
0.827669
0.827239
0.826817
0.826406
0.826005
0.825616
0.825239
0.824875
0.824524
0.824185
0.823859
0.823546
0.823245
0.822955
0.822681
0.820655
0.820776
0.820903
0.821036
0.821175
0.82132
0.821472
0.82163
0.821796
0.821968
0.822148
0.822335
0.822531
0.822734
0.822945
0.823165
0.823393
0.823629
0.823873
0.824125
0.824384
0.824652
0.824926
0.825207
0.825495
0.825788
0.826086
0.826388
0.826692
0.826996
0.827326
0.827664
0.827976
0.828261
0.828519
0.828748
0.828948
0.829118
0.829258
0.829367
0.829446
0.829495
0.829516
0.829511
0.829482
0.829432
0.829365
0.829287
0.829203
0.82912
0.829045
0.828987
0.828953
0.828951
0.82899
0.829075
0.829211
0.829401
0.829645
0.82994
0.830277
0.830647
0.831037
0.831428
0.831804
0.832144
0.83243
0.832642
0.832764
0.832782
0.832691
0.832529
0.832297
0.832004
0.831658
0.831268
0.830841
0.830386
0.829907
0.829413
0.828908
0.828397
0.827884
0.827373
0.826866
0.826367
0.825878
0.825399
0.824932
0.824479
0.824039
0.823614
0.823203
0.822807
0.822425
0.822059
0.821706
0.821367
0.821042
0.820733
0.818698
0.818829
0.818966
0.81911
0.819261
0.819418
0.819582
0.819753
0.819932
0.820118
0.820313
0.820517
0.820728
0.820949
0.821179
0.821417
0.821665
0.821923
0.822189
0.822465
0.822751
0.823045
0.823349
0.823661
0.823981
0.82431
0.824645
0.824987
0.825334
0.825686
0.82607
0.82647
0.826846
0.827199
0.827526
0.827827
0.828102
0.828349
0.828569
0.828761
0.828926
0.829064
0.829176
0.829264
0.82933
0.829377
0.829409
0.829428
0.829441
0.829453
0.82947
0.829498
0.829545
0.829615
0.829716
0.829852
0.830027
0.830241
0.830495
0.830784
0.831101
0.831436
0.831775
0.832104
0.832405
0.83266
0.83285
0.832959
0.83297
0.832871
0.832668
0.832405
0.832074
0.831684
0.831244
0.830762
0.830246
0.829704
0.829142
0.828567
0.827984
0.827397
0.826812
0.826231
0.825657
0.825094
0.824542
0.824004
0.82348
0.822971
0.822479
0.822002
0.821543
0.8211
0.820674
0.820264
0.819871
0.819493
0.81913
0.818785
0.816741
0.816882
0.81703
0.817185
0.817347
0.817516
0.817692
0.817877
0.818069
0.818271
0.818481
0.8187
0.818928
0.819166
0.819414
0.819673
0.819941
0.82022
0.82051
0.82081
0.821121
0.821443
0.821776
0.822119
0.822473
0.822837
0.82321
0.823593
0.823984
0.824382
0.824821
0.825284
0.825725
0.826145
0.826542
0.826915
0.827265
0.827589
0.827889
0.828164
0.828414
0.82864
0.828843
0.829023
0.829183
0.829325
0.829452
0.829568
0.829675
0.829779
0.829883
0.829995
0.830118
0.830258
0.830419
0.830604
0.830816
0.831056
0.831321
0.831607
0.831908
0.832213
0.83251
0.832783
0.833016
0.833193
0.833295
0.833306
0.833212
0.833001
0.83269
0.832328
0.831899
0.831413
0.830878
0.830303
0.829697
0.829067
0.82842
0.827762
0.827099
0.826435
0.825775
0.825122
0.824479
0.823849
0.823232
0.822632
0.822048
0.821482
0.820934
0.820405
0.819895
0.819403
0.81893
0.818476
0.81804
0.817621
0.817219
0.816837
0.814784
0.814935
0.815094
0.81526
0.815433
0.815615
0.815804
0.816002
0.816208
0.816424
0.816649
0.816884
0.81713
0.817386
0.817652
0.81793
0.818219
0.81852
0.818833
0.819158
0.819495
0.819844
0.820206
0.820581
0.820968
0.821368
0.82178
0.822203
0.822638
0.823084
0.823578
0.824104
0.824611
0.825098
0.825564
0.82601
0.826434
0.826837
0.827216
0.827574
0.827909
0.828222
0.828514
0.828786
0.829039
0.829275
0.829496
0.829704
0.829903
0.830096
0.830287
0.830479
0.830676
0.830883
0.831102
0.831336
0.831586
0.831851
0.83213
0.832418
0.832706
0.832987
0.833246
0.83347
0.833642
0.833746
0.833766
0.833686
0.833492
0.833173
0.832757
0.832298
0.831772
0.83119
0.83056
0.829892
0.829195
0.828476
0.827742
0.826999
0.826254
0.825511
0.824774
0.824047
0.823332
0.822632
0.821948
0.821283
0.820637
0.820011
0.819406
0.818822
0.818258
0.817716
0.817195
0.816694
0.816213
0.815752
0.815309
0.814888
0.812827
0.812988
0.813158
0.813335
0.813521
0.813714
0.813916
0.814128
0.814348
0.814579
0.814819
0.815071
0.815333
0.815606
0.815892
0.816189
0.816499
0.816822
0.817158
0.817507
0.817871
0.818248
0.81864
0.819046
0.819467
0.819903
0.820353
0.820818
0.821297
0.82179
0.82234
0.822929
0.823501
0.824056
0.824592
0.82511
0.82561
0.826089
0.826549
0.826989
0.827409
0.827809
0.82819
0.828552
0.828897
0.829225
0.829538
0.829838
0.830127
0.830407
0.830681
0.830952
0.831222
0.831495
0.831771
0.832054
0.832342
0.832634
0.832929
0.83322
0.833501
0.833761
0.833988
0.834168
0.834286
0.834324
0.834268
0.834102
0.833812
0.833388
0.832869
0.832315
0.831693
0.831015
0.83029
0.829529
0.828739
0.82793
0.827108
0.826279
0.82545
0.824625
0.823809
0.823005
0.822216
0.821444
0.820691
0.819958
0.819248
0.81856
0.817895
0.817253
0.816634
0.816039
0.815467
0.814918
0.814391
0.813885
0.8134
0.812938
0.81087
0.811042
0.811222
0.811411
0.811608
0.811814
0.812029
0.812254
0.812489
0.812734
0.81299
0.813258
0.813537
0.813828
0.814132
0.81445
0.81478
0.815125
0.815485
0.815859
0.816249
0.816654
0.817076
0.817514
0.817968
0.81844
0.818929
0.819435
0.819959
0.8205
0.821105
0.821757
0.822395
0.823017
0.823624
0.824215
0.824789
0.825345
0.825885
0.826407
0.826912
0.827398
0.827868
0.82832
0.828755
0.829175
0.829579
0.829969
0.830347
0.830713
0.831069
0.831417
0.831759
0.832097
0.83243
0.832761
0.833088
0.83341
0.833723
0.834022
0.834298
0.834543
0.834743
0.834884
0.834952
0.83493
0.834802
0.834555
0.834174
0.833648
0.833029
0.83238
0.831664
0.83089
0.830071
0.829215
0.828332
0.827431
0.826519
0.825602
0.824687
0.823779
0.822881
0.821998
0.821131
0.820285
0.81946
0.818658
0.81788
0.817127
0.8164
0.815698
0.815023
0.814373
0.813748
0.813148
0.812573
0.812021
0.811491
0.810987
0.808913
0.809095
0.809287
0.809487
0.809696
0.809914
0.810142
0.810381
0.81063
0.81089
0.811162
0.811445
0.811741
0.812051
0.812374
0.812711
0.813063
0.81343
0.813813
0.814212
0.814628
0.815061
0.815512
0.815982
0.816471
0.816978
0.817506
0.818054
0.818622
0.819211
0.819872
0.820588
0.821291
0.821981
0.822658
0.823321
0.82397
0.824604
0.825223
0.825827
0.826416
0.826989
0.827547
0.828088
0.828614
0.829124
0.829619
0.830098
0.830563
0.831014
0.831451
0.831876
0.832289
0.832692
0.833084
0.833464
0.833832
0.834185
0.834518
0.834827
0.835104
0.835337
0.835514
0.835622
0.835645
0.835567
0.835373
0.835049
0.83458
0.833957
0.833239
0.832498
0.831686
0.830818
0.829903
0.828952
0.827975
0.826981
0.825977
0.82497
0.823967
0.822972
0.82199
0.821025
0.820079
0.819155
0.818256
0.817382
0.816534
0.815715
0.814923
0.814159
0.813424
0.812717
0.812038
0.811385
0.81076
0.810159
0.809583
0.809035
0.806956
0.807149
0.807351
0.807563
0.807784
0.808015
0.808256
0.808508
0.808771
0.809046
0.809333
0.809633
0.809946
0.810274
0.810616
0.810973
0.811345
0.811735
0.812141
0.812565
0.813007
0.813469
0.81395
0.814451
0.814973
0.815517
0.816084
0.816673
0.817286
0.817922
0.818639
0.819418
0.820187
0.820945
0.821692
0.822427
0.823151
0.823863
0.824562
0.825248
0.825921
0.826581
0.827226
0.827857
0.828472
0.829072
0.829656
0.830224
0.830776
0.831311
0.83183
0.832331
0.832816
0.833284
0.833734
0.834166
0.834576
0.834962
0.83532
0.835643
0.835922
0.836148
0.836307
0.836386
0.836369
0.836241
0.835985
0.835588
0.835035
0.834316
0.833502
0.832669
0.831763
0.8308
0.829789
0.828742
0.82767
0.826581
0.825483
0.824385
0.823291
0.822207
0.821139
0.820089
0.819061
0.818057
0.81708
0.816132
0.815212
0.814323
0.813464
0.812636
0.811839
0.811072
0.810336
0.809629
0.808951
0.8083
0.807676
0.807081
0.804999
0.805202
0.805416
0.805638
0.805871
0.806115
0.806369
0.806634
0.806912
0.807202
0.807504
0.807821
0.808151
0.808496
0.808857
0.809234
0.809628
0.810039
0.810469
0.810918
0.811386
0.811876
0.812386
0.812919
0.813475
0.814055
0.81466
0.815291
0.815948
0.816633
0.817406
0.818248
0.819082
0.819908
0.820725
0.821533
0.822332
0.823121
0.8239
0.824668
0.825426
0.826171
0.826904
0.827623
0.828328
0.829018
0.829692
0.830348
0.830987
0.831606
0.832206
0.832785
0.833342
0.833876
0.834387
0.834871
0.835326
0.835748
0.836132
0.836472
0.836759
0.836982
0.837128
0.837182
0.83713
0.836955
0.836642
0.836176
0.835542
0.834731
0.833822
0.832897
0.831899
0.830839
0.829732
0.828589
0.827419
0.826234
0.82504
0.823847
0.82266
0.821485
0.820327
0.81919
0.818077
0.816992
0.815935
0.814909
0.813914
0.812953
0.812024
0.811129
0.810268
0.809439
0.808643
0.807879
0.807146
0.806442
0.805768
0.805125
0.803042
0.803256
0.80348
0.803714
0.803959
0.804214
0.804482
0.804761
0.805052
0.805357
0.805675
0.806008
0.806355
0.806719
0.807098
0.807495
0.80791
0.808343
0.808796
0.809269
0.809764
0.810281
0.810822
0.811386
0.811976
0.812592
0.813236
0.813908
0.814609
0.815341
0.81617
0.817075
0.817975
0.818868
0.819755
0.820636
0.82151
0.822376
0.823235
0.824086
0.824927
0.825759
0.826579
0.827388
0.828182
0.828962
0.829725
0.83047
0.831195
0.8319
0.832581
0.833238
0.833869
0.834472
0.835044
0.835583
0.836085
0.836546
0.836961
0.837321
0.837619
0.837843
0.83798
0.838015
0.837932
0.837716
0.837349
0.836817
0.836105
0.835204
0.834202
0.833188
0.832095
0.830941
0.829736
0.828494
0.827226
0.825942
0.82465
0.82336
0.822077
0.820809
0.819559
0.818332
0.817131
0.81596
0.814821
0.813714
0.812642
0.811606
0.810605
0.80964
0.808711
0.807818
0.80696
0.806136
0.805345
0.804587
0.80386
0.803166
0.801086
0.801309
0.801544
0.801789
0.802046
0.802314
0.802594
0.802886
0.803192
0.803511
0.803845
0.804194
0.804559
0.80494
0.805338
0.805755
0.80619
0.806646
0.807122
0.80762
0.80814
0.808685
0.809255
0.809851
0.810474
0.811126
0.811808
0.812521
0.813267
0.814046
0.81493
0.815899
0.816864
0.817825
0.818782
0.819735
0.820683
0.821627
0.822566
0.823499
0.824425
0.825343
0.826252
0.827149
0.828033
0.828903
0.829755
0.83059
0.831403
0.832193
0.832957
0.833694
0.8344
0.835073
0.835709
0.836305
0.836857
0.837361
0.837809
0.838195
0.838508
0.838738
0.83887
0.83889
0.838781
0.838526
0.83811
0.837516
0.83673
0.835741
0.834647
0.833543
0.832358
0.831107
0.829803
0.828461
0.827093
0.825708
0.824316
0.822926
0.821545
0.82018
0.818835
0.817516
0.816225
0.814965
0.81374
0.81255
0.811398
0.810283
0.809207
0.80817
0.80717
0.806209
0.805286
0.8044
0.803549
0.802733
0.801951
0.801204
0.799129
0.799362
0.799608
0.799864
0.800132
0.800413
0.800705
0.801011
0.801331
0.801665
0.802014
0.802379
0.802761
0.803159
0.803576
0.804013
0.804469
0.804946
0.805445
0.805967
0.806514
0.807086
0.807685
0.808312
0.808969
0.809656
0.810376
0.81113
0.81192
0.812746
0.813685
0.814717
0.815747
0.816775
0.817802
0.818827
0.819851
0.820873
0.821892
0.822908
0.823918
0.824922
0.825919
0.826905
0.82788
0.82884
0.829783
0.830707
0.831609
0.832486
0.833336
0.834153
0.834936
0.835681
0.836384
0.837041
0.837647
0.838196
0.838682
0.839097
0.83943
0.83967
0.839802
0.839812
0.839681
0.839393
0.838931
0.838279
0.837421
0.836347
0.835162
0.833969
0.83269
0.831341
0.829938
0.828495
0.827023
0.825535
0.824041
0.822549
0.821067
0.819602
0.81816
0.816745
0.81536
0.814009
0.812695
0.811419
0.810183
0.808987
0.807833
0.806719
0.805647
0.804615
0.803624
0.802672
0.801758
0.800882
0.800041
0.799239
0.797172
0.797415
0.797671
0.797939
0.798219
0.798511
0.798816
0.799135
0.799469
0.799817
0.800182
0.800562
0.800961
0.801377
0.801813
0.802268
0.802745
0.803244
0.803766
0.804312
0.804884
0.805484
0.806112
0.806769
0.807459
0.808182
0.80894
0.809734
0.810567
0.81144
0.812434
0.813528
0.814622
0.815718
0.816815
0.817913
0.819012
0.820112
0.821211
0.822309
0.823404
0.824495
0.82558
0.826656
0.827721
0.828773
0.829808
0.830823
0.831816
0.832781
0.833717
0.834618
0.835481
0.836301
0.837074
0.837794
0.838457
0.839056
0.839584
0.840032
0.84039
0.840645
0.840782
0.840786
0.840638
0.840322
0.839818
0.83911
0.838183
0.837025
0.835751
0.834469
0.833096
0.831649
0.830144
0.828597
0.827021
0.825428
0.823828
0.822231
0.820646
0.819079
0.817536
0.816022
0.81454
0.813095
0.811689
0.810323
0.809
0.80772
0.806484
0.805291
0.804142
0.803036
0.801973
0.800952
0.799973
0.799032
0.79813
0.797269
0.795215
0.795468
0.795735
0.796013
0.796304
0.796608
0.796926
0.797258
0.797605
0.797968
0.798347
0.798744
0.799159
0.799593
0.800046
0.800521
0.801018
0.801538
0.802083
0.802653
0.803251
0.803877
0.804533
0.805222
0.805944
0.806702
0.807497
0.808331
0.809207
0.810127
0.811175
0.812331
0.81349
0.814653
0.815819
0.81699
0.818164
0.819341
0.820521
0.821702
0.822882
0.82406
0.825234
0.8264
0.827557
0.828701
0.829829
0.830937
0.832022
0.833078
0.834102
0.835089
0.836035
0.836933
0.837779
0.838567
0.839291
0.839944
0.840519
0.841006
0.841393
0.841668
0.841816
0.841818
0.841658
0.841317
0.840775
0.840015
0.839022
0.837782
0.836418
0.835047
0.83358
0.832034
0.830427
0.828774
0.827091
0.82539
0.823682
0.821978
0.820286
0.818613
0.816966
0.81535
0.813769
0.812226
0.810724
0.809266
0.807852
0.806485
0.805163
0.803888
0.802659
0.801476
0.800338
0.799244
0.798194
0.797186
0.796219
0.795294
0.793257
0.793521
0.793797
0.794087