/*--------------------------------*- C++ -*----------------------------------*\
  =========                 |
  \\      /  F ield         | OpenFOAM: The Open Source CFD Toolbox
   \\    /   O peration     | Website:  https://openfoam.org
    \\  /    A nd           | Version:  9
     \\/     M anipulation  |
\*---------------------------------------------------------------------------*/
FoamFile
{
    format      ascii;
    class       volScalarField;
    location    "0.04";
    object      p_rgh;
}
// * * * * * * * * * * * * * * * * * * * * * * * * * * * * * * * * * * * * * //

dimensions      [1 -1 -2 0 0 0 0];

internalField   nonuniform List<scalar> 
20000
(
1.8213e-05
2.38149e-05
2.24265e-05
1.9979e-05
1.63551e-05
1.11604e-05
3.98292e-06
-5.5812e-06
-1.79613e-05
-3.36414e-05
-5.31801e-05
-7.72225e-05
-0.000106511
-0.000141899
-0.000184361
-0.000235013
-0.000295122
-0.000366137
-0.000449703
-0.000547697
-0.00066226
-0.000795833
-0.000951213
-0.00113161
-0.0013407
-0.00158278
-0.00186279
-0.00218654
-0.00256079
-0.00299333
-0.00353592
-0.00419778
-0.00492854
-0.00573233
-0.00661387
-0.00757837
-0.00863137
-0.00977883
-0.0110271
-0.0123833
-0.013855
-0.0154508
-0.0171803
-0.0190542
-0.0210853
-0.0232912
-0.0256967
-0.0283342
-0.031237
-0.0344298
-0.0379316
-0.0417799
-0.0460352
-0.05074
-0.0558419
-0.0610913
-0.0659395
-0.0695128
-0.0708119
-0.0691714
-0.0646597
-0.0581205
-0.0507028
-0.0433476
-0.0365916
-0.0306328
-0.0254749
-0.0210423
-0.0172419
-0.0139905
-0.011472
-0.00956679
-0.0079935
-0.00668555
-0.00559216
-0.00467505
-0.00390465
-0.00325736
-0.00271388
-0.00225805
-0.0018763
-0.0015571
-0.00129066
-0.00106865
-0.000883968
-0.000730598
-0.000603414
-0.000498073
-0.000410896
-0.000338772
-0.000279067
-0.00022955
-0.000188318
-0.000153745
-0.000124442
-9.92592e-05
-7.73156e-05
-5.7759e-05
-3.85639e-05
-1.6139e-05
2.11805e-05
2.77086e-05
2.94323e-05
3.1112e-05
3.18394e-05
3.10706e-05
2.85248e-05
2.39014e-05
1.68367e-05
6.90243e-06
-6.40293e-06
-2.36626e-05
-4.55508e-05
-7.28438e-05
-0.000106432
-0.000147336
-0.000196721
-0.000255925
-0.000326478
-0.000410136
-0.000508915
-0.000625135
-0.000761469
-0.000921002
-0.0011073
-0.00132448
-0.00157732
-0.00187134
-0.00221291
-0.00260926
-0.00310815
-0.00372139
-0.00440254
-0.00515526
-0.0059839
-0.0068932
-0.00788833
-0.00897479
-0.0101586
-0.0114461
-0.0128445
-0.0143617
-0.0160064
-0.0177886
-0.0197201
-0.0218157
-0.024094
-0.0265767
-0.0292854
-0.0322365
-0.0354411
-0.0389113
-0.0426545
-0.046644
-0.0507707
-0.05479
-0.0582852
-0.060688
-0.0614113
-0.0600841
-0.0567532
-0.0518957
-0.0461991
-0.0402946
-0.0346188
-0.0294067
-0.0247473
-0.020646
-0.0170699
-0.0139749
-0.011556
-0.00970066
-0.00815285
-0.00685847
-0.00577303
-0.00486085
-0.00409322
-0.00344684
-0.00290249
-0.00244419
-0.00205851
-0.0017341
-0.00146137
-0.00123217
-0.00103956
-0.000877672
-0.000741503
-0.000626812
-0.000530003
-0.00044802
-0.000378267
-0.00031853
-0.000266911
-0.000221776
-0.000181715
-0.000145523
-0.000112291
-8.14327e-05
-5.16482e-05
-2.02622e-05
1.20241e-05
1.51652e-05
1.83798e-05
2.23665e-05
2.55854e-05
2.76442e-05
2.8346e-05
2.73899e-05
2.44125e-05
1.89977e-05
1.06663e-05
-1.1336e-06
-1.7036e-05
-3.77681e-05
-6.41625e-05
-9.71722e-05
-0.000137889
-0.000187566
-0.000247645
-0.000319787
-0.000405909
-0.000508232
-0.000629325
-0.000772169
-0.000940217
-0.00113746
-0.00136853
-0.00163875
-0.00195424
-0.00232184
-0.00278632
-0.00336048
-0.00400133
-0.00471221
-0.00549722
-0.00636079
-0.00730772
-0.00834316
-0.00947266
-0.0107022
-0.0120384
-0.0134883
-0.0150599
-0.0167622
-0.0186053
-0.0206015
-0.0227647
-0.0251105
-0.0276529
-0.0304006
-0.0333549
-0.0365117
-0.0398539
-0.0433285
-0.0468153
-0.0500959
-0.0528406
-0.0546339
-0.0550687
-0.0539003
-0.0511631
-0.0471876
-0.0424596
-0.037449
-0.032511
-0.0278661
-0.0236258
-0.0198291
-0.0164747
-0.0135432
-0.0112331
-0.00944925
-0.00795228
-0.00669522
-0.00563823
-0.00474851
-0.0039991
-0.00336769
-0.00283573
-0.0023877
-0.0020105
-0.00169308
-0.00142607
-0.00120153
-0.0010127
-0.000853829
-0.000720048
-0.000607212
-0.000511807
-0.00043085
-0.000361812
-0.000302556
-0.000251274
-0.000206446
-0.000166802
-0.000131263
-9.89809e-05
-6.95604e-05
-4.24953e-05
-1.54459e-05
7.16889e-06
1.221e-05
1.79071e-05
2.39488e-05
2.95255e-05
3.44521e-05
3.84959e-05
4.13381e-05
4.26213e-05
4.19423e-05
3.88402e-05
3.27889e-05
2.31884e-05
9.35469e-06
-9.49309e-06
-3.42473e-05
-6.5931e-05
-0.000105721
-0.000154974
-0.000215262
-0.000288408
-0.000376533
-0.000482102
-0.000607988
-0.000757524
-0.000934577
-0.00114361
-0.00138979
-0.00167901
-0.00201791
-0.00244821
-0.00298298
-0.00358274
-0.00425068
-0.00499073
-0.00580702
-0.00670401
-0.00768649
-0.00875957
-0.00992872
-0.0111999
-0.0125795
-0.0140744
-0.0156924
-0.0174419
-0.0193323
-0.0213741
-0.0235776
-0.0259506
-0.028495
-0.0312041
-0.0340634
-0.0370426
-0.0400793
-0.0430568
-0.0457861
-0.0480017
-0.049386
-0.0496393
-0.0485888
-0.0462624
-0.0429048
-0.0388806
-0.0345555
-0.0302214
-0.0260747
-0.0222288
-0.0187377
-0.015618
-0.0128673
-0.0106847
-0.00898997
-0.00756157
-0.00635846
-0.00534483
-0.00449076
-0.00377123
-0.00316528
-0.00265526
-0.00222631
-0.00186583
-0.00156316
-0.00130923
-0.00109633
-0.000917917
-0.000768421
-0.000643111
-0.000537974
-0.000449611
-0.000375144
-0.000312147
-0.000258577
-0.000212722
-0.000173153
-0.00013868
-0.000108311
-8.12511e-05
-5.70881e-05
-3.52346e-05
-1.27292e-05
6.6895e-06
1.62214e-05
2.61399e-05
3.61476e-05
4.59364e-05
5.53583e-05
6.41936e-05
7.21771e-05
7.90016e-05
8.43079e-05
8.76785e-05
8.8633e-05
8.66213e-05
8.1014e-05
7.10909e-05
5.60263e-05
3.48706e-05
6.52808e-06
-3.02713e-05
-7.70053e-05
-0.000135398
-0.000207464
-0.000295559
-0.000402431
-0.000531283
-0.000685829
-0.000870366
-0.00108984
-0.00134994
-0.00165707
-0.00204965
-0.00254089
-0.00309511
-0.00371538
-0.00440541
-0.00516907
-0.00601046
-0.00693397
-0.00794425
-0.00904623
-0.0102452
-0.0115466
-0.0129565
-0.014481
-0.0161269
-0.017901
-0.01981
-0.0218595
-0.0240519
-0.026383
-0.0288405
-0.0314019
-0.0340281
-0.0366518
-0.0391635
-0.0414023
-0.0431587
-0.0441981
-0.0443093
-0.0433765
-0.0414223
-0.0386195
-0.0352307
-0.0315334
-0.0277642
-0.0240964
-0.020642
-0.0174647
-0.014594
-0.0120409
-0.0100017
-0.00840946
-0.0070621
-0.00592439
-0.00496457
-0.00415559
-0.00347441
-0.00290147
-0.00242017
-0.00201639
-0.00167813
-0.00139518
-0.00115884
-0.000961708
-0.000797481
-0.000660809
-0.000547146
-0.00045264
-0.000374031
-0.000308566
-0.000253923
-0.000208147
-0.000169595
-0.000136892
-0.000108882
-8.45898e-05
-6.32294e-05
-4.43667e-05
-2.74649e-05
-1.00072e-05
8.07096e-06
2.21328e-05
3.6723e-05
5.16512e-05
6.6701e-05
8.16866e-05
9.64129e-05
0.000110652
0.000124133
0.00013654
0.0001475
0.000156586
0.000163302
0.000167081
0.000167267
0.000163105
0.000153723
0.000138106
0.000115073
8.32408e-05
4.09864e-05
-1.35961e-05
-8.27435e-05
-0.000169075
-0.000275645
-0.000406005
-0.000564258
-0.000755124
-0.000984041
-0.00125712
-0.00160927
-0.00205401
-0.00255958
-0.00312888
-0.00376539
-0.00447267
-0.00525452
-0.0061149
-0.00705799
-0.00808815
-0.00920994
-0.0104281
-0.0117473
-0.0131727
-0.0147088
-0.0163603
-0.0181306
-0.020021
-0.0220293
-0.0241469
-0.0263569
-0.0286313
-0.0309261
-0.0331732
-0.0352731
-0.0370918
-0.0384672
-0.0392297
-0.039235
-0.0384084
-0.0367685
-0.034435
-0.0315932
-0.0284495
-0.0251923
-0.0219715
-0.0188936
-0.0160269
-0.0134098
-0.011063
-0.00917684
-0.00769704
-0.00644077
-0.00537805
-0.004481
-0.00372538
-0.00309017
-0.00255726
-0.00211112
-0.00173847
-0.00142795
-0.00116984
-0.000955856
-0.000778939
-0.000633075
-0.000513153
-0.00041484
-0.000334464
-0.000268921
-0.000215592
-0.000172267
-0.000137088
-0.000108491
-8.5167e-05
-6.60195e-05
-5.01264e-05
-3.6744e-05
-2.54352e-05
-1.5715e-05
-5.90239e-06
1.02978e-05
2.9102e-05
4.87142e-05
6.90071e-05
8.97616e-05
0.000110803
0.00013197
0.000153061
0.000173839
0.000194018
0.000213272
0.000231216
0.000247411
0.000261342
0.000272418
0.000279951
0.000283142
0.000281056
0.000272595
0.000256468
0.00023115
0.000194845
0.000145437
8.04414e-05
-3.04177e-06
-0.000108385
-0.000239488
-0.000400833
-0.000597584
-0.000835562
-0.00114602
-0.0015428
-0.00199814
-0.00251474
-0.00309586
-0.00374479
-0.00446499
-0.00526004
-0.00613365
-0.00708962
-0.00813182
-0.00926411
-0.0104903
-0.0118139
-0.013238
-0.0147651
-0.0163957
-0.0181281
-0.0199564
-0.0218687
-0.0238449
-0.0258544
-0.0278518
-0.0297727
-0.0315294
-0.0330117
-0.0340944
-0.0346533
-0.0345875
-0.033848
-0.0324506
-0.0304815
-0.0280753
-0.0253876
-0.0225684
-0.0197446
-0.0170129
-0.0144414
-0.0120726
-0.00993293
-0.00820457
-0.00684377
-0.00568629
-0.00470655
-0.00388013
-0.00318543
-0.00260337
-0.00211731
-0.00171282
-0.00137747
-0.00110055
-0.000872891
-0.000686635
-0.000535078
-0.000412509
-0.000314077
-0.000235666
-0.000173796
-0.000125527
-8.83812e-05
-6.02733e-05
-3.945e-05
-2.44396e-05
-1.40112e-05
-7.13708e-06
-2.95764e-06
-7.84485e-07
-2.04079e-07
-7.00945e-07
-9.22949e-07
1.29604e-05
3.71498e-05
6.24563e-05
8.87449e-05
0.000115806
0.000143502
0.000171705
0.000200249
0.000228932
0.000257513
0.000285707
0.000313179
0.000339537
0.000364324
0.000387008
0.000406964
0.000423462
0.00043564
0.00044248
0.000442778
0.000435106
0.000417774
0.000388787
0.000345804
0.000286085
0.000206449
0.000103211
-2.78634e-05
-0.000191658
-0.000393709
-0.000661528
-0.00100915
-0.00141291
-0.00187535
-0.00239952
-0.00298845
-0.00364528
-0.00437321
-0.00517551
-0.00605544
-0.00701623
-0.00806093
-0.00919234
-0.0104128
-0.011724
-0.0131263
-0.0146184
-0.0161959
-0.0178505
-0.019568
-0.0213265
-0.023095
-0.0248294
-0.0264709
-0.027944
-0.0291587
-0.0300175
-0.0304272
-0.0303152
-0.0296478
-0.028439
-0.0267536
-0.0246932
-0.0223783
-0.0199292
-0.0174524
-0.0150338
-0.0127375
-0.0106069
-0.00867136
-0.00710224
-0.00586434
-0.00481099
-0.00392029
-0.00317085
-0.00254345
-0.00202083
-0.00158772
-0.0012308
-0.000938474
-0.000700698
-0.000508832
-0.000355463
-0.00023425
-0.000139792
-6.7494e-05
-1.34656e-05
2.55848e-05
5.24344e-05
6.94219e-05
7.85134e-05
8.13588e-05
7.93397e-05
7.36095e-05
6.51282e-05
5.46959e-05
4.29403e-05
3.02017e-05
1.69887e-05
4.75988e-06
1.58867e-05
4.6092e-05
7.77473e-05
0.000110682
0.000144714
0.000179741
0.000215665
0.000252359
0.000289659
0.000327366
0.00036524
0.000402996
0.000440293
0.000476728
0.000511826
0.000545026
0.00057566
0.000602937
0.000625913
0.000643469
0.000654272
0.000656739
0.000649002
0.000628863
0.000593757
0.000540697
0.000466231
0.000366383
0.000236558
7.15136e-05
-0.00015242
-0.000449397
-0.00079999
-0.00120658
-0.00167204
-0.00219912
-0.00279067
-0.00344954
-0.00417858
-0.00498054
-0.00585803
-0.00681338
-0.00784849
-0.00896462
-0.0101621
-0.01144
-0.012795
-0.0142212
-0.0157084
-0.0172412
-0.018797
-0.0203456
-0.0218455
-0.0232443
-0.0244779
-0.0254729
-0.0261527
-0.0264471
-0.0263032
-0.025698
-0.0246439
-0.0231905
-0.021416
-0.019415
-0.0172848
-0.0151147
-0.0129801
-0.0109399
-0.00903643
-0.00730016
-0.00588996
-0.00477703
-0.00383132
-0.00303405
-0.00236649
-0.00181154
-0.00135355
-0.00097859
-0.000674346
-0.000430029
-0.000236258
-8.49191e-05
3.09661e-05
0.000117375
0.000179408
0.000221398
0.00024702
0.000259381
0.000261102
0.000254388
0.000241091
0.000222762
0.000200696
0.000175965
0.000149457
0.000121904
9.38673e-05
6.55903e-05
3.75245e-05
1.13322e-05
1.90507e-05
5.57702e-05
9.42843e-05
0.0001344
0.000175968
0.000218915
0.000263178
0.000308662
0.000355245
0.000402769
0.00045104
0.000499818
0.000548816
0.000597684
0.000646001
0.000693264
0.000738871
0.000782092
0.000822057
0.000857729
0.000887868
0.000911002
0.000925391
0.00092899
0.000919413
0.000893883
0.000849186
0.000781615
0.000686881
0.000560046
0.000381389
0.000136641
-0.000159138
-0.000508179
-0.000913148
-0.00137656
-0.00190099
-0.00248895
-0.00314288
-0.00386509
-0.00465761
-0.00552211
-0.0064597
-0.00747073
-0.00855445
-0.0097086
-0.0109288
-0.0122077
-0.0135341
-0.014892
-0.0162591
-0.0176064
-0.0188962
-0.0200822
-0.0211102
-0.0219205
-0.0224533
-0.0226554
-0.0224885
-0.0219377
-0.0210136
-0.019755
-0.0182226
-0.016491
-0.0146393
-0.0127426
-0.0108665
-0.00906457
-0.00737709
-0.00583419
-0.00458121
-0.00359392
-0.00275801
-0.0020573
-0.00147538
-0.000996972
-0.000607927
-0.000295497
-4.83219e-05
0.000143617
0.000289075
0.000395653
0.000469905
0.000517455
0.000543105
0.000550943
0.000544434
0.000526512
0.000499648
0.000465921
0.000427074
0.000384559
0.000339579
0.000293124
0.000246
0.000198866
0.000152213
0.000106186
6.11597e-05
1.8945e-05
2.24558e-05
6.61136e-05
0.000111921
0.000159682
0.000209276
0.000260657
0.000313797
0.000368637
0.000425095
0.000483054
0.000542365
0.000602836
0.000664227
0.00072624
0.00078851
0.00085059
0.000911942
0.000971882
0.00102962
0.0010842
0.00113447
0.00117909
0.00121643
0.00124461
0.00126144
0.00126435
0.00125037
0.00121608
0.0011575
0.00107001
0.00093793
0.000746864
0.00050738
0.000217406
-0.00012553
-0.000523712
-0.00097945
-0.00149495
-0.0020723
-0.00271336
-0.00341968
-0.00419235
-0.00503178
-0.00593757
-0.00690809
-0.00794016
-0.00902846
-0.0101649
-0.0113376
-0.0125307
-0.0137226
-0.0148863
-0.0159878
-0.016987
-0.0178381
-0.0184928
-0.0189043
-0.0190326
-0.0188495
-0.0183458
-0.017531
-0.016436
-0.0151087
-0.0136087
-0.0120005
-0.0103474
-0.00870615
-0.00712503
-0.00564168
-0.00428514
-0.00318644
-0.0023243
-0.00159923
-0.000997192
-0.000503719
-0.000105121
0.000211427
0.000457603
0.00064389
0.000779589
0.000872866
0.000930832
0.000959634
0.000964559
0.000950128
0.000920192
0.000878025
0.000826394
0.000767634
0.000703707
0.000636247
0.00056661
0.000495909
0.000425045
0.000354739
0.00028557
0.000217959
0.00015196
8.78376e-05
2.75617e-05
2.609e-05
7.70865e-05
0.0001306
0.000186444
0.000244521
0.000304813
0.000367327
0.000432044
0.000498918
0.000567879
0.00063882
0.000711596
0.000786014
0.000861826
0.000938712
0.00101627
0.00109412
0.00117147
0.00124769
0.0013219
0.00139305
0.00145989
0.00152095
0.00157451
0.00161856
0.00165076
0.0016684
0.00166832
0.00164687
0.00159974
0.0015154
0.0013793
0.00119741
0.000967802
0.000688211
0.000356561
-2.92148e-05
-0.000471039
-0.000970664
-0.00152958
-0.00214889
-0.00282919
-0.00357036
-0.00437134
-0.00522986
-0.00614206
-0.00710203
-0.0081012
-0.00912776
-0.0101661
-0.0111959
-0.0121923
-0.0131253
-0.0139602
-0.0146589
-0.0151824
-0.0154936
-0.0155623
-0.0153681
-0.0149051
-0.0141823
-0.013225
-0.0120715
-0.0107705
-0.00937498
-0.0079384
-0.00651
-0.00513279
-0.00384149
-0.00266354
-0.00171527
-0.000976896
-0.000362819
0.000139286
0.000542273
0.000858484
0.0010996
0.00127636
0.00139843
0.00147447
0.00151208
0.00151793
0.00149778
0.0014566
0.00139864
0.00132756
0.00124643
0.00115788
0.00106412
0.000966983
0.000868009
0.000768455
0.000669339
0.000571473
0.000475487
0.000381876
0.000290969
0.000202732
0.000117398
3.68905e-05
2.99227e-05
8.86308e-05
0.000150241
0.000214576
0.000281562
0.000351212
0.000423567
0.000498647
0.000576446
0.000656935
0.000740053
0.000825701
0.000913734
0.00100395
0.00109609
0.0011898
0.00128465
0.0013801
0.00147549
0.00157002
0.00166274
0.00175252
0.00183804
0.00191773
0.0019898
0.00205211
0.00210222
0.00213724
0.00215382
0.00214801
0.00211246
0.00203249
0.00190935
0.00174127
0.00152616
0.00126216
0.000947408
0.00058025
0.000159224
-0.000316826
-0.000848644
-0.00143641
-0.00207954
-0.00277653
-0.00352462
-0.00431952
-0.00515499
-0.00602235
-0.00691006
-0.00780327
-0.00868294
-0.00952679
-0.0103085
-0.0109985
-0.011565
-0.0119763
-0.0122035
-0.0122234
-0.0120212
-0.0115936
-0.0109489
-0.0101082
-0.00910335
-0.00797414
-0.00676506
-0.00552138
-0.00428586
-0.00309668
-0.00198564
-0.00097827
-0.000176069
0.000440533
0.000944115
0.00134567
0.00165674
0.00188856
0.00205184
0.00215647
0.00221142
0.00222475
0.00220356
0.0021541
0.00208177
0.00199128
0.00188662
0.00177126
0.00164812
0.00151968
0.00138802
0.00125487
0.00112167
0.000989574
0.0008595
0.000732165
0.000608113
0.000487755
0.000371333
0.000258695
0.000150034
4.73838e-05
3.39217e-05
0.000100682
0.000170748
0.000243951
0.00032024
0.000399659
0.000482287
0.000568179
0.000657373
0.000749879
0.000845681
0.000944722
0.0010469
0.00115207
0.00126001
0.00137043
0.00148295
0.00159708
0.00171225
0.00182773
0.00194268
0.00205609
0.00216677
0.00227335
0.0023742
0.00246743
0.00255082
0.00262179
0.00267729
0.00271368
0.00272791
0.00270515
0.00264181
0.0025363
0.00238668
0.00219128
0.00194846
0.00165678
0.00131503
0.000922342
0.000478278
-1.70115e-05
-0.000562621
-0.00115669
-0.00179616
-0.0024765
-0.00319137
-0.00393226
-0.0046881
-0.00544505
-0.00618556
-0.00688981
-0.00753506
-0.00809607
-0.00854658
-0.00886102
-0.00901652
-0.00899545
-0.00878708
-0.00839001
-0.00781211
-0.00707147
-0.00619462
-0.00521504
-0.00417028
-0.00309909
-0.00203871
-0.00102306
-8.1111e-05
0.000763613
0.00142436
0.00192158
0.00231563
0.0026165
0.00283471
0.00298059
0.00306402
0.00309418
0.00307943
0.0030273
0.00294444
0.00283673
0.00270926
0.00256648
0.00241218
0.00224964
0.00208165
0.00191054
0.00173829
0.00156651
0.00139653
0.00122939
0.00106592
0.000906742
0.000752298
0.000602921
0.000458772
0.000319582
0.000185497
5.87233e-05
3.80649e-05
0.000113195
0.000192055
0.000274479
0.000360439
0.000450012
0.000543311
0.00064043
0.000741446
0.000846411
0.000955351
0.00106825
0.00118506
0.00130568
0.00142993
0.00155757
0.00168828
0.00182165
0.00195716
0.00209419
0.00223199
0.00236968
0.00250622
0.00264039
0.00277077
0.00289568
0.00301317
0.0031209
0.00321614
0.00329555
0.00336049
0.00339591
0.00339333
0.0033513
0.00326805
0.00314208
0.00297193
0.00275636
0.0024944
0.00218538
0.00182913
0.00142604
0.000977253
0.00048485
-4.79509e-05
-0.000616549
-0.0012147
-0.00183424
-0.00246477
-0.00309358
-0.00370473
-0.00428072
-0.00480208
-0.00524751
-0.00559533
-0.0058249
-0.00591825
-0.00586195
-0.00564841
-0.00527763
-0.00475712
-0.00410263
-0.00333686
-0.00248829
-0.00158906
-0.000672659
0.000228296
0.00108361
0.00186693
0.00255671
0.00308071
0.00346119
0.003747
0.0039474
0.00407216
0.00413087
0.00413275
0.00408637
0.00399958
0.00387945
0.00373225
0.00356353
0.00337814
0.00318027
0.00297356
0.00276113
0.00254562
0.00232926
0.00211388
0.00190099
0.00169179
0.00148724
0.00128803
0.0010947
0.00090761
0.000727007
0.000552979
0.000385147
0.000223609
7.08089e-05
4.23381e-05
0.000126139
0.000214113
0.000306089
0.000402063
0.000502145
0.000606484
0.00071521
0.000828438
0.000946262
0.00106875
0.00119593
0.00132779
0.00146428
0.00160528
0.0017506
0.00189998
0.00205308
0.00220945
0.00236858
0.0025298
0.00269238
0.00285542
0.00301786
0.00317848
0.00333582
0.00348814
0.00363339
0.00376912
0.00389234
0.00400881
0.00410331
0.00416233
0.00418457
0.00416844
0.00411258
0.0040157
0.00387674
0.00369489
0.00346969
0.00320114
0.0028898
0.00253698
0.00214486
0.0017167
0.00125702
0.000771816
0.000268788
-0.000242497
-0.000750528
-0.00124101
-0.00169863
-0.00210691
-0.00244795
-0.00270394
-0.00285829
-0.0028969
-0.00280962
-0.00259125
-0.00224283
-0.00177159
-0.00119155
-0.000522485
0.000210923
0.000980797
0.00175789
0.00251341
0.00322038
0.00385482
0.00439705
0.00478903
0.00505554
0.00523461
0.00533503
0.00536598
0.00533651
0.00525533
0.00513052
0.0049695
0.00477896
0.00456488
0.00433253
0.00408654
0.00383094
0.0035692
0.00330429
0.00303874
0.00277464
0.00251371
0.00225733
0.00200659
0.00176231
0.00152512
0.00129542
0.00107352
0.000859577
0.000653617
0.000455148
0.000264226
8.35633e-05
4.67332e-05
0.000139489
0.000236878
0.000338715
0.000445023
0.000555944
0.00067166
0.000792339
0.000918133
0.00104917
0.00118557
0.00132739
0.00147468
0.00162743
0.00178557
0.00194897
0.00211744
0.00229069
0.00246839
0.0026501
0.00283528
0.00302331
0.00321345
0.0034048
0.00359632
0.00378675
0.0039746
0.00415806
0.004335
0.00450271
0.00467147
0.00482582
0.00494719
0.00503441
0.00508603
0.00510084
0.00507771
0.00501571
0.00491417
0.00477278
0.00459167
0.00437152
0.0041137
0.00382042
0.00349486
0.00314135
0.00276553
0.00237449
0.00197692
0.00158309
0.00120561
0.000857778
0.000553422
0.000307452
0.000134423
4.76209e-05
5.80628e-05
0.0001733
0.000396707
0.000726452
0.00115549
0.00167111
0.00225572
0.00288757
0.00354212
0.00419349
0.00481605
0.00538556
0.00588013
0.00628184
0.00654645
0.00670182
0.00677576
0.0067768
0.00671374
0.00659524
0.0064296
0.00622457
0.00598723
0.00572399
0.00544057
0.00514207
0.00483293
0.00451704
0.00419774
0.00387788
0.00355985
0.00324562
0.00293678
0.00263459
0.00234002
0.00205379
0.00177641
0.00150821
0.00124941
0.0010001
0.000760254
0.000529267
0.000307149
9.68786e-05
5.12465e-05
0.000153224
0.000260307
0.000372292
0.000489229
0.000611292
0.000738695
0.000871639
0.00101031
0.00115489
0.00130551
0.0014623
0.00162535
0.00179468
0.0019703
0.00215212
0.00234004
0.00253384
0.00273328
0.00293801
0.00314763
0.00336163
0.0035794
0.00380024
0.00402326
0.00424742
0.00447142
0.00469373
0.00491249
0.00512533
0.00534704
0.00556196
0.00574634
0.00589914
0.00601905
0.00610501
0.00615598
0.00617117
0.00615003
0.00609235
0.00599834
0.00586873
0.00570491
0.00550901
0.00528406
0.00503412
0.00476434
0.00448117
0.00419234
0.00390688
0.00363572
0.00339032
0.00318216
0.00302357
0.00292636
0.0029011
0.0029563
0.00309749
0.00332659
0.00364115
0.00403423
0.0044941
0.0050048
0.00554684
0.00609824
0.00663583
0.00713653
0.00757843
0.00794145
0.00820925
0.00835095
0.00839795
0.00836841
0.00827074
0.00811354
0.00790523
0.00765384
0.00736687
0.00705119
0.00671301
0.00635791
0.00599082
0.00561608
0.00523744
0.00485815
0.00448093
0.00410804
0.00374132
0.00338224
0.00303195
0.0026913
0.0023609
0.00204118
0.00173239
0.00143466
0.00114804
0.000872443
0.000607159
0.000352146
0.000110616
5.58725e-05
0.000167315
0.000284346
0.000406739
0.000534574
0.000668052
0.000807418
0.000952908
0.00110474
0.00126313
0.00142827
0.00160031
0.00177938
0.00196559
0.00215897
0.00235953
0.00256721
0.00278191
0.00300345
0.0032316
0.00346608
0.00370651
0.00395243
0.00420327
0.00445833
0.00471675
0.00497748
0.00523919
0.00550034
0.00575887
0.00603415
0.00631026
0.00655822
0.00677713
0.00696579
0.00712325
0.00724861
0.00734114
0.00740041
0.00742625
0.00741893
0.00737918
0.00730834
0.00720841
0.00708219
0.00693337
0.00676659
0.00658756
0.00640306
0.00622087
0.00605028
0.00590106
0.00578266
0.00570517
0.00567809
0.00570975
0.00580661
0.00597256
0.00620839
0.00651111
0.00687384
0.00728555
0.00773152
0.00819394
0.00865284
0.00908716
0.00947589
0.00979905
0.0100381
0.0101781
0.0102012
0.0101425
0.010011
0.00981533
0.00956389
0.00926502
0.00892663
0.00855608
0.00816013
0.0077449
0.00731585
0.00687785
0.00643514
0.00599139
0.00554973
0.00511276
0.00468263
0.00426107
0.00384942
0.00344872
0.00305972
0.00268296
0.00231876
0.00196732
0.0016287
0.0013029
0.000989765
0.000688488
0.000398969
0.000124611
6.06058e-05
0.000181732
0.000308935
0.000441972
0.000580944
0.000726081
0.000877657
0.00103594
0.00120118
0.00137363
0.00155352
0.00174105
0.0019364
0.00213972
0.00235113
0.00257068
0.0027984
0.00303428
0.00327825
0.00353018
0.0037899
0.00405717
0.00433166
0.00461295
0.00490053
0.0051937
0.00549163
0.00579326
0.00609729
0.00640201
0.00673139
0.00706924
0.00738129
0.00766675
0.00792453
0.0081538
0.00835372
0.00852369
0.00866329
0.00877242
0.00885136
0.00890079
0.00892194
0.00891665
0.00888741
0.00883749
0.00877096
0.00869275
0.0086087
0.00852538
0.00845047
0.00839218
0.00835824
0.00835682
0.00839544
0.00848054
0.00861693
0.00880714
0.00905105
0.00934519
0.00968268
0.010053
0.0104423
0.010834
0.0112097
0.0115501
0.0118356
0.012048
0.01217
0.012188
0.0120962
0.0119343
0.0117025
0.0114094
0.0110636
0.0106734
0.0102469
0.00979119
0.00931316
0.00881886
0.00831374
0.0078026
0.00728965
0.00677847
0.00627208
0.00577299
0.00528324
0.00480445
0.00433786
0.00388441
0.00344479
0.00301945
0.00260865
0.00221253
0.0018311
0.00146429
0.00111188
0.000772964
0.000447385
0.000138681
6.54412e-05
0.000196445
0.00033402
0.000477904
0.000628224
0.000785232
0.000949232
0.00112052
0.00129938
0.0014861
0.00168095
0.00188417
0.002096
0.00231665
0.00254629
0.00278506
0.00303307
0.0032904
0.00355707
0.00383308
0.00411836
0.00441281
0.00471624
0.00502837
0.00534886
0.00567719
0.00601275
0.00635471
0.00670206
0.0070534
0.00743736
0.00783743
0.008214
0.00856637
0.00889359
0.00919488
0.0094695
0.00971691
0.00993675
0.0101289
0.0102937
0.0104316
0.0105439
0.010632
0.0106981
0.0107451
0.0107764
0.0107961
0.0108091
0.0108209
0.0108376
0.0108659
0.0109122
0.0109829
0.0110838
0.0112199
0.0113945
0.0116091
0.0118627
0.0121514
0.0124684
0.0128033
0.0131431
0.013472
0.0137728
0.0140274
0.0142177
0.0143265
0.0143377
0.0142386
0.0140357
0.0137728
0.013442
0.013052
0.0126117
0.0121297
0.0116138
0.0110715
0.0105097
0.00993448
0.00935127
0.00876489
0.00817948
0.00759857
0.0070251
0.0064615
0.0059097
0.00537123
0.00484729
0.00433874
0.00384619
0.00337006
0.00291055
0.00246774
0.00204157
0.00163193
0.00123853
0.000860362
0.000497186
0.000152635
7.03694e-05
0.000211416
0.000359532
0.00051444
0.000676286
0.000845346
0.00102195
0.00120642
0.00139908
0.00160025
0.00181023
0.00202932
0.0022578
0.00249595
0.002744
0.00300218
0.00327069
0.00354967
0.00383929
0.00413963
0.00445075
0.00477267
0.00510533
0.00544862
0.00580233
0.00616617
0.0065397
0.00692236
0.0073134
0.00771173
0.00815067
0.00861336
0.00905481
0.00947441
0.00987128
0.0102448
0.0105942
0.010919
0.011219
0.0114939
0.0117441
0.0119699
0.0121724
0.0123529
0.012513
0.0126551
0.012782
0.0128972
0.0130044
0.0131082
0.0132131
0.0133246
0.0134477
0.0135875
0.0137484
0.0139338
0.014146
0.0143855
0.0146506
0.0149372
0.015238
0.0155431
0.0158397
0.0161128
0.0163461
0.0165223
0.0166243
0.0166359
0.0165419
0.0163305
0.0160196
0.0156578
0.015229
0.0147426
0.0142078
0.0136331
0.013027
0.0123968
0.0117497
0.0110917
0.0104285
0.00976479
0.00910473
0.00845179
0.00780886
0.00717828
0.00656196
0.00596136
0.00537762
0.00481158
0.00426381
0.00373467
0.00322434
0.00273281
0.00226
0.00180571
0.00136959
0.000950525
0.000548194
0.000166271
7.53785e-05
0.000226603
0.000385399
0.000551474
0.000724994
0.000906255
0.00109561
0.00129342
0.00150002
0.00171577
0.00194103
0.00217613
0.00242141
0.0026772
0.00294383
0.00322158
0.00351073
0.00381157
0.00412432
0.00444919
0.00478636
0.00513597
0.0054981
0.00587278
0.00625998
0.00665958
0.00707137
0.00749501
0.00793005
0.00837569
0.00886993
0.00939558
0.00990219
0.0103892
0.010856
0.0113017
0.011726
0.0121282
0.0125081
0.0128657
0.0132009
0.0135141
0.0138061
0.0140779
0.0143308
0.0145665
0.0147873
0.0149957
0.0151949
0.015388
0.0155784
0.0157704
0.015968
0.0161747
0.0163939
0.0166278
0.0168777
0.0171431
0.0174218
0.0177092
0.0179981
0.0182783
0.0185376
0.0187613
0.0189335
0.0190378
0.0190578
0.0189781
0.018784
0.0184644
0.0180483
0.0175893
0.0170637
0.0164813
0.0158517
0.015184
0.0144865
0.0137673
0.0130333
0.0122909
0.0115458
0.0108026
0.0100657
0.00933837
0.00862352
0.00792348
0.00724012
0.0065749
0.00592892
0.00530301
0.00469772
0.00411337
0.00355008
0.00300782
0.00248641
0.00198562
0.00150501
0.00104335
0.000600245
0.000179366
8.04536e-05
0.000241962
0.000411543
0.000588897
0.000774204
0.00096778
0.00117
0.00138125
0.00160191
0.00183237
0.00207301
0.00232423
0.00258643
0.00285999
0.00314531
0.00344276
0.00375271
0.00407553
0.00441155
0.00476111
0.00512448
0.00550194
0.00589371
0.00629996
0.00672083
0.00715639
0.00760665
0.00807151
0.00855079
0.00904397
0.00959377
0.0101826
0.0107546
0.0113093
0.011846
0.0123641
0.0128632
0.0133428
0.0138026
0.0142425
0.0146624
0.0150626
0.0154436
0.0158059
0.0161504
0.0164785
0.0167917
0.0170917
0.0173807
0.0176611
0.0179351
0.0182057
0.018476
0.0187484
0.0190251
0.0193072
0.0195952
0.019888
0.0201826
0.020474
0.0207548
0.021015
0.0212422
0.0214221
0.0215392
0.0215776
0.0215213
0.0213553
0.0210657
0.0206416
0.0201229
0.0195683
0.0189467
0.0182687
0.0175442
0.0167827
0.0159931
0.0151835
0.0143612
0.0135327
0.0127036
0.011879
0.0110628
0.0102587
0.00946939
0.00869735
0.00794442
0.00721207
0.00650143
0.00581328
0.00514817
0.00450638
0.003888
0.00329293
0.00272095
0.00217173
0.00164478
0.00113875
0.000653175
0.000191672
8.55749e-05
0.00025744
0.000437882
0.000626592
0.000823765
0.00102973
0.00124491
0.00146968
0.00170448
0.00194972
0.00220584
0.00247327
0.00275248
0.0030439
0.003348
0.00366525
0.0039961
0.004341
0.0047004
0.00507473
0.00546441
0.00586982
0.00629131
0.00672924
0.0071839
0.00765556
0.00814445
0.00865069
0.00917436
0.00971526
0.0103208
0.010973
0.0116105
0.012233
0.0128397
0.0134303
0.0140042
0.0145611
0.0151008
0.0156228
0.0161273
0.0166141
0.0170834
0.0175356
0.0179711
0.0183905
0.0187948
0.019185
0.0195625
0.0199287
0.0202848
0.0206328
0.0209747
0.0213122
0.0216461
0.021977
0.0223041
0.0226259
0.0229388
0.0232374
0.023514
0.0237585
0.0239585
0.0241
0.0241675
0.0241453
0.0240178
0.0237704
0.0233893
0.0228641
0.022245
0.0215961
0.0208794
0.020106
0.0192864
0.0184306
0.0175479
0.0166467
0.0157345
0.014818
0.013903
0.0129945
0.0120967
0.0112132
0.0103469
0.00950032
0.00867529
0.00787334
0.00709558
0.00634283
0.00561559
0.00491411
0.00423844
0.00358844
0.00296381
0.00236416
0.00178893
0.00123666
0.000706799
0.000202903
9.07215e-05
0.000272981
0.000464325
0.000664435
0.000873517
0.00109193
0.00132009
0.00155845
0.00180744
0.00206752
0.00233917
0.00262288
0.00291915
0.00322851
0.00355147
0.00388858
0.00424038
0.00460743
0.00499026
0.00538942
0.00580543
0.00623882
0.0066901
0.00715974
0.00764825
0.00815608
0.00868367
0.00923138
0.00979957
0.0103883
0.0110497
0.0117654
0.0124684
0.0131586
0.0138354
0.0144985
0.0151473
0.0157816
0.0164009
0.0170052
0.017594
0.0181671
0.0187245
0.0192661
0.0197917
0.0203017
0.0207962
0.0212757
0.0217406
0.0221917
0.0226291
0.0230538
0.0234671
0.0238695
0.0242612
0.0246416
0.0250094
0.0253622
0.025696
0.0260051
0.0262813
0.0265143
0.0266919
0.0267997
0.0268226
0.0267448
0.026551
0.0262265
0.0257578
0.0251346
0.024417
0.0236752
0.022864
0.0219953
0.0210803
0.0201296
0.0191527
0.0181584
0.0171546
0.0161481
0.0151448
0.01415
0.0131681
0.0122027
0.0112569
0.0103331
0.00943347
0.0085594
0.00771208
0.0068923
0.00610055
0.00533706
0.00460183
0.00389466
0.00321521
0.00256303
0.00193746
0.00133697
0.000760894
0.000212732