/*--------------------------------*- C++ -*----------------------------------*\
  =========                 |
  \\      /  F ield         | OpenFOAM: The Open Source CFD Toolbox
   \\    /   O peration     | Website:  https://openfoam.org
    \\  /    A nd           | Version:  9
     \\/     M anipulation  |
\*---------------------------------------------------------------------------*/
FoamFile
{
    format      ascii;
    class       surfaceScalarField;
    location    "0.04";
    object      phi;
}
// * * * * * * * * * * * * * * * * * * * * * * * * * * * * * * * * * * * * * //

dimensions      [0 3 -1 0 0 0 0];

internalField   nonuniform List<scalar> 
39700
(
-1.34547e-07
1.61052e-06
-1.34516e-07
1.68845e-06
-1.34505e-07
1.76971e-06
-1.34498e-07
1.85473e-06
-1.34492e-07
1.94375e-06
-1.34485e-07
2.03694e-06
-1.34478e-07
2.13447e-06
-1.3447e-07
2.23653e-06
-1.34461e-07
2.34331e-06
-1.34451e-07
2.455e-06
-1.34441e-07
2.57179e-06
-1.34429e-07
2.6939e-06
-1.34417e-07
2.82154e-06
-1.34403e-07
2.95491e-06
-1.34388e-07
3.09425e-06
-1.34372e-07
3.23976e-06
-1.34354e-07
3.39169e-06
-1.34334e-07
3.55025e-06
-1.34313e-07
3.71569e-06
-1.34289e-07
3.88824e-06
-1.34264e-07
4.06814e-06
-1.34236e-07
4.25561e-06
-1.34206e-07
4.45088e-06
-1.34173e-07
4.65419e-06
-1.34137e-07
4.86574e-06
-1.34097e-07
5.08572e-06
-1.34053e-07
5.31432e-06
-1.34005e-07
5.55168e-06
-1.33951e-07
5.7979e-06
-1.33892e-07
6.05306e-06
-1.33821e-07
7.36694e-06
-1.33745e-07
7.32141e-06
-1.33664e-07
7.27518e-06
-1.33577e-07
7.22817e-06
-1.33483e-07
7.18028e-06
-1.33381e-07
7.1314e-06
-1.33272e-07
7.08147e-06
-1.33154e-07
7.0304e-06
-1.33026e-07
6.97812e-06
-1.32888e-07
6.92456e-06
-1.32738e-07
6.86963e-06
-1.32575e-07
6.81324e-06
-1.32397e-07
6.7553e-06
-1.322e-07
6.6957e-06
-1.31979e-07
6.6343e-06
-1.31724e-07
6.57084e-06
-1.31426e-07
6.50483e-06
-1.31082e-07
6.43562e-06
-1.307e-07
6.3626e-06
-1.30282e-07
6.28566e-06
-1.29807e-07
6.2049e-06
-1.29248e-07
6.11975e-06
-1.28627e-07
6.02874e-06
-1.28069e-07
5.93068e-06
-1.27833e-07
5.82642e-06
-1.2832e-07
5.7207e-06
-1.29957e-07
5.62388e-06
-1.32894e-07
5.55232e-06
-1.36664e-07
5.5248e-06
-1.4031e-07
5.55429e-06
-1.42824e-07
5.64175e-06
-1.43834e-07
5.77367e-06
-1.43629e-07
5.9298e-06
-1.42752e-07
6.09225e-06
-1.41652e-07
6.24998e-06
-1.4058e-07
6.39828e-06
-1.39634e-07
6.53636e-06
-1.38828e-07
6.66517e-06
-1.38146e-07
6.7861e-06
-1.37558e-07
6.9003e-06
-1.37108e-07
5.71855e-06
-1.36737e-07
5.51443e-06
-1.36434e-07
5.3109e-06
-1.36183e-07
5.10969e-06
-1.35971e-07
4.91196e-06
-1.35789e-07
4.71848e-06
-1.3563e-07
4.52971e-06
-1.35491e-07
4.34597e-06
-1.35369e-07
4.1675e-06
-1.35261e-07
3.99442e-06
-1.35166e-07
3.82682e-06
-1.35082e-07
3.66476e-06
-1.35009e-07
3.50824e-06
-1.34944e-07
3.35724e-06
-1.34887e-07
3.2117e-06
-1.34837e-07
3.07156e-06
-1.34794e-07
2.93673e-06
-1.34756e-07
2.80711e-06
-1.34723e-07
2.68259e-06
-1.34695e-07
2.56304e-06
-1.34671e-07
2.44833e-06
-1.3465e-07
2.33834e-06
-1.34633e-07
2.23293e-06
-1.3462e-07
2.13196e-06
-1.34609e-07
2.03528e-06
-1.34601e-07
1.94276e-06
-1.34597e-07
1.85423e-06
-1.34601e-07
1.76957e-06
-1.34624e-07
1.68872e-06
1.61168e-06
-1.34619e-07
1.61039e-06
-1.34551e-07
1.68838e-06
-1.3452e-07
1.76968e-06
-1.34499e-07
1.85471e-06
-1.34479e-07
1.94373e-06
-1.34458e-07
2.03692e-06
-1.34436e-07
2.13445e-06
-1.34412e-07
2.23651e-06
-1.34386e-07
2.34328e-06
-1.34358e-07
2.45497e-06
-1.34328e-07
2.57176e-06
-1.34295e-07
2.69387e-06
-1.34259e-07
2.8215e-06
-1.3422e-07
2.95488e-06
-1.34177e-07
3.0942e-06
-1.3413e-07
3.23972e-06
-1.34079e-07
3.39164e-06
-1.34023e-07
3.5502e-06
-1.33961e-07
3.71563e-06
-1.33894e-07
3.88818e-06
-1.33821e-07
4.06806e-06
-1.33742e-07
4.25553e-06
-1.33654e-07
4.4508e-06
-1.33559e-07
4.65409e-06
-1.33454e-07
4.86563e-06
-1.33339e-07
5.0856e-06
-1.33212e-07
5.31419e-06
-1.33072e-07
5.55154e-06
-1.32917e-07
5.79774e-06
-1.32748e-07
6.05289e-06
-1.32537e-07
7.36673e-06
-1.32315e-07
7.32118e-06
-1.32077e-07
7.27495e-06
-1.31822e-07
7.22792e-06
-1.31548e-07
7.18e-06
-1.31253e-07
7.13111e-06
-1.30936e-07
7.08115e-06
-1.30594e-07
7.03005e-06
-1.30225e-07
6.97775e-06
-1.29826e-07
6.92416e-06
-1.29393e-07
6.8692e-06
-1.28923e-07
6.81277e-06
-1.2841e-07
6.75479e-06
-1.27846e-07
6.69513e-06
-1.27216e-07
6.63367e-06
-1.26501e-07
6.57012e-06
-1.25684e-07
6.50402e-06
-1.2476e-07
6.4347e-06
-1.23747e-07
6.36159e-06
-1.22654e-07
6.28456e-06
-1.21456e-07
6.2037e-06
-1.2015e-07
6.11844e-06
-1.18854e-07
6.02744e-06
-1.17912e-07
5.92974e-06
-1.17945e-07
5.82645e-06
-1.19787e-07
5.72254e-06
-1.24201e-07
5.6283e-06
-1.31312e-07
5.55943e-06
-1.40072e-07
5.53356e-06
-1.48539e-07
5.56276e-06
-1.5472e-07
5.64793e-06
-1.57725e-07
5.77668e-06
-1.57934e-07
5.93001e-06
-1.56358e-07
6.09068e-06
-1.53972e-07
6.24759e-06
-1.51417e-07
6.39572e-06
-1.49014e-07
6.53396e-06
-1.46874e-07
6.66303e-06
-1.45001e-07
6.78423e-06
-1.43355e-07
6.89865e-06
-1.42118e-07
5.71731e-06
-1.41073e-07
5.51339e-06
-1.402e-07
5.31003e-06
-1.39468e-07
5.10896e-06
-1.38845e-07
4.91134e-06
-1.38309e-07
4.71794e-06
-1.37843e-07
4.52924e-06
-1.37435e-07
4.34557e-06
-1.37077e-07
4.16714e-06
-1.36762e-07
3.9941e-06
-1.36484e-07
3.82655e-06
-1.3624e-07
3.66452e-06
-1.36025e-07
3.50803e-06
-1.35837e-07
3.35705e-06
-1.35672e-07
3.21154e-06
-1.35528e-07
3.07142e-06
-1.35402e-07
2.93661e-06
-1.35294e-07
2.807e-06
-1.352e-07
2.68249e-06
-1.3512e-07
2.56296e-06
-1.35052e-07
2.44827e-06
-1.34996e-07
2.33829e-06
-1.34951e-07
2.23289e-06
-1.34916e-07
2.13192e-06
-1.3489e-07
2.03526e-06
-1.34873e-07
1.94274e-06
-1.34866e-07
1.85422e-06
-1.34875e-07
1.76958e-06
-1.34916e-07
1.68876e-06
1.61172e-06
-1.34631e-07
1.6103e-06
-1.34573e-07
1.68832e-06
-1.34538e-07
1.76965e-06
-1.34509e-07
1.85469e-06
-1.34479e-07
1.9437e-06
-1.34447e-07
2.03688e-06
-1.34412e-07
2.13441e-06
-1.34375e-07
2.23647e-06
-1.34335e-07
2.34324e-06
-1.34291e-07
2.45492e-06
-1.34243e-07
2.57172e-06
-1.34191e-07
2.69382e-06
-1.34134e-07
2.82145e-06
-1.34072e-07
2.95481e-06
-1.34003e-07
3.09414e-06
-1.33928e-07
3.23964e-06
-1.33845e-07
3.39155e-06
-1.33755e-07
3.55011e-06
-1.33657e-07
3.71553e-06
-1.33549e-07
3.88807e-06
-1.33431e-07
4.06795e-06
-1.33302e-07
4.2554e-06
-1.3316e-07
4.45065e-06
-1.33005e-07
4.65394e-06
-1.32835e-07
4.86546e-06
-1.32648e-07
5.08542e-06
-1.32443e-07
5.31399e-06
-1.32215e-07
5.55131e-06
-1.31965e-07
5.79749e-06
-1.31691e-07
6.05262e-06
-1.31347e-07
7.36638e-06
-1.30982e-07
7.32082e-06
-1.30594e-07
7.27456e-06
-1.30177e-07
7.2275e-06
-1.29731e-07
7.17955e-06
-1.29251e-07
7.13063e-06
-1.28734e-07
7.08063e-06
-1.28179e-07
7.0295e-06
-1.27581e-07
6.97715e-06
-1.26935e-07
6.92351e-06
-1.26237e-07
6.8685e-06
-1.25479e-07
6.81202e-06
-1.24655e-07
6.75396e-06
-1.23752e-07
6.69423e-06
-1.22751e-07
6.63267e-06
-1.21628e-07
6.569e-06
-1.20365e-07
6.50275e-06
-1.18965e-07
6.43329e-06
-1.17452e-07
6.36008e-06
-1.15851e-07
6.28296e-06
-1.14167e-07
6.20202e-06
-1.12447e-07
6.11672e-06
-1.10919e-07
6.02591e-06
-1.10095e-07
5.92892e-06
-1.10807e-07
5.82716e-06
-1.14081e-07
5.72581e-06
-1.20756e-07
5.63497e-06
-1.30824e-07
5.5695e-06
-1.42903e-07
5.54563e-06
-1.5457e-07
5.57443e-06
-1.63373e-07
5.65673e-06
-1.68105e-07
5.78141e-06
-1.69073e-07
5.93098e-06
-1.67432e-07
6.08904e-06
-1.64418e-07
6.24458e-06
-1.60928e-07
6.39223e-06
-1.57472e-07
6.5305e-06
-1.54276e-07
6.65984e-06
-1.51403e-07
6.78135e-06
-1.48829e-07
6.89608e-06
-1.46895e-07
5.71538e-06
-1.45242e-07
5.51173e-06
-1.43844e-07
5.30863e-06
-1.42658e-07
5.10777e-06
-1.41643e-07
4.91033e-06
-1.40767e-07
4.71706e-06
-1.40003e-07
4.52848e-06
-1.39336e-07
4.3449e-06
-1.38749e-07
4.16655e-06
-1.38233e-07
3.99359e-06
-1.37779e-07
3.82609e-06
-1.3738e-07
3.66412e-06
-1.37029e-07
3.50768e-06
-1.36722e-07
3.35674e-06
-1.36453e-07
3.21127e-06
-1.36218e-07
3.07118e-06
-1.36013e-07
2.9364e-06
-1.35837e-07
2.80683e-06
-1.35685e-07
2.68234e-06
-1.35555e-07
2.56283e-06
-1.35446e-07
2.44816e-06
-1.35356e-07
2.3382e-06
-1.35283e-07
2.23281e-06
-1.35227e-07
2.13187e-06
-1.35185e-07
2.03522e-06
-1.35154e-07
1.94271e-06
-1.35133e-07
1.8542e-06
-1.35124e-07
1.76957e-06
-1.35132e-07
1.68877e-06
1.61173e-06
-1.34607e-07
1.61025e-06
-1.34572e-07
1.68828e-06
-1.34544e-07
1.76962e-06
-1.34514e-07
1.85466e-06
-1.3448e-07
1.94367e-06
-1.34442e-07
2.03685e-06
-1.344e-07
2.13437e-06
-1.34353e-07
2.23642e-06
-1.34302e-07
2.34319e-06
-1.34245e-07
2.45487e-06
-1.34183e-07
2.57165e-06
-1.34114e-07
2.69375e-06
-1.34038e-07
2.82137e-06
-1.33954e-07
2.95473e-06
-1.33862e-07
3.09404e-06
-1.33761e-07
3.23954e-06
-1.3365e-07
3.39144e-06
-1.33528e-07
3.54999e-06
-1.33394e-07
3.7154e-06
-1.33247e-07
3.88792e-06
-1.33087e-07
4.06779e-06
-1.32911e-07
4.25522e-06
-1.32718e-07
4.45046e-06
-1.32506e-07
4.65373e-06
-1.32274e-07
4.86523e-06
-1.32018e-07
5.08516e-06
-1.31736e-07
5.3137e-06
-1.31426e-07
5.551e-06
-1.31084e-07
5.79715e-06
-1.3071e-07
6.05224e-06
-1.30235e-07
7.36591e-06
-1.29733e-07
7.32032e-06
-1.29199e-07
7.27402e-06
-1.28627e-07
7.22693e-06
-1.28013e-07
7.17894e-06
-1.27355e-07
7.12997e-06
-1.26649e-07
7.07993e-06
-1.2589e-07
7.02874e-06
-1.25073e-07
6.97633e-06
-1.24194e-07
6.92263e-06
-1.23245e-07
6.86755e-06
-1.2222e-07
6.81099e-06
-1.21107e-07
6.75285e-06
-1.19894e-07
6.69302e-06
-1.1856e-07
6.63133e-06
-1.1708e-07
6.56752e-06
-1.15441e-07
6.50111e-06
-1.13652e-07
6.43151e-06
-1.11754e-07
6.35818e-06
-1.09795e-07
6.281e-06
-1.07812e-07
6.20004e-06
-1.05917e-07
6.11483e-06
-1.04428e-07
6.02442e-06
-1.03978e-07
5.92847e-06
-1.05519e-07
5.82871e-06
-1.10147e-07
5.73044e-06
-1.18667e-07
5.64349e-06
-1.30928e-07
5.58176e-06
-1.45345e-07
5.56005e-06
-1.59269e-07
5.58835e-06
-1.70031e-07
5.66749e-06
-1.76226e-07
5.78761e-06
-1.78035e-07
5.93278e-06
-1.76628e-07
6.08763e-06
-1.7336e-07
6.24131e-06
-1.69291e-07
6.38816e-06
-1.65078e-07
6.52629e-06
-1.61054e-07
6.65581e-06
-1.57348e-07
6.77765e-06
-1.5397e-07
6.8927e-06
-1.51418e-07
5.71282e-06
-1.49215e-07
5.50953e-06
-1.47333e-07
5.30675e-06
-1.45724e-07
5.10616e-06
-1.44338e-07
4.90894e-06
-1.43136e-07
4.71586e-06
-1.42087e-07
4.52743e-06
-1.41168e-07
4.34398e-06
-1.4036e-07
4.16574e-06
-1.39649e-07
3.99287e-06
-1.39024e-07
3.82547e-06
-1.38473e-07
3.66357e-06
-1.3799e-07
3.50719e-06
-1.37566e-07
3.35632e-06
-1.37194e-07
3.2109e-06
-1.36871e-07
3.07086e-06
-1.36589e-07
2.93612e-06
-1.36346e-07
2.80658e-06
-1.36137e-07
2.68213e-06
-1.35958e-07
2.56265e-06
-1.35808e-07
2.44801e-06
-1.35682e-07
2.33807e-06
-1.3558e-07
2.23271e-06
-1.35499e-07
2.13179e-06
-1.35436e-07
2.03515e-06
-1.35386e-07
1.94266e-06
-1.35345e-07
1.85416e-06
-1.35309e-07
1.76954e-06
-1.35283e-07
1.68874e-06
1.61171e-06
-1.3461e-07
1.61023e-06
-1.34588e-07
1.68826e-06
-1.34564e-07
1.76959e-06
-1.34534e-07
1.85463e-06
-1.34498e-07
1.94363e-06
-1.34457e-07
2.0368e-06
-1.3441e-07
2.13432e-06
-1.34356e-07
2.23637e-06
-1.34296e-07
2.34313e-06
-1.34228e-07
2.4548e-06
-1.34153e-07
2.57158e-06
-1.3407e-07
2.69367e-06
-1.33977e-07
2.82128e-06
-1.33874e-07
2.95463e-06
-1.33761e-07
3.09393e-06
-1.33636e-07
3.23941e-06
-1.33498e-07
3.39131e-06
-1.33346e-07
3.54983e-06
-1.3318e-07
3.71523e-06
-1.32997e-07
3.88774e-06
-1.32796e-07
4.06758e-06
-1.32575e-07
4.255e-06
-1.32333e-07
4.45022e-06
-1.32067e-07
4.65346e-06
-1.31775e-07
4.86494e-06
-1.31454e-07
5.08484e-06
-1.311e-07
5.31335e-06
-1.30709e-07
5.55061e-06
-1.30279e-07
5.79672e-06
-1.29809e-07
6.05177e-06
-1.2921e-07
7.36531e-06
-1.28576e-07
7.31968e-06
-1.27901e-07
7.27335e-06
-1.27179e-07
7.22621e-06
-1.26406e-07
7.17817e-06
-1.25578e-07
7.12914e-06
-1.24691e-07
7.07904e-06
-1.23739e-07
7.02779e-06
-1.22717e-07
6.97531e-06
-1.2162e-07
6.92153e-06
-1.20439e-07
6.86637e-06
-1.19166e-07
6.80972e-06
-1.17792e-07
6.75148e-06
-1.16302e-07
6.69153e-06
-1.14676e-07
6.62971e-06
-1.12893e-07
6.56574e-06
-1.10947e-07
6.49917e-06
-1.08858e-07
6.42942e-06
-1.06685e-07
6.35601e-06
-1.04499e-07
6.27882e-06
-1.0238e-07
6.19792e-06
-1.00495e-07
6.11294e-06
-9.92415e-08
6.02317e-06
-9.9328e-08
5.92855e-06
-1.01754e-07
5.83113e-06
-1.07602e-07
5.73629e-06
-1.17581e-07
5.65347e-06
-1.31403e-07
5.59558e-06
-1.47385e-07
5.57603e-06
-1.62827e-07
5.60379e-06
-1.75018e-07
5.67968e-06
-1.82436e-07
5.79502e-06
-1.85116e-07
5.93546e-06
-1.84148e-07
6.08666e-06
-1.80907e-07
6.23807e-06
-1.76544e-07
6.3838e-06
-1.71824e-07
6.52157e-06
-1.67176e-07
6.65116e-06
-1.62796e-07
6.77327e-06
-1.58736e-07
6.88864e-06
-1.55645e-07
5.70973e-06
-1.52953e-07
5.50684e-06
-1.50631e-07
5.30443e-06
-1.48631e-07
5.10416e-06
-1.46898e-07
4.90721e-06
-1.45388e-07
4.71435e-06
-1.44068e-07
4.52611e-06
-1.42908e-07
4.34282e-06
-1.41887e-07
4.16472e-06
-1.40989e-07
3.99198e-06
-1.40197e-07
3.82468e-06
-1.395e-07
3.66287e-06
-1.38888e-07
3.50658e-06
-1.38351e-07
3.35578e-06
-1.37881e-07
3.21043e-06
-1.37471e-07
3.07045e-06
-1.37114e-07
2.93577e-06
-1.36806e-07
2.80628e-06
-1.3654e-07
2.68187e-06
-1.36314e-07
2.56242e-06
-1.36122e-07
2.44782e-06
-1.35962e-07
2.33791e-06
-1.3583e-07
2.23258e-06
-1.35724e-07
2.13168e-06
-1.3564e-07
2.03507e-06
-1.35572e-07
1.94259e-06
-1.35514e-07
1.8541e-06
-1.35462e-07
1.76949e-06
-1.35422e-07
1.6887e-06
1.6117e-06
-1.34668e-07
1.61022e-06
-1.3465e-07
1.68824e-06
-1.34625e-07
1.76957e-06
-1.34594e-07
1.8546e-06
-1.34556e-07
1.94359e-06
-1.34511e-07
2.03676e-06
-1.34459e-07
2.13427e-06
-1.34399e-07
2.23631e-06
-1.34331e-07
2.34306e-06
-1.34254e-07
2.45472e-06
-1.34168e-07
2.57149e-06
-1.34071e-07
2.69357e-06
-1.33964e-07
2.82117e-06
-1.33844e-07
2.95451e-06
-1.33711e-07
3.0938e-06
-1.33564e-07
3.23927e-06
-1.33401e-07
3.39114e-06
-1.33222e-07
3.54965e-06
-1.33024e-07
3.71504e-06
-1.32807e-07
3.88752e-06
-1.32568e-07
4.06734e-06
-1.32306e-07
4.25474e-06
-1.32017e-07
4.44993e-06
-1.317e-07
4.65314e-06
-1.31351e-07
4.86459e-06
-1.30967e-07
5.08446e-06
-1.30545e-07
5.31293e-06
-1.30079e-07
5.55014e-06
-1.29566e-07
5.79621e-06
-1.29003e-07
6.05121e-06
-1.28286e-07
7.36459e-06
-1.27527e-07
7.31893e-06
-1.26718e-07
7.27254e-06
-1.25854e-07
7.22534e-06
-1.24931e-07
7.17725e-06
-1.23943e-07
7.12815e-06
-1.22886e-07
7.07798e-06
-1.21754e-07
7.02665e-06
-1.20542e-07
6.9741e-06
-1.19244e-07
6.92024e-06
-1.17851e-07
6.86498e-06
-1.16356e-07
6.80822e-06
-1.14749e-07
6.74987e-06
-1.13016e-07
6.68979e-06
-1.11143e-07
6.62783e-06
-1.09113e-07
6.56371e-06
-1.06929e-07
6.49698e-06
-1.04624e-07
6.42711e-06
-1.02276e-07
6.35366e-06
-9.99823e-08
6.27652e-06
-9.78611e-08
6.1958e-06
-9.6135e-08
6.11122e-06
-9.52549e-08
6.02229e-06
-9.59688e-08
5.92927e-06
-9.92707e-08
5.83443e-06
-1.06171e-07
5.74319e-06
-1.17253e-07
5.66455e-06
-1.32113e-07
5.61044e-06
-1.49046e-07
5.59296e-06
-1.65422e-07
5.62017e-06
-1.78596e-07
5.69286e-06
-1.86998e-07
5.80342e-06
-1.90521e-07
5.93899e-06
-1.90118e-07
6.08626e-06
-1.87113e-07
6.23506e-06
-1.82686e-07
6.37937e-06
-1.77676e-07
6.51656e-06
-1.72588e-07
6.64608e-06
-1.67685e-07
6.76836e-06
-1.63065e-07
6.88402e-06
-1.59518e-07
5.70619e-06
-1.56399e-07
5.50372e-06
-1.53686e-07
5.30171e-06
-1.5133e-07
5.1018e-06
-1.49277e-07
4.90516e-06
-1.47483e-07
4.71256e-06
-1.45908e-07
4.52453e-06
-1.44521e-07
4.34143e-06
-1.433e-07
4.1635e-06
-1.42223e-07
3.9909e-06
-1.41274e-07
3.82373e-06
-1.40437e-07
3.66204e-06
-1.39702e-07
3.50585e-06
-1.39057e-07
3.35514e-06
-1.38493e-07
3.20986e-06
-1.38e-07
3.06996e-06
-1.37571e-07
2.93534e-06
-1.37201e-07
2.80591e-06
-1.36882e-07
2.68155e-06
-1.36609e-07
2.56215e-06
-1.36379e-07
2.44759e-06
-1.36186e-07
2.33772e-06
-1.36027e-07
2.23242e-06
-1.35898e-07
2.13155e-06
-1.35795e-07
2.03497e-06
-1.35712e-07
1.94251e-06
-1.35643e-07
1.85404e-06
-1.35586e-07
1.76943e-06
-1.35545e-07
1.68866e-06
1.61168e-06
-1.34783e-07
1.6102e-06
-1.34763e-07
1.68822e-06
-1.34737e-07
1.76954e-06
-1.34703e-07
1.85456e-06
-1.34662e-07
1.94355e-06
-1.34614e-07
2.03671e-06
-1.34557e-07
2.13422e-06
-1.34491e-07
2.23625e-06
-1.34416e-07
2.34299e-06
-1.34331e-07
2.45464e-06
-1.34234e-07
2.5714e-06
-1.34126e-07
2.69346e-06
-1.34004e-07
2.82105e-06
-1.33869e-07
2.95437e-06
-1.33718e-07
3.09365e-06
-1.3355e-07
3.2391e-06
-1.33365e-07
3.39096e-06
-1.3316e-07
3.54945e-06
-1.32934e-07
3.71481e-06
-1.32685e-07
3.88727e-06
-1.3241e-07
4.06707e-06
-1.32108e-07
4.25444e-06
-1.31776e-07
4.4496e-06
-1.31411e-07
4.65278e-06
-1.31009e-07
4.86418e-06
-1.30567e-07
5.08401e-06
-1.30079e-07
5.31244e-06
-1.29542e-07
5.5496e-06
-1.28951e-07
5.79562e-06
-1.28302e-07
6.05056e-06
-1.27473e-07
7.36376e-06
-1.26594e-07
7.31805e-06
-1.25659e-07
7.2716e-06
-1.24662e-07
7.22435e-06
-1.23598e-07
7.17618e-06
-1.22461e-07
7.12701e-06
-1.21246e-07
7.07677e-06
-1.19948e-07
7.02536e-06
-1.18561e-07
6.97271e-06
-1.17079e-07
6.91875e-06
-1.15495e-07
6.86339e-06
-1.13802e-07
6.80653e-06
-1.11991e-07
6.74806e-06
-1.10052e-07
6.68786e-06
-1.07974e-07
6.62575e-06
-1.05749e-07
6.56148e-06
-1.03388e-07
6.49462e-06
-1.00943e-07
6.42467e-06
-9.85056e-08
6.35122e-06
-9.62004e-08
6.27422e-06
-9.41818e-08
6.19378e-06
-9.27162e-08
6.10975e-06
-9.22906e-08
6.02186e-06
-9.36614e-08
5.93064e-06
-9.77811e-08
5.83855e-06
-1.0556e-07
5.75097e-06
-1.1745e-07
5.67644e-06
-1.32959e-07
5.62595e-06
-1.50411e-07
5.61042e-06
-1.67301e-07
5.63706e-06
-1.81112e-07
5.70667e-06
-1.90276e-07
5.81259e-06
-1.94561e-07
5.94327e-06
-1.94767e-07
6.08646e-06
-1.92123e-07
6.23242e-06
-1.87795e-07
6.37504e-06
-1.82662e-07
6.51142e-06
-1.7729e-07
6.6407e-06
-1.71996e-07
6.76307e-06
-1.66928e-07
6.87895e-06
-1.63001e-07
5.70226e-06
-1.59515e-07
5.50023e-06
-1.56457e-07
5.29866e-06
-1.53783e-07
5.09913e-06
-1.51441e-07
4.90281e-06
-1.49384e-07
4.7105e-06
-1.47573e-07
4.52272e-06
-1.45976e-07
4.33983e-06
-1.44567e-07
4.16209e-06
-1.43322e-07
3.98965e-06
-1.42225e-07
3.82263e-06
-1.41257e-07
3.66107e-06
-1.40406e-07
3.505e-06
-1.39658e-07
3.35439e-06
-1.39004e-07
3.20921e-06
-1.38433e-07
3.06939e-06
-1.37937e-07
2.93484e-06
-1.37507e-07
2.80548e-06
-1.37138e-07
2.68118e-06
-1.36822e-07
2.56184e-06
-1.36555e-07
2.44732e-06
-1.36332e-07
2.3375e-06
-1.36147e-07
2.23224e-06
-1.35998e-07
2.1314e-06
-1.35878e-07
2.03485e-06
-1.35782e-07
1.94241e-06
-1.35705e-07
1.85396e-06
-1.35646e-07
1.76937e-06
-1.35607e-07
1.68862e-06
1.61167e-06
-1.34948e-07
1.61019e-06
-1.34928e-07
1.6882e-06
-1.349e-07
1.76952e-06
-1.34865e-07
1.85453e-06
-1.34822e-07
1.94351e-06
-1.3477e-07
2.03666e-06
-1.34709e-07
2.13415e-06
-1.34638e-07
2.23618e-06
-1.34556e-07
2.34291e-06
-1.34463e-07
2.45455e-06
-1.34357e-07
2.57129e-06
-1.34238e-07
2.69334e-06
-1.34104e-07
2.82092e-06
-1.33954e-07
2.95422e-06
-1.33786e-07
3.09348e-06
-1.336e-07
3.23891e-06
-1.33393e-07
3.39075e-06
-1.33164e-07
3.54922e-06
-1.32912e-07
3.71456e-06
-1.32633e-07
3.88699e-06
-1.32325e-07
4.06676e-06
-1.31987e-07
4.2541e-06
-1.31614e-07
4.44923e-06
-1.31203e-07
4.65237e-06
-1.30752e-07
4.86373e-06
-1.30254e-07
5.08352e-06
-1.29706e-07
5.31189e-06
-1.29101e-07
5.549e-06
-1.28436e-07
5.79495e-06
-1.27707e-07
6.04983e-06
-1.26771e-07
7.36283e-06
-1.25781e-07
7.31706e-06
-1.24728e-07
7.27055e-06
-1.23605e-07
7.22322e-06
-1.22409e-07
7.17498e-06
-1.21132e-07
7.12574e-06
-1.19771e-07
7.0754e-06
-1.1832e-07
7.02391e-06
-1.16774e-07
6.97117e-06
-1.15126e-07
6.91711e-06
-1.13371e-07
6.86164e-06
-1.11504e-07
6.80466e-06
-1.09517e-07
6.74607e-06
-1.07404e-07
6.68574e-06
-1.0516e-07
6.62351e-06
-1.02785e-07
6.55911e-06
-1.00304e-07
6.49214e-06
-9.77791e-08
6.42214e-06
-9.53224e-08
6.34876e-06
-9.30799e-08
6.27198e-06
-9.12376e-08
6.19194e-06
-9.0095e-08
6.10861e-06
-9.01584e-08
6.02193e-06
-9.21712e-08
5.93265e-06
-9.70245e-08
5.84341e-06
-1.0552e-07
5.75946e-06
-1.17987e-07
5.68891e-06
-1.33871e-07
5.64183e-06
-1.51549e-07
5.62809e-06
-1.68671e-07
5.65418e-06
-1.82868e-07
5.72086e-06
-1.92603e-07
5.82232e-06
-1.97545e-07
5.94821e-06
-1.98346e-07
6.08726e-06
-1.96122e-07
6.2302e-06
-1.91997e-07
6.37092e-06
-1.86861e-07
6.50629e-06
-1.81323e-07
6.63516e-06
-1.75747e-07
6.75749e-06
-1.70325e-07
6.87353e-06
-1.66084e-07
5.69802e-06
-1.62285e-07
5.49643e-06
-1.58926e-07
5.2953e-06
-1.55968e-07
5.09617e-06
-1.53365e-07
4.90021e-06
-1.51069e-07
4.7082e-06
-1.49041e-07
4.52069e-06
-1.47249e-07
4.33804e-06
-1.45664e-07
4.16051e-06
-1.44263e-07
3.98825e-06
-1.43025e-07
3.82139e-06
-1.41934e-07
3.65998e-06
-1.40973e-07
3.50404e-06
-1.40129e-07
3.35355e-06
-1.3939e-07
3.20847e-06
-1.38745e-07
3.06874e-06
-1.38184e-07
2.93428e-06
-1.37699e-07
2.80499e-06
-1.37281e-07
2.68076e-06
-1.36925e-07
2.56148e-06
-1.36623e-07
2.44702e-06
-1.36371e-07
2.33725e-06
-1.36163e-07
2.23203e-06
-1.35994e-07
2.13123e-06
-1.35858e-07
2.03471e-06
-1.35751e-07
1.94231e-06
-1.35667e-07
1.85388e-06
-1.35605e-07
1.76931e-06
-1.35566e-07
1.68858e-06
1.61166e-06
-1.35168e-07
1.61017e-06
-1.35148e-07
1.68818e-06
-1.3512e-07
1.76949e-06
-1.35083e-07
1.85449e-06
-1.35037e-07
1.94346e-06
-1.34983e-07
2.0366e-06
-1.34918e-07
2.13409e-06
-1.34842e-07
2.2361e-06
-1.34754e-07
2.34282e-06
-1.34654e-07
2.45445e-06
-1.3454e-07
2.57118e-06
-1.34411e-07
2.69321e-06
-1.34265e-07
2.82077e-06
-1.34102e-07
2.95406e-06
-1.33919e-07
3.0933e-06
-1.33715e-07
3.23871e-06
-1.33489e-07
3.39052e-06
-1.33238e-07
3.54897e-06
-1.32961e-07
3.71428e-06
-1.32654e-07
3.88669e-06
-1.32316e-07
4.06642e-06
-1.31943e-07
4.25372e-06
-1.31532e-07
4.44881e-06
-1.31079e-07
4.65191e-06
-1.3058e-07
4.86323e-06
-1.30031e-07
5.08297e-06
-1.29426e-07
5.31129e-06
-1.28758e-07
5.54833e-06
-1.28024e-07
5.79422e-06
-1.27218e-07
6.04903e-06
-1.26183e-07
7.36179e-06
-1.25088e-07
7.31596e-06
-1.23924e-07
7.26939e-06
-1.22684e-07
7.22198e-06
-1.21365e-07
7.17366e-06
-1.19959e-07
7.12433e-06
-1.18464e-07
7.07391e-06
-1.16873e-07
7.02231e-06
-1.15181e-07
6.96947e-06
-1.13385e-07
6.91531e-06
-1.11478e-07
6.85973e-06
-1.09459e-07
6.80264e-06
-1.07322e-07
6.74393e-06
-1.05066e-07
6.68349e-06
-1.02692e-07
6.62114e-06
-1.00209e-07
6.55663e-06
-9.76535e-08
6.48959e-06
-9.51019e-08
6.41959e-06
-9.26811e-08
6.34634e-06
-9.05571e-08
6.26985e-06
-8.8941e-08
6.19032e-06
-8.81553e-08
6.10782e-06
-8.87124e-08
6.02248e-06
-9.13277e-08
5.93527e-06
-9.6821e-08
5.8489e-06
-1.05886e-07
5.76853e-06
-1.18745e-07
5.70177e-06
-1.348e-07
5.65789e-06
-1.525e-07
5.64579e-06
-1.69652e-07
5.67133e-06
-1.84046e-07
5.73526e-06
-1.94195e-07
5.83247e-06
-1.99689e-07
5.95371e-06
-2.01044e-07
6.08862e-06
-1.99259e-07
6.22841e-06
-1.95399e-07
6.36706e-06
-1.90345e-07
6.50123e-06
-1.84732e-07
6.62955e-06
-1.78962e-07
6.75173e-06
-1.73266e-07
6.86783e-06
-1.68767e-07
5.69352e-06
-1.64703e-07
5.49237e-06
-1.61081e-07
5.29168e-06
-1.57873e-07
5.09296e-06
-1.55033e-07
4.89737e-06
-1.5252e-07
4.70569e-06
-1.50293e-07
4.51847e-06
-1.4832e-07
4.33607e-06
-1.46571e-07
4.15876e-06
-1.45023e-07
3.98671e-06
-1.43655e-07
3.82002e-06
-1.42446e-07
3.65877e-06
-1.41382e-07
3.50297e-06
-1.40447e-07
3.35261e-06
-1.39627e-07
3.20765e-06
-1.38912e-07
3.06803e-06
-1.38289e-07
2.93366e-06
-1.37751e-07
2.80445e-06
-1.37288e-07
2.6803e-06
-1.36893e-07
2.56109e-06
-1.36559e-07
2.44668e-06
-1.36279e-07
2.33697e-06
-1.36048e-07
2.2318e-06
-1.35861e-07
2.13105e-06
-1.3571e-07
2.03456e-06
-1.35592e-07
1.94219e-06
-1.355e-07
1.85378e-06
-1.35434e-07
1.76924e-06
-1.35394e-07
1.68854e-06
1.61164e-06
-1.35449e-07
1.61016e-06
-1.35429e-07
1.68816e-06
-1.354e-07
1.76946e-06
-1.35362e-07
1.85445e-06
-1.35315e-07
1.94342e-06
-1.35258e-07
2.03655e-06
-1.35189e-07
2.13402e-06
-1.35109e-07
2.23602e-06
-1.35016e-07
2.34273e-06
-1.3491e-07
2.45434e-06
-1.34788e-07
2.57105e-06
-1.34649e-07
2.69308e-06
-1.34493e-07
2.82061e-06
-1.34317e-07
2.95388e-06
-1.34121e-07
3.0931e-06
-1.33901e-07
3.23849e-06
-1.33657e-07
3.39028e-06
-1.33385e-07
3.5487e-06
-1.33085e-07
3.71398e-06
-1.32752e-07
3.88635e-06
-1.32385e-07
4.06606e-06
-1.3198e-07
4.25332e-06
-1.31533e-07
4.44837e-06
-1.31041e-07
4.65142e-06
-1.30498e-07
4.86269e-06
-1.29901e-07
5.08237e-06
-1.29242e-07
5.31063e-06
-1.28516e-07
5.54761e-06
-1.27717e-07
5.79342e-06
-1.26839e-07
6.04815e-06
-1.25712e-07
7.36067e-06
-1.24518e-07
7.31477e-06
-1.23251e-07
7.26812e-06
-1.21903e-07
7.22064e-06
-1.2047e-07
7.17223e-06
-1.18946e-07
7.12281e-06
-1.17327e-07
7.07229e-06
-1.15609e-07
7.0206e-06
-1.13787e-07
6.96765e-06
-1.11859e-07
6.91338e-06
-1.0982e-07
6.85769e-06
-1.0767e-07
6.80049e-06
-1.05409e-07
6.74167e-06
-1.0304e-07
6.68112e-06
-1.00568e-07
6.61866e-06
-9.80143e-08
6.55407e-06
-9.54247e-08
6.487e-06
-9.28895e-08
6.41706e-06
-9.05486e-08
6.344e-06
-8.85841e-08
6.26789e-06
-8.72262e-08
6.18896e-06
-8.68117e-08
6.10741e-06
-8.78481e-08
6.02352e-06
-9.10135e-08
5.93843e-06
-9.7052e-08
5.85494e-06
-1.06554e-07
5.77803e-06
-1.19651e-07
5.71487e-06
-1.35719e-07
5.67395e-06
-1.53286e-07
5.66336e-06
-1.70318e-07
5.68836e-06
-1.8476e-07
5.7497e-06
-1.95187e-07
5.8429e-06
-2.01133e-07
5.95965e-06
-2.0299e-07
6.09048e-06
-2.01642e-07
6.22706e-06
-1.98081e-07
6.3635e-06
-1.93168e-07
6.49632e-06
-1.8755e-07
6.62393e-06
-1.81659e-07
6.74584e-06
-1.75755e-07
6.86193e-06
-1.71048e-07
5.68881e-06
-1.66761e-07
5.48808e-06
-1.62912e-07
5.28783e-06
-1.59482e-07
5.08953e-06
-1.56431e-07
4.89432e-06
-1.5372e-07
4.70298e-06
-1.51311e-07
4.51606e-06
-1.4917e-07
4.33393e-06
-1.4727e-07
4.15686e-06
-1.45586e-07
3.98502e-06
-1.44094e-07
3.81853e-06
-1.42776e-07
3.65745e-06
-1.41613e-07
3.50181e-06
-1.40592e-07
3.35159e-06
-1.39696e-07
3.20675e-06
-1.38913e-07
3.06724e-06
-1.38233e-07
2.93298e-06
-1.37645e-07
2.80387e-06
-1.37138e-07
2.6798e-06
-1.36706e-07
2.56065e-06
-1.3634e-07
2.44632e-06
-1.36035e-07
2.33666e-06
-1.35782e-07
2.23155e-06
-1.35577e-07
2.13084e-06
-1.35412e-07
2.0344e-06
-1.35283e-07
1.94206e-06
-1.35185e-07
1.85369e-06
-1.35115e-07
1.76917e-06
-1.35072e-07
1.6885e-06
1.61163e-06
-1.358e-07
1.61014e-06
-1.35779e-07
1.68814e-06
-1.3575e-07
1.76943e-06
-1.3571e-07
1.85441e-06
-1.35661e-07
1.94337e-06
-1.35601e-07
2.03649e-06
-1.35529e-07
2.13395e-06
-1.35445e-07
2.23594e-06
-1.35347e-07
2.34263e-06
-1.35235e-07
2.45423e-06
-1.35106e-07
2.57093e-06
-1.34959e-07
2.69293e-06
-1.34793e-07
2.82045e-06
-1.34606e-07
2.9537e-06
-1.34396e-07
3.09289e-06
-1.34162e-07
3.23826e-06
-1.339e-07
3.39002e-06
-1.3361e-07
3.54841e-06
-1.33288e-07
3.71366e-06
-1.32932e-07
3.886e-06
-1.32538e-07
4.06566e-06
-1.32103e-07
4.25288e-06
-1.31623e-07
4.44789e-06
-1.31094e-07
4.65089e-06
-1.30511e-07
4.86211e-06
-1.29868e-07
5.08173e-06
-1.29159e-07
5.30992e-06
-1.28379e-07
5.54683e-06
-1.27519e-07
5.79256e-06
-1.26575e-07
6.0472e-06
-1.25362e-07
7.35945e-06
-1.24078e-07
7.31348e-06
-1.22715e-07
7.26675e-06
-1.21267e-07
7.21919e-06
-1.1973e-07
7.17069e-06
-1.18098e-07
7.12118e-06
-1.16368e-07
7.07056e-06
-1.14536e-07
7.01876e-06
-1.12599e-07
6.96572e-06
-1.10555e-07
6.91134e-06
-1.08403e-07
6.85554e-06
-1.06144e-07
6.79823e-06
-1.03783e-07
6.73931e-06
-1.01325e-07
6.67866e-06
-9.87862e-08
6.61612e-06
-9.61939e-08
6.55148e-06
-9.36052e-08
6.48441e-06
-9.11215e-08
6.41457e-06
-8.8894e-08
6.34178e-06
-8.71173e-08
6.26611e-06
-8.60353e-08
6.18788e-06
-8.59913e-08
6.10736e-06
-8.74797e-08
6.02501e-06
-9.11353e-08
5.94209e-06
-9.76262e-08
5.86143e-06
-1.07449e-07
5.78785e-06
-1.20656e-07
5.72807e-06
-1.36612e-07
5.68991e-06
-1.53929e-07
5.68068e-06
-1.70725e-07
5.70516e-06
-1.85097e-07
5.76407e-06
-1.95687e-07
5.85349e-06
-2.01988e-07
5.96596e-06
-2.04288e-07
6.09278e-06
-2.03356e-07
6.22613e-06
-2.00109e-07
6.36025e-06
-1.95378e-07
6.49159e-06
-1.89808e-07
6.61836e-06
-1.83852e-07
6.73988e-06
-1.77798e-07
6.85588e-06
-1.72925e-07
5.68394e-06
-1.68451e-07
5.48361e-06
-1.64408e-07
5.28379e-06
-1.60783e-07
5.08591e-06
-1.57544e-07
4.89108e-06
-1.54654e-07
4.70009e-06
-1.52078e-07
4.51348e-06
-1.49784e-07
4.33164e-06
-1.47743e-07
4.15482e-06
-1.45931e-07
3.98321e-06
-1.44324e-07
3.81692e-06
-1.42903e-07
3.65603e-06
-1.41648e-07
3.50056e-06
-1.40545e-07
3.35049e-06
-1.39577e-07
3.20579e-06
-1.38731e-07
3.0664e-06
-1.37996e-07
2.93224e-06
-1.37359e-07
2.80323e-06
-1.36812e-07
2.67925e-06
-1.36344e-07
2.56019e-06
-1.35949e-07
2.44592e-06
-1.35618e-07
2.33633e-06
-1.35345e-07
2.23128e-06
-1.35123e-07
2.13062e-06
-1.34946e-07
2.03422e-06
-1.34807e-07
1.94192e-06
-1.34702e-07
1.85358e-06
-1.34628e-07
1.7691e-06
-1.34584e-07
1.68845e-06
1.61161e-06
-1.36227e-07
1.61013e-06
-1.36205e-07
1.68812e-06
-1.36174e-07
1.7694e-06
-1.36133e-07
1.85437e-06
-1.36081e-07
1.94332e-06
-1.36018e-07
2.03642e-06
-1.35943e-07
2.13388e-06
-1.35855e-07
2.23585e-06
-1.35753e-07
2.34253e-06
-1.35634e-07
2.45411e-06
-1.35499e-07
2.57079e-06
-1.35344e-07
2.69278e-06
-1.35169e-07
2.82027e-06
-1.34972e-07
2.9535e-06
-1.3475e-07
3.09267e-06
-1.34502e-07
3.23801e-06
-1.34225e-07
3.38974e-06
-1.33917e-07
3.5481e-06
-1.33576e-07
3.71332e-06
-1.33197e-07
3.88562e-06
-1.32779e-07
4.06524e-06
-1.32316e-07
4.25242e-06
-1.31806e-07
4.44738e-06
-1.31243e-07
4.65033e-06
-1.30622e-07
4.86149e-06
-1.29937e-07
5.08104e-06
-1.29183e-07
5.30916e-06
-1.28352e-07
5.54599e-06
-1.27437e-07
5.79164e-06
-1.26431e-07
6.0462e-06
-1.25139e-07
7.35816e-06
-1.23771e-07
7.31211e-06
-1.22321e-07
7.2653e-06
-1.20782e-07
7.21765e-06
-1.1915e-07
7.16906e-06
-1.17421e-07
7.11945e-06
-1.15592e-07
7.06873e-06
-1.13659e-07
7.01683e-06
-1.11621e-07
6.96368e-06
-1.09478e-07
6.90919e-06
-1.0723e-07
6.85329e-06
-1.04882e-07
6.79588e-06
-1.02442e-07
6.73687e-06
-9.99211e-08
6.67614e-06
-9.73408e-08
6.61354e-06
-9.47377e-08
6.54888e-06
-9.21783e-08
6.48185e-06
-8.97733e-08
6.41217e-06
-8.76832e-08
6.33969e-06
-8.61117e-08
6.26454e-06
-8.53111e-08
6.18708e-06
-8.5625e-08
6.10768e-06
-8.75292e-08
6.02691e-06
-9.16118e-08
5.94617e-06
-9.84673e-08
5.86829e-06
-1.08507e-07
5.79789e-06
-1.21721e-07
5.74129e-06
-1.3747e-07
5.70566e-06
-1.54451e-07
5.69766e-06
-1.70925e-07
5.72163e-06
-1.85133e-07
5.77828e-06
-1.95787e-07
5.86414e-06
-2.02355e-07
5.97252e-06
-2.05032e-07
6.09545e-06
-2.04484e-07
6.22558e-06
-2.01551e-07
6.35732e-06
-1.97022e-07
6.48706e-06
-1.91537e-07
6.61288e-06
-1.8556e-07
6.7339e-06
-1.79401e-07
6.84972e-06
-1.74398e-07
5.67894e-06
-1.69771e-07
5.47898e-06
-1.65561e-07
5.27958e-06
-1.61765e-07
5.08211e-06
-1.58358e-07
4.88767e-06
-1.55307e-07
4.69704e-06
-1.52578e-07
4.51075e-06
-1.50143e-07
4.3292e-06
-1.47973e-07
4.15265e-06
-1.46042e-07
3.98128e-06
-1.44328e-07
3.81521e-06
-1.4281e-07
3.65451e-06
-1.41469e-07
3.49921e-06
-1.40288e-07
3.3493e-06
-1.39252e-07
3.20475e-06
-1.38347e-07
3.06549e-06
-1.37559e-07
2.93146e-06
-1.36877e-07
2.80255e-06
-1.3629e-07