/*--------------------------------*- C++ -*----------------------------------*\
  =========                 |
  \\      /  F ield         | OpenFOAM: The Open Source CFD Toolbox
   \\    /   O peration     | Website:  https://openfoam.org
    \\  /    A nd           | Version:  9
     \\/     M anipulation  |
\*---------------------------------------------------------------------------*/
FoamFile
{
    format      ascii;
    class       volScalarField;
    location    "0.04";
    object      rAU;
}
// * * * * * * * * * * * * * * * * * * * * * * * * * * * * * * * * * * * * * //

dimensions      [-1 3 1 0 0 0 0];

internalField   nonuniform List<scalar> 
20000
(
2.21061e-05
2.06117e-05
2.09099e-05
2.11901e-05
2.14527e-05
2.16987e-05
2.19288e-05
2.2144e-05
2.23452e-05
2.25333e-05
2.27091e-05
2.28736e-05
2.30276e-05
2.31719e-05
2.33074e-05
2.34349e-05
2.35551e-05
2.36687e-05
2.37764e-05
2.38789e-05
2.39768e-05
2.40708e-05
2.41613e-05
2.42489e-05
2.43343e-05
2.44179e-05
2.45002e-05
2.45819e-05
2.46634e-05
2.47568e-05
2.49072e-05
2.49804e-05
2.50446e-05
2.51103e-05
2.51775e-05
2.52465e-05
2.53174e-05
2.53903e-05
2.54653e-05
2.55427e-05
2.56225e-05
2.5705e-05
2.57903e-05
2.58786e-05
2.59703e-05
2.60656e-05
2.61656e-05
2.62712e-05
2.63835e-05
2.65028e-05
2.66291e-05
2.67635e-05
2.69085e-05
2.70663e-05
2.72358e-05
2.74095e-05
2.75701e-05
2.76893e-05
2.77343e-05
2.76828e-05
2.75344e-05
2.73148e-05
2.70602e-05
2.68006e-05
2.65533e-05
2.63247e-05
2.61152e-05
2.59224e-05
2.57439e-05
2.55665e-05
2.53262e-05
2.51645e-05
2.50245e-05
2.48915e-05
2.47635e-05
2.4639e-05
2.45169e-05
2.43962e-05
2.42759e-05
2.41554e-05
2.40335e-05
2.39097e-05
2.37829e-05
2.36523e-05
2.35171e-05
2.33764e-05
2.32292e-05
2.30747e-05
2.29119e-05
2.27398e-05
2.25574e-05
2.23638e-05
2.21579e-05
2.19388e-05
2.17055e-05
2.14569e-05
2.11923e-05
2.09107e-05
2.0611e-05
1.70218e-05
2.92722e-05
2.67033e-05
2.71993e-05
2.76679e-05
2.81094e-05
2.85246e-05
2.89143e-05
2.92795e-05
2.96211e-05
2.99405e-05
3.02386e-05
3.05167e-05
3.07759e-05
3.10175e-05
3.12427e-05
3.14525e-05
3.16482e-05
3.18307e-05
3.20012e-05
3.21606e-05
3.23099e-05
3.245e-05
3.25817e-05
3.27059e-05
3.28234e-05
3.2935e-05
3.30413e-05
3.3143e-05
3.32409e-05
3.33567e-05
3.35662e-05
3.36279e-05
3.36716e-05
3.37163e-05
3.37619e-05
3.38086e-05
3.38565e-05
3.39056e-05
3.39561e-05
3.40079e-05
3.40613e-05
3.41162e-05
3.41729e-05
3.42315e-05
3.4292e-05
3.43549e-05
3.44206e-05
3.44898e-05
3.45631e-05
3.46407e-05
3.47224e-05
3.4809e-05
3.49018e-05
3.50017e-05
3.51072e-05
3.52126e-05
3.53068e-05
3.53726e-05
3.53919e-05
3.53534e-05
3.52581e-05
3.51213e-05
3.49635e-05
3.4802e-05
3.4647e-05
3.45025e-05
3.43688e-05
3.42448e-05
3.4129e-05
3.4001e-05
3.3731e-05
3.35708e-05
3.34347e-05
3.32992e-05
3.31629e-05
3.30243e-05
3.28825e-05
3.27363e-05
3.25848e-05
3.24269e-05
3.22617e-05
3.20881e-05
3.19049e-05
3.17111e-05
3.15054e-05
3.12868e-05
3.10539e-05
3.08055e-05
3.05405e-05
3.02574e-05
2.9955e-05
2.96321e-05
2.92874e-05
2.89197e-05
2.8528e-05
2.81112e-05
2.76684e-05
2.71989e-05
2.67018e-05
2.09776e-05
2.92726e-05
2.67034e-05
2.71993e-05
2.76679e-05
2.81095e-05
2.85247e-05
2.89144e-05
2.92796e-05
2.96213e-05
2.99407e-05
3.02388e-05
3.0517e-05
3.07763e-05
3.10179e-05
3.12431e-05
3.1453e-05
3.16487e-05
3.18313e-05
3.20018e-05
3.21613e-05
3.23106e-05
3.24508e-05
3.25826e-05
3.27069e-05
3.28244e-05
3.2936e-05
3.30424e-05
3.31442e-05
3.32422e-05
3.33581e-05
3.35675e-05
3.36293e-05
3.36733e-05
3.37181e-05
3.37639e-05
3.38108e-05
3.38589e-05
3.39083e-05
3.39589e-05
3.40111e-05
3.40647e-05
3.412e-05
3.41771e-05
3.4236e-05
3.4297e-05
3.43604e-05
3.44266e-05
3.44964e-05
3.45703e-05
3.46485e-05
3.47309e-05
3.4818e-05
3.49111e-05
3.50105e-05
3.51143e-05
3.52166e-05
3.53059e-05
3.5366e-05
3.53802e-05
3.53386e-05
3.5243e-05
3.51077e-05
3.4952e-05
3.47924e-05
3.46389e-05
3.44956e-05
3.43628e-05
3.42396e-05
3.41245e-05
3.39973e-05
3.37269e-05
3.3567e-05
3.34312e-05
3.3296e-05
3.31599e-05
3.30216e-05
3.288e-05
3.2734e-05
3.25827e-05
3.2425e-05
3.226e-05
3.20865e-05
3.19034e-05
3.17097e-05
3.15042e-05
3.12856e-05
3.10529e-05
3.08046e-05
3.05396e-05
3.02565e-05
2.99542e-05
2.96313e-05
2.92867e-05
2.8919e-05
2.85273e-05
2.81105e-05
2.76677e-05
2.71982e-05
2.67012e-05
2.0977e-05
2.9273e-05
2.67035e-05
2.71994e-05
2.7668e-05
2.81095e-05
2.85248e-05
2.89145e-05
2.92798e-05
2.96215e-05
2.99409e-05
3.02391e-05
3.05173e-05
3.07766e-05
3.10183e-05
3.12436e-05
3.14535e-05
3.16492e-05
3.18319e-05
3.20025e-05
3.2162e-05
3.23114e-05
3.24516e-05
3.25835e-05
3.27078e-05
3.28255e-05
3.29371e-05
3.30436e-05
3.31455e-05
3.32436e-05
3.33595e-05
3.35689e-05
3.36308e-05
3.36749e-05
3.372e-05
3.3766e-05
3.38131e-05
3.38614e-05
3.3911e-05
3.39619e-05
3.40143e-05
3.40683e-05
3.41239e-05
3.41813e-05
3.42406e-05
3.43021e-05
3.43659e-05
3.44327e-05
3.4503e-05
3.45774e-05
3.46561e-05
3.47389e-05
3.48263e-05
3.49191e-05
3.50175e-05
3.5119e-05
3.52173e-05
3.53013e-05
3.53557e-05
3.53655e-05
3.5322e-05
3.52272e-05
3.50945e-05
3.49418e-05
3.47847e-05
3.46329e-05
3.44906e-05
3.43587e-05
3.42361e-05
3.41215e-05
3.39948e-05
3.37239e-05
3.35642e-05
3.34286e-05
3.32936e-05
3.31576e-05
3.30195e-05
3.2878e-05
3.27322e-05
3.2581e-05
3.24235e-05
3.22586e-05
3.20852e-05
3.19023e-05
3.17087e-05
3.15033e-05
3.12848e-05
3.10521e-05
3.08039e-05
3.05389e-05
3.02559e-05
2.99536e-05
2.96308e-05
2.92861e-05
2.89185e-05
2.85268e-05
2.811e-05
2.76672e-05
2.71978e-05
2.67008e-05
2.09767e-05
2.92731e-05
2.67036e-05
2.71994e-05
2.7668e-05
2.81096e-05
2.85248e-05
2.89146e-05
2.92799e-05
2.96217e-05
2.99411e-05
3.02393e-05
3.05175e-05
3.07769e-05
3.10187e-05
3.12439e-05
3.14539e-05
3.16497e-05
3.18324e-05
3.20031e-05
3.21627e-05
3.23121e-05
3.24524e-05
3.25843e-05
3.27088e-05
3.28265e-05
3.29382e-05
3.30448e-05
3.31468e-05
3.32449e-05
3.33609e-05
3.35703e-05
3.36324e-05
3.36767e-05
3.37219e-05
3.37681e-05
3.38154e-05
3.38639e-05
3.39138e-05
3.3965e-05
3.40176e-05
3.40719e-05
3.41278e-05
3.41856e-05
3.42453e-05
3.43072e-05
3.43715e-05
3.44387e-05
3.45095e-05
3.45843e-05
3.46633e-05
3.47462e-05
3.48336e-05
3.49258e-05
3.50226e-05
3.51212e-05
3.52152e-05
3.52937e-05
3.53428e-05
3.53487e-05
3.53041e-05
3.52112e-05
3.50819e-05
3.49328e-05
3.47785e-05
3.46285e-05
3.44874e-05
3.43561e-05
3.4234e-05
3.41198e-05
3.39934e-05
3.37219e-05
3.35623e-05
3.34268e-05
3.32919e-05
3.3156e-05
3.3018e-05
3.28766e-05
3.27309e-05
3.25799e-05
3.24225e-05
3.22577e-05
3.20844e-05
3.19015e-05
3.1708e-05
3.15026e-05
3.12842e-05
3.10516e-05
3.08034e-05
3.05385e-05
3.02555e-05
2.99532e-05
2.96304e-05
2.92858e-05
2.89181e-05
2.85264e-05
2.81096e-05
2.76669e-05
2.71974e-05
2.67005e-05
2.09763e-05
2.92729e-05
2.67034e-05
2.71993e-05
2.76679e-05
2.81095e-05
2.85248e-05
2.89146e-05
2.92799e-05
2.96217e-05
2.99412e-05
3.02394e-05
3.05177e-05
3.07771e-05
3.10189e-05
3.12443e-05
3.14543e-05
3.16502e-05
3.18329e-05
3.20037e-05
3.21633e-05
3.23128e-05
3.24532e-05
3.25852e-05
3.27097e-05
3.28275e-05
3.29393e-05
3.30459e-05
3.3148e-05
3.32463e-05
3.33624e-05
3.35717e-05
3.3634e-05
3.36784e-05
3.37238e-05
3.37702e-05
3.38177e-05
3.38665e-05
3.39166e-05
3.3968e-05
3.4021e-05
3.40755e-05
3.41318e-05
3.41899e-05
3.42499e-05
3.43122e-05
3.43769e-05
3.44446e-05
3.45157e-05
3.45908e-05
3.46699e-05
3.47528e-05
3.48398e-05
3.4931e-05
3.50259e-05
3.51213e-05
3.52107e-05
3.52839e-05
3.5328e-05
3.53307e-05
3.52857e-05
3.51951e-05
3.50697e-05
3.49245e-05
3.47733e-05
3.46255e-05
3.44856e-05
3.43549e-05
3.42332e-05
3.41193e-05
3.39931e-05
3.3721e-05
3.35614e-05
3.34258e-05
3.32909e-05
3.31551e-05
3.30171e-05
3.28759e-05
3.27302e-05
3.25793e-05
3.24219e-05
3.22572e-05
3.20839e-05
3.19012e-05
3.17077e-05
3.15024e-05
3.1284e-05
3.10513e-05
3.08032e-05
3.05383e-05
3.02554e-05
2.99531e-05
2.96302e-05
2.92856e-05
2.8918e-05
2.85262e-05
2.81094e-05
2.76667e-05
2.71972e-05
2.67002e-05
2.09759e-05
2.92725e-05
2.67032e-05
2.71991e-05
2.76677e-05
2.81093e-05
2.85246e-05
2.89145e-05
2.92798e-05
2.96217e-05
2.99412e-05
3.02395e-05
3.05178e-05
3.07773e-05
3.10191e-05
3.12445e-05
3.14546e-05
3.16506e-05
3.18334e-05
3.20042e-05
3.21639e-05
3.23135e-05
3.24539e-05
3.2586e-05
3.27105e-05
3.28284e-05
3.29403e-05
3.30471e-05
3.31492e-05
3.32476e-05
3.33638e-05
3.35731e-05
3.36356e-05
3.36802e-05
3.37257e-05
3.37723e-05
3.38201e-05
3.38691e-05
3.39194e-05
3.39711e-05
3.40243e-05
3.40791e-05
3.41357e-05
3.41941e-05
3.42545e-05
3.43171e-05
3.43822e-05
3.44502e-05
3.45216e-05
3.45968e-05
3.46759e-05
3.47586e-05
3.48449e-05
3.49348e-05
3.50275e-05
3.51194e-05
3.52043e-05
3.52724e-05
3.53119e-05
3.5312e-05
3.52671e-05
3.51791e-05
3.50578e-05
3.49168e-05
3.4769e-05
3.46234e-05
3.44848e-05
3.43549e-05
3.42335e-05
3.41198e-05
3.39938e-05
3.3721e-05
3.35614e-05
3.34258e-05
3.32908e-05
3.3155e-05
3.3017e-05
3.28757e-05
3.27301e-05
3.25792e-05
3.24219e-05
3.22572e-05
3.2084e-05
3.19012e-05
3.17078e-05
3.15025e-05
3.12841e-05
3.10515e-05
3.08033e-05
3.05384e-05
3.02555e-05
2.99532e-05
2.96304e-05
2.92857e-05
2.8918e-05
2.85263e-05
2.81094e-05
2.76667e-05
2.71972e-05
2.67002e-05
2.09757e-05
2.9272e-05
2.67028e-05
2.71987e-05
2.76673e-05
2.8109e-05
2.85244e-05
2.89142e-05
2.92796e-05
2.96215e-05
2.99411e-05
3.02394e-05
3.05178e-05
3.07773e-05
3.10192e-05
3.12447e-05
3.14549e-05
3.16509e-05
3.18338e-05
3.20046e-05
3.21644e-05
3.23141e-05
3.24545e-05
3.25867e-05
3.27114e-05
3.28293e-05
3.29414e-05
3.30482e-05
3.31504e-05
3.32489e-05
3.33652e-05
3.35746e-05
3.36371e-05
3.36819e-05
3.37277e-05
3.37745e-05
3.38224e-05
3.38716e-05
3.39222e-05
3.39741e-05
3.40276e-05
3.40827e-05
3.41395e-05
3.41982e-05
3.4259e-05
3.43219e-05
3.43872e-05
3.44555e-05
3.45271e-05
3.46024e-05
3.46813e-05
3.47635e-05
3.4849e-05
3.49374e-05
3.50275e-05
3.5116e-05
3.51965e-05
3.52598e-05
3.52952e-05
3.52931e-05
3.52485e-05
3.51632e-05
3.50461e-05
3.49094e-05
3.47651e-05
3.46219e-05
3.44848e-05
3.43557e-05
3.42347e-05
3.41212e-05
3.39954e-05
3.3722e-05
3.35622e-05
3.34265e-05
3.32914e-05
3.31555e-05
3.30175e-05
3.28762e-05
3.27306e-05
3.25797e-05
3.24224e-05
3.22577e-05
3.20845e-05
3.19017e-05
3.17083e-05
3.1503e-05
3.12846e-05
3.1052e-05
3.08039e-05
3.0539e-05
3.0256e-05
2.99537e-05
2.96308e-05
2.92861e-05
2.89184e-05
2.85266e-05
2.81098e-05
2.7667e-05
2.71975e-05
2.67004e-05
2.09759e-05
2.92713e-05
2.67022e-05
2.71981e-05
2.76668e-05
2.81085e-05
2.85239e-05
2.89139e-05
2.92793e-05
2.96212e-05
2.99408e-05
3.02392e-05
3.05176e-05
3.07772e-05
3.10192e-05
3.12448e-05
3.1455e-05
3.16511e-05
3.1834e-05
3.20049e-05
3.21648e-05
3.23146e-05
3.24551e-05
3.25874e-05
3.27122e-05
3.28302e-05
3.29423e-05
3.30492e-05
3.31516e-05
3.32502e-05
3.33666e-05
3.3576e-05
3.36387e-05
3.36837e-05
3.37296e-05
3.37766e-05
3.38247e-05
3.38742e-05
3.39249e-05
3.39771e-05
3.40308e-05
3.40862e-05
3.41433e-05
3.42023e-05
3.42633e-05
3.43265e-05
3.43921e-05
3.44605e-05
3.45322e-05
3.46074e-05
3.4686e-05
3.47676e-05
3.4852e-05
3.49388e-05
3.50263e-05
3.51113e-05
3.51875e-05
3.52463e-05
3.5278e-05
3.5274e-05
3.523e-05
3.51476e-05
3.50345e-05
3.49021e-05
3.47615e-05
3.46209e-05
3.44854e-05
3.43573e-05
3.42367e-05
3.41235e-05
3.39977e-05
3.37238e-05
3.35639e-05
3.3428e-05
3.32928e-05
3.31568e-05
3.30187e-05
3.28774e-05
3.27317e-05
3.25808e-05
3.24234e-05
3.22587e-05
3.20855e-05
3.19028e-05
3.17093e-05
3.1504e-05
3.12856e-05
3.1053e-05
3.08048e-05
3.05399e-05
3.02569e-05
2.99546e-05
2.96317e-05
2.92869e-05
2.89192e-05
2.85274e-05
2.81105e-05
2.76677e-05
2.71982e-05
2.6701e-05
2.09764e-05
2.92703e-05
2.67015e-05
2.71974e-05
2.76662e-05
2.81079e-05
2.85234e-05
2.89133e-05
2.92788e-05
2.96208e-05
2.99404e-05
3.02389e-05
3.05174e-05
3.07771e-05
3.10191e-05
3.12447e-05
3.1455e-05
3.16512e-05
3.18342e-05
3.20052e-05
3.21652e-05
3.2315e-05
3.24557e-05
3.2588e-05
3.27129e-05
3.2831e-05
3.29432e-05
3.30502e-05
3.31527e-05
3.32514e-05
3.33679e-05
3.35774e-05
3.36403e-05
3.36854e-05
3.37315e-05
3.37787e-05
3.3827e-05
3.38767e-05
3.39276e-05
3.39801e-05
3.4034e-05
3.40896e-05
3.4147e-05
3.42062e-05
3.42674e-05
3.43308e-05
3.43967e-05
3.44652e-05
3.45369e-05
3.46119e-05
3.469e-05
3.47709e-05
3.48541e-05
3.4939e-05
3.5024e-05
3.51055e-05
3.51776e-05
3.52323e-05
3.52607e-05
3.52552e-05
3.52118e-05
3.51322e-05
3.50232e-05
3.48951e-05
3.47581e-05
3.46202e-05
3.44865e-05
3.43594e-05
3.42394e-05
3.41264e-05
3.40008e-05
3.37263e-05
3.35663e-05
3.34302e-05
3.32949e-05
3.31587e-05
3.30205e-05
3.28791e-05
3.27334e-05
3.25824e-05
3.24251e-05
3.22603e-05
3.20871e-05
3.19043e-05
3.17108e-05
3.15055e-05
3.12871e-05
3.10544e-05
3.08062e-05
3.05413e-05
3.02582e-05
2.99559e-05
2.9633e-05
2.92882e-05
2.89204e-05
2.85286e-05
2.81117e-05
2.76688e-05
2.71992e-05
2.6702e-05
2.09774e-05
2.92691e-05
2.67006e-05
2.71966e-05
2.76653e-05
2.81071e-05
2.85226e-05
2.89126e-05
2.92781e-05
2.96202e-05
2.99399e-05
3.02385e-05
3.0517e-05
3.07767e-05
3.10189e-05
3.12446e-05
3.14549e-05
3.16512e-05
3.18343e-05
3.20054e-05
3.21654e-05
3.23154e-05
3.24561e-05
3.25885e-05
3.27135e-05
3.28317e-05
3.29441e-05
3.30512e-05
3.31538e-05
3.32526e-05
3.33692e-05
3.35788e-05
3.36418e-05
3.36871e-05
3.37334e-05
3.37807e-05
3.38293e-05
3.38791e-05
3.39303e-05
3.3983e-05
3.40371e-05
3.4093e-05
3.41505e-05
3.421e-05
3.42714e-05
3.4335e-05
3.44009e-05
3.44695e-05
3.45411e-05
3.46159e-05
3.46934e-05
3.47734e-05
3.48553e-05
3.49383e-05
3.50206e-05
3.50987e-05
3.5167e-05
3.52179e-05
3.52434e-05
3.52366e-05
3.5194e-05
3.51171e-05
3.50121e-05
3.48882e-05
3.47548e-05
3.46197e-05
3.44879e-05
3.43619e-05
3.42426e-05
3.41299e-05
3.40045e-05
3.37296e-05
3.35694e-05
3.34331e-05
3.32976e-05
3.31614e-05
3.3023e-05
3.28815e-05
3.27358e-05
3.25847e-05
3.24273e-05
3.22625e-05
3.20892e-05
3.19064e-05
3.17128e-05
3.15075e-05
3.1289e-05
3.10563e-05
3.08081e-05
3.05431e-05
3.02601e-05
2.99577e-05
2.96347e-05
2.92899e-05
2.89221e-05
2.85302e-05
2.81133e-05
2.76704e-05
2.72008e-05
2.67035e-05
2.09789e-05
2.92677e-05
2.66994e-05
2.71955e-05
2.76643e-05
2.81061e-05
2.85217e-05
2.89117e-05
2.92773e-05
2.96194e-05
2.99392e-05
3.02379e-05
3.05165e-05
3.07763e-05
3.10185e-05
3.12443e-05
3.14547e-05
3.1651e-05
3.18343e-05
3.20054e-05
3.21656e-05
3.23156e-05
3.24564e-05
3.2589e-05
3.2714e-05
3.28324e-05
3.29448e-05
3.3052e-05
3.31548e-05
3.32537e-05
3.33704e-05
3.35801e-05
3.36433e-05
3.36888e-05
3.37352e-05
3.37827e-05
3.38315e-05
3.38815e-05
3.39329e-05
3.39857e-05
3.40401e-05
3.40962e-05
3.41539e-05
3.42136e-05
3.42752e-05
3.43389e-05
3.44049e-05
3.44735e-05
3.45449e-05
3.46192e-05
3.46962e-05
3.47752e-05
3.48557e-05
3.49368e-05
3.50164e-05
3.50913e-05
3.51559e-05
3.52034e-05
3.52263e-05
3.52184e-05
3.51767e-05
3.51025e-05
3.50012e-05
3.48814e-05
3.47517e-05
3.46195e-05
3.44896e-05
3.43649e-05
3.42463e-05
3.4134e-05
3.40087e-05
3.37335e-05
3.35732e-05
3.34367e-05
3.33011e-05
3.31646e-05
3.30262e-05
3.28846e-05
3.27387e-05
3.25875e-05
3.24301e-05
3.22652e-05
3.20919e-05
3.1909e-05
3.17154e-05
3.151e-05
3.12916e-05
3.10588e-05
3.08106e-05
3.05455e-05
3.02625e-05
2.996e-05
2.9637e-05
2.92922e-05
2.89243e-05
2.85324e-05
2.81154e-05
2.76725e-05
2.72028e-05
2.67055e-05
2.0981e-05
2.9266e-05
2.66981e-05
2.71942e-05
2.7663e-05
2.81049e-05
2.85205e-05
2.89107e-05
2.92763e-05
2.96185e-05
2.99384e-05
3.02371e-05
3.05158e-05
3.07757e-05
3.1018e-05
3.12438e-05
3.14544e-05
3.16508e-05
3.18341e-05
3.20054e-05
3.21656e-05
3.23157e-05
3.24567e-05
3.25893e-05
3.27145e-05
3.2833e-05
3.29455e-05
3.30528e-05
3.31557e-05
3.32547e-05
3.33716e-05
3.35814e-05
3.36448e-05
3.36904e-05
3.3737e-05
3.37847e-05
3.38336e-05
3.38838e-05
3.39354e-05
3.39884e-05
3.4043e-05
3.40992e-05
3.41572e-05
3.4217e-05
3.42787e-05
3.43425e-05
3.44085e-05
3.4477e-05
3.45482e-05
3.46221e-05
3.46983e-05
3.47763e-05
3.48553e-05
3.49344e-05
3.50115e-05
3.50833e-05
3.51445e-05
3.51888e-05
3.52094e-05
3.52007e-05
3.51599e-05
3.50882e-05
3.49906e-05
3.48747e-05
3.47487e-05
3.46193e-05
3.44916e-05
3.43682e-05
3.42504e-05
3.41385e-05
3.40135e-05
3.3738e-05
3.35776e-05
3.3441e-05
3.33051e-05
3.31686e-05
3.303e-05
3.28882e-05
3.27423e-05
3.2591e-05
3.24335e-05
3.22685e-05
3.20952e-05
3.19122e-05
3.17186e-05
3.15132e-05
3.12947e-05
3.10619e-05
3.08136e-05
3.05485e-05
3.02654e-05
2.99629e-05
2.96399e-05
2.9295e-05
2.89271e-05
2.85352e-05
2.81181e-05
2.76752e-05
2.72054e-05
2.67081e-05
2.09837e-05
2.9264e-05
2.66965e-05
2.71926e-05
2.76616e-05
2.81035e-05
2.85192e-05
2.89094e-05
2.92751e-05
2.96174e-05
2.99373e-05
3.02361e-05
3.05149e-05
3.07749e-05
3.10173e-05
3.12432e-05
3.14539e-05
3.16504e-05
3.18338e-05
3.20052e-05
3.21655e-05
3.23157e-05
3.24568e-05
3.25896e-05
3.27148e-05
3.28334e-05
3.29461e-05
3.30535e-05
3.31565e-05
3.32557e-05
3.33727e-05
3.35826e-05
3.36461e-05
3.36919e-05
3.37387e-05
3.37865e-05
3.38356e-05
3.3886e-05
3.39378e-05
3.3991e-05
3.40457e-05
3.41021e-05
3.41602e-05
3.42201e-05
3.42819e-05
3.43458e-05
3.44118e-05
3.44802e-05
3.45511e-05
3.46244e-05
3.46999e-05
3.47767e-05
3.48543e-05
3.49314e-05
3.5006e-05
3.50748e-05
3.51329e-05
3.51743e-05
3.51928e-05
3.51834e-05
3.51436e-05
3.50744e-05
3.49803e-05
3.48683e-05
3.47457e-05
3.46193e-05
3.44936e-05
3.43717e-05
3.42548e-05
3.41435e-05
3.40187e-05
3.37431e-05
3.35826e-05
3.34458e-05
3.33098e-05
3.31731e-05
3.30344e-05
3.28925e-05
3.27465e-05
3.25951e-05
3.24375e-05
3.22725e-05
3.20991e-05
3.19161e-05
3.17224e-05
3.15169e-05
3.12983e-05
3.10655e-05
3.08172e-05
3.05521e-05
3.02689e-05
2.99665e-05
2.96434e-05
2.92985e-05
2.89305e-05
2.85385e-05
2.81215e-05
2.76785e-05
2.72087e-05
2.67113e-05
2.0987e-05
2.92617e-05
2.66947e-05
2.71909e-05
2.76599e-05
2.81019e-05
2.85176e-05
2.89079e-05
2.92737e-05
2.9616e-05
2.99361e-05
3.02349e-05
3.05138e-05
3.07739e-05
3.10164e-05
3.12424e-05
3.14532e-05
3.16498e-05
3.18334e-05
3.20048e-05
3.21653e-05
3.23156e-05
3.24568e-05
3.25897e-05
3.27151e-05
3.28338e-05
3.29466e-05
3.30541e-05
3.31572e-05
3.32565e-05
3.33737e-05
3.35838e-05
3.36474e-05
3.36933e-05
3.37403e-05
3.37883e-05
3.38375e-05
3.38881e-05
3.394e-05
3.39934e-05
3.40483e-05
3.41048e-05
3.41631e-05
3.42231e-05
3.4285e-05
3.43488e-05
3.44147e-05
3.44829e-05
3.45535e-05
3.46262e-05
3.47009e-05
3.47766e-05
3.48527e-05
3.49278e-05
3.5e-05
3.5066e-05
3.51211e-05
3.51599e-05
3.51766e-05
3.51667e-05
3.51279e-05
3.50611e-05
3.49703e-05
3.48619e-05
3.47429e-05
3.46193e-05
3.44959e-05
3.43754e-05
3.42595e-05
3.41488e-05
3.40243e-05
3.37487e-05
3.35881e-05
3.34513e-05
3.33151e-05
3.31783e-05
3.30394e-05
3.28975e-05
3.27513e-05
3.25999e-05
3.24422e-05
3.22771e-05
3.21036e-05
3.19205e-05
3.17268e-05
3.15213e-05
3.13027e-05
3.10698e-05
3.08215e-05
3.05563e-05
3.02731e-05
2.99706e-05
2.96475e-05
2.93026e-05
2.89346e-05
2.85426e-05
2.81255e-05
2.76824e-05
2.72127e-05
2.67152e-05
2.09911e-05
2.92591e-05
2.66927e-05
2.71889e-05
2.7658e-05
2.81e-05
2.85158e-05
2.89062e-05
2.92721e-05
2.96145e-05
2.99346e-05
3.02336e-05
3.05126e-05
3.07728e-05
3.10154e-05
3.12415e-05
3.14524e-05
3.16491e-05
3.18328e-05
3.20044e-05
3.21649e-05
3.23154e-05
3.24567e-05
3.25897e-05
3.27152e-05
3.2834e-05
3.29469e-05
3.30546e-05
3.31579e-05
3.32573e-05
3.33746e-05
3.35849e-05
3.36487e-05
3.36947e-05
3.37418e-05
3.379e-05
3.38394e-05
3.38901e-05
3.39422e-05
3.39957e-05
3.40507e-05
3.41074e-05
3.41657e-05
3.42258e-05
3.42877e-05
3.43515e-05
3.44173e-05
3.44853e-05
3.45554e-05
3.46276e-05
3.47014e-05
3.4776e-05
3.48505e-05
3.49237e-05
3.49936e-05
3.50569e-05
3.51094e-05
3.51458e-05
3.51609e-05
3.51505e-05
3.51127e-05
3.50482e-05
3.49607e-05
3.48558e-05
3.47401e-05
3.46194e-05
3.44982e-05
3.43793e-05
3.42645e-05
3.41544e-05
3.40303e-05
3.37548e-05
3.35942e-05
3.34573e-05
3.3321e-05
3.31841e-05
3.30451e-05
3.2903e-05
3.27567e-05
3.26052e-05
3.24474e-05
3.22823e-05
3.21087e-05
3.19256e-05
3.17319e-05
3.15263e-05
3.13077e-05
3.10748e-05
3.08264e-05
3.05612e-05
3.0278e-05
2.99755e-05
2.96523e-05
2.93074e-05
2.89394e-05
2.85474e-05
2.81302e-05
2.76872e-05
2.72174e-05
2.67198e-05
2.0996e-05
2.92562e-05
2.66904e-05
2.71867e-05
2.76558e-05
2.80979e-05
2.85138e-05
2.89043e-05
2.92702e-05
2.96128e-05
2.9933e-05
3.0232e-05
3.05111e-05
3.07714e-05
3.10141e-05
3.12404e-05
3.14514e-05
3.16482e-05
3.1832e-05
3.20037e-05
3.21644e-05
3.2315e-05
3.24564e-05
3.25895e-05
3.27152e-05
3.28341e-05
3.29472e-05
3.3055e-05
3.31584e-05
3.32579e-05
3.33753e-05
3.35859e-05
3.36498e-05
3.3696e-05
3.37432e-05
3.37915e-05
3.38411e-05
3.38919e-05
3.39442e-05
3.39978e-05
3.4053e-05
3.41098e-05
3.41682e-05
3.42283e-05
3.42902e-05
3.43539e-05
3.44196e-05
3.44873e-05
3.4557e-05
3.46285e-05
3.47014e-05
3.47748e-05
3.48479e-05
3.49192e-05
3.49869e-05
3.50477e-05
3.50977e-05
3.51319e-05
3.51456e-05
3.5135e-05
3.50981e-05
3.50358e-05
3.49513e-05
3.48499e-05
3.47375e-05
3.46196e-05
3.45006e-05
3.43834e-05
3.42697e-05
3.41604e-05
3.40367e-05
3.37614e-05
3.36008e-05
3.34638e-05
3.33275e-05
3.31904e-05
3.30513e-05
3.29092e-05
3.27628e-05
3.26112e-05
3.24534e-05
3.22881e-05
3.21145e-05
3.19314e-05
3.17376e-05
3.1532e-05
3.13133e-05
3.10804e-05
3.0832e-05
3.05668e-05
3.02836e-05
2.99811e-05
2.96579e-05
2.93129e-05
2.8945e-05
2.85529e-05
2.81358e-05
2.76927e-05
2.72228e-05
2.67253e-05
2.10018e-05
2.9253e-05
2.66879e-05
2.71842e-05
2.76534e-05
2.80956e-05
2.85116e-05
2.89021e-05
2.92681e-05
2.96108e-05
2.99311e-05
3.02303e-05
3.05095e-05
3.07699e-05
3.10127e-05
3.12391e-05
3.14502e-05
3.16472e-05
3.18311e-05
3.20029e-05
3.21637e-05
3.23145e-05
3.2456e-05
3.25893e-05
3.2715e-05
3.28341e-05
3.29473e-05
3.30553e-05
3.31588e-05
3.32585e-05
3.3376e-05
3.35868e-05
3.36509e-05
3.36972e-05
3.37445e-05
3.3793e-05
3.38427e-05
3.38937e-05
3.3946e-05
3.39998e-05
3.40551e-05
3.41119e-05
3.41704e-05
3.42305e-05
3.42924e-05
3.43561e-05
3.44216e-05
3.44889e-05
3.45582e-05
3.4629e-05
3.4701e-05
3.47732e-05
3.48448e-05
3.49144e-05
3.49799e-05
3.50384e-05
3.50861e-05
3.51183e-05
3.51308e-05
3.51199e-05
3.50841e-05
3.50239e-05
3.49423e-05
3.48442e-05
3.4735e-05
3.46199e-05
3.45032e-05
3.43877e-05
3.42752e-05
3.41666e-05
3.40434e-05
3.37684e-05
3.36079e-05
3.34709e-05
3.33345e-05
3.31973e-05
3.30582e-05
3.29159e-05
3.27695e-05
3.26178e-05
3.24599e-05
3.22947e-05
3.2121e-05
3.19378e-05
3.1744e-05
3.15383e-05
3.13197e-05
3.10868e-05
3.08384e-05
3.05732e-05
3.029e-05
2.99874e-05
2.96643e-05
2.93193e-05
2.89513e-05
2.85592e-05
2.81421e-05
2.7699e-05
2.72292e-05
2.67316e-05
2.10084e-05
2.92494e-05
2.66851e-05
2.71815e-05
2.76507e-05
2.8093e-05
2.85091e-05
2.88997e-05
2.92658e-05
2.96086e-05
2.9929e-05
3.02283e-05
3.05076e-05
3.07682e-05
3.10111e-05
3.12376e-05
3.14489e-05
3.1646e-05
3.183e-05
3.2002e-05
3.21629e-05
3.23138e-05
3.24555e-05
3.25888e-05
3.27147e-05
3.2834e-05
3.29473e-05
3.30554e-05
3.3159e-05
3.32589e-05
3.33766e-05
3.35877e-05
3.36518e-05
3.36982e-05
3.37457e-05
3.37943e-05
3.38441e-05
3.38952e-05
3.39477e-05
3.40016e-05
3.4057e-05
3.41139e-05
3.41724e-05
3.42326e-05
3.42944e-05
3.43579e-05
3.44232e-05
3.44902e-05
3.4559e-05
3.46291e-05
3.47002e-05
3.47713e-05
3.48414e-05
3.49092e-05
3.49728e-05
3.50291e-05
3.50746e-05
3.51051e-05
3.51164e-05
3.51055e-05
3.50706e-05
3.50125e-05
3.49337e-05
3.48388e-05
3.47327e-05
3.46204e-05
3.45059e-05
3.43921e-05
3.42809e-05
3.41732e-05
3.40505e-05
3.37759e-05
3.36155e-05
3.34785e-05
3.33421e-05
3.32049e-05
3.30656e-05
3.29233e-05
3.27768e-05
3.26251e-05
3.24671e-05
3.23018e-05
3.21282e-05
3.1945e-05
3.17511e-05
3.15454e-05
3.13268e-05
3.10939e-05
3.08455e-05
3.05803e-05
3.02971e-05
2.99945e-05
2.96714e-05
2.93264e-05
2.89585e-05
2.85664e-05
2.81493e-05
2.77062e-05
2.72363e-05
2.67387e-05
2.1016e-05
2.92455e-05
2.6682e-05
2.71785e-05
2.76478e-05
2.80902e-05
2.85063e-05
2.8897e-05
2.92633e-05
2.96061e-05
2.99267e-05
3.02261e-05
3.05055e-05
3.07662e-05
3.10093e-05
3.1236e-05
3.14473e-05
3.16446e-05
3.18287e-05
3.20008e-05
3.21619e-05
3.23129e-05
3.24547e-05
3.25883e-05
3.27143e-05
3.28337e-05
3.29471e-05
3.30554e-05
3.31592e-05
3.32592e-05
3.3377e-05
3.35884e-05
3.36527e-05
3.36992e-05
3.37468e-05
3.37955e-05
3.38454e-05
3.38967e-05
3.39492e-05
3.40032e-05
3.40587e-05
3.41156e-05
3.41742e-05
3.42343e-05
3.42961e-05
3.43595e-05
3.44245e-05
3.44912e-05
3.45594e-05
3.46289e-05
3.4699e-05
3.4769e-05
3.48377e-05
3.49038e-05
3.49655e-05
3.50198e-05
3.50633e-05
3.50922e-05
3.51026e-05
3.50916e-05
3.50578e-05
3.50016e-05
3.49255e-05
3.48336e-05
3.47305e-05
3.4621e-05
3.45087e-05
3.43967e-05
3.42867e-05
3.41799e-05
3.40578e-05
3.37837e-05
3.36235e-05
3.34866e-05
3.33502e-05
3.32129e-05
3.30737e-05
3.29313e-05
3.27848e-05
3.2633e-05
3.2475e-05
3.23097e-05
3.2136e-05
3.19528e-05
3.17589e-05
3.15533e-05
3.13346e-05
3.11017e-05
3.08533e-05
3.05882e-05
3.0305e-05
3.00025e-05
2.96794e-05
2.93344e-05
2.89665e-05
2.85745e-05
2.81574e-05
2.77143e-05
2.72444e-05
2.67468e-05
2.10246e-05
2.92413e-05
2.66787e-05
2.71752e-05
2.76446e-05
2.80871e-05
2.85033e-05
2.88941e-05
2.92605e-05
2.96034e-05
2.99241e-05
3.02237e-05
3.05033e-05
3.07641e-05
3.10073e-05
3.12341e-05
3.14456e-05
3.1643e-05
3.18273e-05
3.19995e-05
3.21608e-05
3.23119e-05
3.24539e-05
3.25875e-05
3.27137e-05
3.28333e-05
3.29469e-05
3.30553e-05
3.31592e-05
3.32593e-05
3.33773e-05
3.3589e-05
3.36534e-05
3.37e-05
3.37477e-05
3.37966e-05
3.38466e-05
3.38979e-05
3.39506e-05
3.40047e-05
3.40602e-05
3.41172e-05
3.41757e-05
3.42358e-05
3.42975e-05
3.43607e-05
3.44255e-05
3.44918e-05
3.45595e-05
3.46283e-05
3.46975e-05
3.47663e-05
3.48337e-05
3.48983e-05
3.49581e-05
3.50105e-05
3.50523e-05
3.50797e-05
3.50893e-05
3.50783e-05
3.50455e-05
3.49912e-05
3.49177e-05
3.48287e-05
3.47286e-05
3.46217e-05
3.45117e-05
3.44015e-05
3.42928e-05
3.4187e-05
3.40655e-05
3.3792e-05
3.3632e-05
3.34952e-05
3.33588e-05
3.32216e-05
3.30823e-05
3.29399e-05
3.27934e-05
3.26416e-05
3.24836e-05
3.23183e-05
3.21446e-05
3.19614e-05
3.17675e-05
3.15619e-05
3.13432e-05
3.11104e-05
3.0862e-05
3.05969e-05
3.03138e-05
3.00113e-05
2.96882e-05
2.93433e-05
2.89754e-05
2.85835e-05
2.81664e-05
2.77233e-05
2.72535e-05
2.67558e-05
2.10342e-05
2.92367e-05
2.6675e-05
2.71716e-05
2.76411e-05
2.80837e-05
2.85e-05
2.88909e-05
2.92574e-05
2.96005e-05
2.99213e-05
3.0221e-05
3.05007e-05
3.07617e-05
3.1005e-05
3.1232e-05
3.14437e-05
3.16412e-05
3.18256e-05
3.19981e-05
3.21594e-05
3.23107e-05
3.24528e-05
3.25867e-05
3.2713e-05
3.28327e-05
3.29464e-05
3.3055e-05
3.3159e-05
3.32593e-05
3.33775e-05
3.35895e-05
3.3654e-05
3.37007e-05
3.37485e-05
3.37975e-05
3.38476e-05
3.3899e-05
3.39518e-05
3.40059e-05
3.40615e-05
3.41185e-05
3.41771e-05
3.42371e-05
3.42987e-05
3.43617e-05
3.44262e-05
3.44922e-05
3.45593e-05
3.46274e-05
3.46957e-05
3.47634e-05
3.48295e-05
3.48925e-05
3.49507e-05
3.50013e-05
3.50414e-05
3.50676e-05
3.50765e-05
3.50656e-05
3.50338e-05
3.49813e-05
3.49103e-05
3.48241e-05
3.47269e-05
3.46226e-05
3.45149e-05
3.44064e-05
3.42992e-05
3.41943e-05
3.40735e-05
3.38007e-05
3.3641e-05
3.35043e-05
3.3368e-05
3.32308e-05
3.30916e-05
3.29492e-05
3.28026e-05
3.26509e-05
3.24929e-05
3.23275e-05
3.21538e-05
3.19707e-05
3.17769e-05
3.15713e-05
3.13527e-05
3.11198e-05
3.08715e-05
3.06065e-05
3.03234e-05
3.0021e-05
2.9698e-05
2.93532e-05
2.89853e-05
2.85934e-05
2.81763e-05
2.77333e-05
2.72635e-05
2.67658e-05
2.10448e-05
2.92317e-05
2.66711e-05
2.71678e-05
2.76373e-05
2.808e-05
2.84965e-05
2.88875e-05
2.92541e-05
2.95973e-05
2.99183e-05
3.02181e-05
3.0498e-05
3.07591e-05
3.10026e-05
3.12297e-05
3.14415e-05
3.16392e-05
3.18238e-05
3.19964e-05
3.21579e-05
3.23094e-05
3.24516e-05
3.25856e-05
3.27121e-05
3.28319e-05
3.29458e-05
3.30545e-05
3.31588e-05
3.32592e-05
3.33775e-05
3.35899e-05
3.36544e-05
3.37013e-05
3.37492e-05
3.37982e-05
3.38485e-05
3.39e-05
3.39528e-05
3.4007e-05
3.40626e-05
3.41196e-05
3.41781e-05
3.42381e-05
3.42996e-05
3.43624e-05
3.44267e-05
3.44922e-05
3.45588e-05
3.46262e-05
3.46936e-05
3.47603e-05
3.48251e-05
3.48867e-05
3.49432e-05
3.49923e-05
3.50309e-05
3.50558e-05
3.50641e-05
3.50534e-05
3.50226e-05
3.49719e-05
3.49033e-05
3.48199e-05
3.47254e-05
3.46237e-05
3.45182e-05
3.44116e-05
3.43058e-05
3.4202e-05
3.40819e-05
3.38099e-05
3.36504e-05
3.3514e-05
3.33778e-05
3.32406e-05
3.31014e-05
3.29591e-05
3.28126e-05
3.26608e-05
3.25028e-05
3.23375e-05
3.21639e-05
3.19807e-05
3.1787e-05
3.15814e-05
3.13629e-05
3.11302e-05
3.08819e-05
3.0617e-05
3.0334e-05
3.00316e-05
2.97087e-05
2.93639e-05
2.89962e-05
2.86043e-05
2.81873e-05
2.77443e-05
2.72745e-05
2.67769e-05
2.10565e-05
2.92263e-05
2.66669e-05
2.71636e-05
2.76333e-05
2.80761e-05
2.84926e-05
2.88838e-05
2.92505e-05
2.95939e-05
2.9915e-05
3.0215e-05
3.0495e-05
3.07563e-05
3.09999e-05
3.12272e-05
3.14392e-05
3.1637e-05
3.18218e-05
3.19945e-05
3.21562e-05
3.23078e-05
3.24503e-05
3.25844e-05
3.2711e-05
3.2831e-05
3.29451e-05
3.30539e-05
3.31583e-05
3.32589e-05
3.33773e-05
3.35901e-05
3.36548e-05
3.37017e-05
3.37497e-05
3.37988e-05
3.38492e-05
3.39007e-05
3.39536e-05
3.40079e-05
3.40635e-05
3.41205e-05
3.4179e-05
3.42389e-05
3.43002e-05
3.43629e-05
3.44268e-05
3.44919e-05
3.45581e-05
3.46247e-05
3.46913e-05
3.47569e-05
3.48205e-05
3.48808e-05
3.49358e-05
3.49834e-05
3.50206e-05
3.50445e-05
3.50523e-05
3.50419e-05
3.5012e-05
3.49631e-05
3.48968e-05
3.4816e-05
3.47242e-05
3.4625e-05
3.45218e-05
3.4417e-05
3.43126e-05
3.42099e-05
3.40906e-05
3.38195e-05
3.36603e-05
3.35241e-05
3.33881e-05
3.3251e-05
3.31119e-05
3.29696e-05
3.28231e-05
3.26715e-05
3.25135e-05
3.23483e-05
3.21747e-05
3.19916e-05
3.17979e-05
3.15925e-05
3.1374e-05
3.11414e-05
3.08932e-05
3.06283e-05
3.03454e-05
3.00432e-05
2.97204e-05
2.93757e-05
2.9008e-05
2.86162e-05
2.81993e-05
2.77564e-05
2.72866e-05
2.6789e-05
2.10694e-05
2.92206e-05
2.66624e-05
2.71592e-05
2.7629e-05
2.80719e-05
2.84885e-05
2.88798e-05
2.92467e-05
2.95902e-05
2.99115e-05
3.02116e-05
3.04918e-05
3.07532e-05
3.0997e-05
3.12245e-05
3.14366e-05
3.16346e-05
3.18196e-05
3.19925e-05
3.21543e-05
3.23061e-05
3.24487e-05
3.2583e-05
3.27098e-05
3.28299e-05
3.29442e-05
3.30532e-05
3.31577e-05
3.32584e-05
3.3377e-05
3.35903e-05
3.3655e-05
3.3702e-05
3.37501e-05
3.37993e-05
3.38497e-05
3.39013e-05
3.39542e-05
3.40085e-05
3.40642e-05
3.41212e-05
3.41796e-05
3.42394e-05
3.43006e-05
3.4363e-05
3.44267e-05
3.44914e-05
3.4557e-05
3.4623e-05
3.46887e-05
3.47534e-05
3.48158e-05
3.48748e-05
3.49285e-05
3.49746e-05
3.50106e-05
3.50336e-05
3.5041e-05
3.50308e-05
3.5002e-05
3.49547e-05
3.48907e-05
3.48124e-05
3.47233e-05
3.46266e-05
3.45256e-05
3.44226e-05
3.43197e-05