/*--------------------------------*- C++ -*----------------------------------*\
  =========                 |
  \\      /  F ield         | OpenFOAM: The Open Source CFD Toolbox
   \\    /   O peration     | Website:  https://openfoam.org
    \\  /    A nd           | Version:  9
     \\/     M anipulation  |
\*---------------------------------------------------------------------------*/
FoamFile
{
    format      ascii;
    class       volVectorField;
    location    "0.04";
    object      U;
}
// * * * * * * * * * * * * * * * * * * * * * * * * * * * * * * * * * * * * * //

dimensions      [0 1 -1 0 0 0 0];

internalField   nonuniform List<vector> 
20000
(
(-1.92842e-05 0 -0.00170524)
(-3.63342e-06 0 -0.00245764)
(1.43946e-06 0 -0.00351619)
(3.09566e-06 0 -0.00467318)
(4.52687e-06 0 -0.00588684)
(6.14032e-06 0 -0.0071628)
(7.93358e-06 0 -0.00851174)
(9.88567e-06 0 -0.00994266)
(1.20023e-05 0 -0.0114635)
(1.43042e-05 0 -0.0130823)
(1.68164e-05 0 -0.0148069)
(1.95644e-05 0 -0.0166461)
(2.25728e-05 0 -0.0186083)
(2.58665e-05 0 -0.0207027)
(2.94704e-05 0 -0.0229383)
(3.34102e-05 0 -0.0253244)
(3.77132e-05 0 -0.0278706)
(4.24085e-05 0 -0.0305868)
(4.75279e-05 0 -0.0334832)
(5.31069e-05 0 -0.0365706)
(5.91857e-05 0 -0.0398603)
(6.58103e-05 0 -0.0433646)
(7.30351e-05 0 -0.0470966)
(8.09247e-05 0 -0.0510708)
(8.95576e-05 0 -0.0553031)
(9.90311e-05 0 -0.0598117)
(0.000109465 0 -0.0646177)
(0.000120997 0 -0.0697456)
(0.000133772 0 -0.0752236)
(0.000147932 0 -0.0810817)
(0.000164188 0 -0.0878776)
(0.000182473 0 -0.095464)
(0.000202088 0 -0.103166)
(0.000223137 0 -0.110999)
(0.000245794 0 -0.118979)
(0.000270209 0 -0.127122)
(0.00029653 0 -0.135442)
(0.000324918 0 -0.143951)
(0.000355573 0 -0.152661)
(0.000388742 0 -0.161585)
(0.000424715 0 -0.170736)
(0.000463826 0 -0.18013)
(0.000506473 0 -0.189782)
(0.000553262 0 -0.199711)
(0.000605308 0 -0.209939)
(0.000664541 0 -0.220508)
(0.00073344 0 -0.231499)
(0.000813666 0 -0.243025)
(0.000904504 0 -0.255184)
(0.00100419 0 -0.267997)
(0.00111506 0 -0.281441)
(0.00124407 0 -0.295612)
(0.00139286 0 -0.31076)
(0.00154432 0 -0.327092)
(0.00165137 0 -0.344488)
(0.0016308 0 -0.362176)
(0.00137443 0 -0.378435)
(0.000800742 0 -0.390511)
(-5.70781e-05 0 -0.395201)
(-0.00101153 0 -0.390283)
(-0.00179835 0 -0.375593)
(-0.00223716 0 -0.353449)
(-0.00232482 0 -0.327311)
(-0.00217665 0 -0.300181)
(-0.00192162 0 -0.273889)
(-0.00164685 0 -0.249194)
(-0.00139395 0 -0.226209)
(-0.00117545 0 -0.204766)
(-0.000990203 0 -0.184632)
(-0.000832726 0 -0.165615)
(-0.000703655 0 -0.14928)
(-0.000600755 0 -0.135851)
(-0.000516769 0 -0.123768)
(-0.000447813 0 -0.112782)
(-0.000390196 0 -0.102715)
(-0.000341101 0 -0.0934461)
(-0.000298624 0 -0.0848948)
(-0.000261515 0 -0.0769995)
(-0.000228915 0 -0.0697104)
(-0.0002002 0 -0.0629836)
(-0.000174879 0 -0.0567799)
(-0.000152554 0 -0.0510628)
(-0.000132884 0 -0.0457988)
(-0.000115576 0 -0.0409566)
(-0.000100373 0 -0.0365069)
(-8.70473e-05 0 -0.0324223)
(-7.53966e-05 0 -0.0286772)
(-6.52402e-05 0 -0.0252472)
(-5.64178e-05 0 -0.0221095)
(-4.87893e-05 0 -0.0192421)
(-4.22363e-05 0 -0.0166238)
(-3.66636e-05 0 -0.0142338)
(-3.19993e-05 0 -0.0120516)
(-2.81876e-05 0 -0.0100574)
(-2.51666e-05 0 -0.00823295)
(-2.28381e-05 0 -0.00656314)
(-2.1174e-05 0 -0.00503728)
(-2.09133e-05 0 -0.00363832)
(-2.42604e-05 0 -0.0022951)
(-3.27102e-05 0 -0.000838945)
(-4.9522e-05 0 -0.00181921)
(-1.63993e-05 0 -0.00251447)
(-4.0242e-06 0 -0.00354084)
(1.2767e-06 0 -0.00468984)
(6.02535e-06 0 -0.00590318)
(1.11629e-05 0 -0.00717994)
(1.66346e-05 0 -0.00852965)
(2.24349e-05 0 -0.00996132)
(2.86242e-05 0 -0.011483)
(3.5286e-05 0 -0.0131026)
(4.25073e-05 0 -0.0148283)
(5.03726e-05 0 -0.0166684)
(5.89629e-05 0 -0.0186318)
(6.83576e-05 0 -0.0207274)
(7.86361e-05 0 -0.0229642)
(8.98799e-05 0 -0.0253516)
(0.000102174 0 -0.0278993)
(0.00011561 0 -0.0306169)
(0.000130285 0 -0.0335149)
(0.000146309 0 -0.036604)
(0.000163803 0 -0.0398956)
(0.000182905 0 -0.0434018)
(0.000203776 0 -0.0471359)
(0.000226603 0 -0.0511123)
(0.000251609 0 -0.0553471)
(0.000279063 0 -0.0598584)
(0.000309284 0 -0.0646674)
(0.000342634 0 -0.0697986)
(0.000379482 0 -0.0752802)
(0.000420204 0 -0.081142)
(0.00046754 0 -0.0879414)
(0.000521296 0 -0.0955327)
(0.000578757 0 -0.10324)
(0.000640257 0 -0.111078)
(0.000706318 0 -0.119065)
(0.000777375 0 -0.127214)
(0.000853854 0 -0.135541)
(0.00093622 0 -0.144057)
(0.00102502 0 -0.152775)
(0.00112094 0 -0.161706)
(0.00122475 0 -0.170866)
(0.00133739 0 -0.18027)
(0.00145999 0 -0.189934)
(0.0015942 0 -0.199875)
(0.00174277 0 -0.210117)
(0.00190999 0 -0.220704)
(0.00210094 0 -0.231716)
(0.0023187 0 -0.243266)
(0.00256124 0 -0.25545)
(0.00282378 0 -0.268291)
(0.003108 0 -0.281771)
(0.0034209 0 -0.295988)
(0.00375274 0 -0.311183)
(0.00404939 0 -0.327542)
(0.0041922 0 -0.344914)
(0.0039948 0 -0.362496)
(0.00323919 0 -0.378556)
(0.00178616 0 -0.390386)
(-0.000263177 0 -0.394901)
(-0.00250719 0 -0.389973)
(-0.00439899 0 -0.375453)
(-0.00554906 0 -0.353548)
(-0.00591163 0 -0.327591)
(-0.00569567 0 -0.300541)
(-0.00516915 0 -0.274246)
(-0.00453626 0 -0.249506)
(-0.00391188 0 -0.226463)
(-0.00334437 0 -0.204966)
(-0.00284497 0 -0.184788)
(-0.00240947 0 -0.165737)
(-0.0020511 0 -0.149387)
(-0.00176491 0 -0.135938)
(-0.00152631 0 -0.123837)
(-0.00132683 0 -0.112838)
(-0.00115832 0 -0.10276)
(-0.00101406 0 -0.0934836)
(-0.000889173 0 -0.0849263)
(-0.000780185 0 -0.0770262)
(-0.00068461 0 -0.0697331)
(-0.000600574 0 -0.063003)
(-0.000526601 0 -0.0567963)
(-0.000461482 0 -0.0510767)
(-0.000404198 0 -0.0458106)
(-0.000353875 0 -0.0409665)
(-0.000309751 0 -0.0365152)
(-0.000271157 0 -0.0324292)
(-0.000237501 0 -0.0286828)
(-0.00020826 0 -0.0252517)
(-0.000182978 0 -0.022113)
(-0.000161262 0 -0.0192447)
(-0.000142788 0 -0.0166255)
(-0.000127305 0 -0.0142345)
(-0.000114629 0 -0.0120512)
(-0.00010462 0 -0.0100557)
(-9.71195e-05 0 -0.0082299)
(-9.18272e-05 0 -0.00655886)
(-8.84245e-05 0 -0.00503028)
(-8.80877e-05 0 -0.00361973)
(-9.48204e-05 0 -0.00225019)
(-0.000108995 0 -0.000793496)
(-4.70325e-05 0 -0.00191334)
(-2.03401e-05 0 -0.00256512)
(-9.14506e-06 0 -0.00356451)
(-2.37514e-06 0 -0.00470548)
(4.73038e-06 0 -0.00591769)
(1.25385e-05 0 -0.00719452)
(2.09254e-05 0 -0.00854433)
(2.99143e-05 0 -0.00997616)
(3.95906e-05 0 -0.0114981)
(5.00689e-05 0 -0.0131182)
(6.14752e-05 0 -0.0148444)
(7.39368e-05 0 -0.0166853)
(8.75802e-05 0 -0.0186494)
(0.000102533 0 -0.0207458)
(0.000118925 0 -0.0229835)
(0.000136891 0 -0.0253718)
(0.000156575 0 -0.0279203)
(0.000178128 0 -0.0306389)
(0.000201715 0 -0.0335378)
(0.000227518 0 -0.0366278)
(0.000255739 0 -0.0399203)
(0.000286607 0 -0.0434275)
(0.000320385 0 -0.0471627)
(0.000357377 0 -0.0511402)
(0.000397939 0 -0.0553761)
(0.000442493 0 -0.0598888)
(0.000491532 0 -0.0646993)
(0.000545601 0 -0.069832)
(0.000605239 0 -0.0753153)
(0.00067103 0 -0.0811784)
(0.000748104 0 -0.0879781)
(0.000836195 0 -0.0955714)
(0.000930206 0 -0.103281)
(0.00103066 0 -0.111122)
(0.0011384 0 -0.119112)
(0.00125412 0 -0.127265)
(0.00137851 0 -0.135596)
(0.00151228 0 -0.144116)
(0.00165631 0 -0.152838)
(0.00181159 0 -0.161775)
(0.00197933 0 -0.170941)
(0.00216093 0 -0.180352)
(0.00235812 0 -0.190023)
(0.0025733 0 -0.199974)
(0.00281023 0 -0.210228)
(0.00307437 0 -0.220831)
(0.00337174 0 -0.231862)
(0.00370525 0 -0.24343)
(0.00407081 0 -0.255628)
(0.00445982 0 -0.26848)
(0.00486942 0 -0.281973)
(0.00529884 0 -0.2962)
(0.00572058 0 -0.311374)
(0.00604692 0 -0.327636)
(0.00610958 0 -0.34478)
(0.00566552 0 -0.361962)
(0.00445323 0 -0.377471)
(0.00233093 0 -0.38874)
(-0.000540909 0 -0.39292)
(-0.00364724 0 -0.388065)
(-0.00630502 0 -0.374034)
(-0.00801196 0 -0.352807)
(-0.00867406 0 -0.327457)
(-0.0085213 0 -0.300808)
(-0.00788478 0 -0.27471)
(-0.00703948 0 -0.250027)
(-0.00615676 0 -0.226967)
(-0.00532124 0 -0.205426)
(-0.00456344 0 -0.185198)
(-0.00388839 0 -0.166102)
(-0.00332832 0 -0.149725)
(-0.00287868 0 -0.136239)
(-0.00249905 0 -0.124104)
(-0.0021779 0 -0.113074)
(-0.00190436 0 -0.102972)
(-0.00166904 0 -0.0936766)
(-0.00146483 0 -0.085103)
(-0.00128647 0 -0.0771891)
(-0.00113005 0 -0.0698836)
(-0.000992548 0 -0.0631424)
(-0.000871566 0 -0.0569255)
(-0.000765116 0 -0.0511964)
(-0.000671526 0 -0.0459213)
(-0.000589359 0 -0.0410688)
(-0.000517366 0 -0.0366094)
(-0.000454452 0 -0.0325159)
(-0.000399652 0 -0.0287622)
(-0.000352116 0 -0.0253242)
(-0.0003111 0 -0.0221788)
(-0.000275963 0 -0.019304)
(-0.000246162 0 -0.0166783)
(-0.000221257 0 -0.0142808)
(-0.00020089 0 -0.0120908)
(-0.000184753 0 -0.0100884)
(-0.000172502 0 -0.00825575)
(-0.000163563 0 -0.00657825)
(-0.000157048 0 -0.00504282)
(-0.000152991 0 -0.00362014)
(-0.000153765 0 -0.00223054)
(-0.000156477 0 -0.000772923)
(-3.25509e-05 0 -0.00196408)
(-1.82966e-05 0 -0.00259918)
(-1.06516e-05 0 -0.00358676)
(-3.95133e-06 0 -0.00472469)
(3.92751e-06 0 -0.00593728)
(1.29386e-05 0 -0.00721484)
(2.29988e-05 0 -0.00856522)
(3.41225e-05 0 -0.00999757)
(4.63792e-05 0 -0.0115202)
(5.98819e-05 0 -0.013141)
(7.47666e-05 0 -0.0148681)
(9.11792e-05 0 -0.0167099)
(0.000109272 0 -0.0186751)
(0.000129207 0 -0.0207726)
(0.000151151 0 -0.0230114)
(0.000175287 0 -0.0254009)
(0.000201809 0 -0.0279506)
(0.000230925 0 -0.0306704)
(0.000262864 0 -0.0335705)
(0.000297877 0 -0.0366618)
(0.000336247 0 -0.0399555)
(0.000378288 0 -0.0434641)
(0.000424363 0 -0.0472006)
(0.000474885 0 -0.0511795)
(0.000530339 0 -0.055417)
(0.000591285 0 -0.0599314)
(0.000658375 0 -0.0647436)
(0.000732324 0 -0.0698783)
(0.000813818 0 -0.0753635)
(0.00090362 0 -0.0812281)
(0.00100931 0 -0.0880283)
(0.00113064 0 -0.0956239)
(0.00126006 0 -0.103337)
(0.0013982 0 -0.111182)
(0.00154619 0 -0.119176)
(0.00170493 0 -0.127334)
(0.0018753 0 -0.13567)
(0.00205827 0 -0.144196)
(0.00225494 0 -0.152924)
(0.00246657 0 -0.161868)
(0.00269468 0 -0.171042)
(0.00294099 0 -0.180462)
(0.00320759 0 -0.190143)
(0.00349735 0 -0.200106)
(0.00381447 0 -0.210375)
(0.00416475 0 -0.220998)
(0.00455398 0 -0.23205)
(0.00498375 0 -0.243639)
(0.00544697 0 -0.25585)
(0.00593043 0 -0.268708)
(0.00642465 0 -0.282202)
(0.00691801 0 -0.296416)
(0.00736467 0 -0.311526)
(0.00764964 0 -0.327619)
(0.00757212 0 -0.344429)
(0.00686123 0 -0.361083)
(0.00524636 0 -0.375917)
(0.00260576 0 -0.386529)
(-0.000852972 0 -0.390331)
(-0.00455698 0 -0.385572)
(-0.00776312 0 -0.372112)
(-0.00990981 0 -0.351697)
(-0.0108597 0 -0.327114)
(-0.0108315 0 -0.301015)
(-0.0101787 0 -0.275225)
(-0.00921684 0 -0.250669)
(-0.00815821 0 -0.227629)
(-0.00711924 0 -0.206054)
(-0.00615092 0 -0.185775)
(-0.00527079 0 -0.166628)
(-0.00453331 0 -0.150212)
(-0.00393736 0 -0.13668)
(-0.00342893 0 -0.124499)
(-0.00299476 0 -0.113429)
(-0.00262229 0 -0.103293)
(-0.00230028 0 -0.0939687)
(-0.00201997 0 -0.0853712)
(-0.00177468 0 -0.0774363)
(-0.00155934 0 -0.0701121)
(-0.00136994 0 -0.0633539)
(-0.00120322 0 -0.0571212)
(-0.0010565 0 -0.0513774)
(-0.000927499 0 -0.0460885)
(-0.000814239 0 -0.0412229)
(-0.00071501 0 -0.0367511)
(-0.000628309 0 -0.0326457)
(-0.000552807 0 -0.0288808)
(-0.00048733 0 -0.025432)
(-0.000430846 0 -0.0222761)
(-0.000382449 0 -0.0193911)
(-0.000341358 0 -0.0167555)
(-0.000306907 0 -0.0143481)
(-0.00027852 0 -0.0121482)
(-0.000255671 0 -0.010136)
(-0.000237764 0 -0.00829401)
(-0.000223918 0 -0.00660872)
(-0.000212757 0 -0.00506777)
(-0.000203276 0 -0.00363986)
(-0.000196344 0 -0.00224219)
(-0.00018877 0 -0.000777908)
(-2.85982e-05 0 -0.00198685)
(-2.14071e-05 0 -0.00261949)
(-1.57104e-05 0 -0.00360616)
(-9.08101e-06 0 -0.00474589)
(-9.17639e-07 0 -0.00596105)
(8.73029e-06 0 -0.0072409)
(1.98545e-05 0 -0.0085932)
(3.24874e-05 0 -0.0100273)
(4.67079e-05 0 -0.0115516)
(6.26383e-05 0 -0.0131742)
(8.04268e-05 0 -0.0149031)
(0.000100236 0 -0.0167468)
(0.000122242 0 -0.018714)
(0.000146634 0 -0.0208134)
(0.000173616 0 -0.0230543)
(0.00020341 0 -0.0254458)
(0.000236256 0 -0.0279976)
(0.000272416 0 -0.0307196)
(0.000312179 0 -0.0336219)
(0.000355864 0 -0.0367155)
(0.000403826 0 -0.0400116)
(0.000456464 0 -0.0435226)
(0.000514232 0 -0.0472616)
(0.000577653 0 -0.0512432)
(0.000647324 0 -0.0554836)
(0.00072394 0 -0.0600011)
(0.000808296 0 -0.0648167)
(0.000901268 0 -0.0699549)
(0.00100369 0 -0.0754437)
(0.00111649 0 -0.0813117)
(0.00124963 0 -0.0881146)
(0.00140293 0 -0.0957151)
(0.0015664 0 -0.103434)
(0.00174075 0 -0.111286)
(0.00192732 0 -0.119287)
(0.00212716 0 -0.127453)
(0.00234133 0 -0.135797)
(0.00257096 0 -0.144333)
(0.00281732 0 -0.153072)
(0.00308185 0 -0.162027)
(0.00336624 0 -0.171213)
(0.00367238 0 -0.180646)
(0.00400251 0 -0.190343)
(0.0043596 0 -0.200323)
(0.00474783 0 -0.210614)
(0.00517258 0 -0.221261)
(0.00563852 0 -0.232341)
(0.00614501 0 -0.243953)
(0.00668143 0 -0.25618)
(0.00722943 0 -0.269044)
(0.00777188 0 -0.282534)
(0.00828535 0 -0.296719)
(0.00870715 0 -0.311739)
(0.00890217 0 -0.327626)
(0.00865154 0 -0.344063)
(0.00767741 0 -0.360158)
(0.00572177 0 -0.374303)
(0.00269367 0 -0.384265)
(-0.00116583 0 -0.387699)
(-0.00526497 0 -0.383029)
(-0.00885068 0 -0.370118)
(-0.0113391 0 -0.350506)
(-0.0125558 0 -0.326707)
(-0.012689 0 -0.301199)
(-0.012087 0 -0.275768)
(-0.011083 0 -0.251379)
(-0.00991676 0 -0.228383)
(-0.00873123 0 -0.206787)
(-0.00759713 0 -0.186458)
(-0.00654583 0 -0.167257)
(-0.00565553 0 -0.150796)
(-0.00493077 0 -0.137211)
(-0.00430623 0 -0.124977)
(-0.00376831 0 -0.113859)
(-0.00330376 0 -0.103683)
(-0.00290017 0 -0.0943244)
(-0.00254767 0 -0.0856972)
(-0.00223852 0 -0.0777362)
(-0.00196668 0 -0.0703888)
(-0.00172732 0 -0.0636092)
(-0.00151648 0 -0.057357)
(-0.00133082 0 -0.0515949)
(-0.00116752 0 -0.0462888)
(-0.0010241 0 -0.0414071)
(-0.00089842 0 -0.03692)
(-0.000788594 0 -0.0328001)
(-0.000692941 0 -0.0290214)
(-0.000609976 0 -0.0255594)
(-0.000538382 0 -0.0223909)
(-0.000476996 0 -0.0194937)
(-0.000424803 0 -0.0168463)
(-0.000380915 0 -0.0144273)
(-0.000344549 0 -0.012216)
(-0.000314968 0 -0.0101929)
(-0.000291358 0 -0.00834092)
(-0.000272605 0 -0.00664807)
(-0.000257122 0 -0.00510333)
(-0.000243578 0 -0.00367406)
(-0.000232412 0 -0.00227138)
(-0.000222285 0 -0.000792013)
(-4.18898e-05 0 -0.00199958)
(-3.66954e-05 0 -0.00263425)
(-3.11981e-05 0 -0.00362412)
(-2.42146e-05 0 -0.00476748)
(-1.55653e-05 0 -0.00598612)
(-5.20327e-06 0 -0.00726913)
(6.93057e-06 0 -0.00862433)
(2.09195e-05 0 -0.0100612)
(3.68748e-05 0 -0.0115882)
(5.49455e-05 0 -0.0132134)
(7.53048e-05 0 -0.014945)
(9.81431e-05 0 -0.0167915)
(0.000123666 0 -0.0187613)
(0.000152097 0 -0.0208636)
(0.000183678 0 -0.0231072)
(0.000218671 0 -0.0255017)
(0.000257362 0 -0.0280564)
(0.000300066 0 -0.0307813)
(0.000347128 0 -0.0336867)
(0.000398931 0 -0.0367834)
(0.0004559 0 -0.0400828)
(0.000518516 0 -0.0435971)
(0.000587319 0 -0.0473397)
(0.000662928 0 -0.051325)
(0.000746054 0 -0.0555694)
(0.00083751 0 -0.0600911)
(0.000938223 0 -0.0649112)
(0.00104922 0 -0.0700543)
(0.00117149 0 -0.075548)
(0.00130608 0 -0.0814207)
(0.00146535 0 -0.0882282)
(0.00164911 0 -0.0958355)
(0.00184496 0 -0.103562)
(0.00205368 0 -0.111423)
(0.00227677 0 -0.119434)
(0.00251539 0 -0.12761)
(0.00277072 0 -0.135966)
(0.003044 0 -0.144513)
(0.00333659 0 -0.153265)
(0.00365002 0 -0.162234)
(0.003986 0 -0.171436)
(0.00434644 0 -0.180886)
(0.00473351 0 -0.190601)
(0.00514997 0 -0.200603)
(0.00559951 0 -0.210917)
(0.00608651 0 -0.221591)
(0.00661378 0 -0.232699)
(0.00717793 0 -0.244335)
(0.00776447 0 -0.256575)
(0.0083498 0 -0.269437)
(0.00890885 0 -0.28291)
(0.00940655 0 -0.297045)
(0.00976604 0 -0.311944)
(0.00983906 0 -0.327589)
(0.00940071 0 -0.343618)
(0.00818131 0 -0.35913)
(0.00594875 0 -0.372586)
(0.00264644 0 -0.381915)
(-0.00146386 0 -0.384997)
(-0.0057984 0 -0.380416)
(-0.00962693 0 -0.368037)
(-0.0123696 0 -0.349213)
(-0.0138232 0 -0.32621)
(-0.0141356 0 -0.301329)
(-0.0136312 0 -0.276301)
(-0.0126432 0 -0.252121)
(-0.0114267 0 -0.229201)
(-0.0101451 0 -0.207603)
(-0.00888718 0 -0.187234)
(-0.00769814 0 -0.167981)
(-0.00667991 0 -0.151472)
(-0.00584442 0 -0.137832)
(-0.00511732 0 -0.12554)
(-0.00448593 0 -0.11437)
(-0.00393714 0 -0.104148)
(-0.0034581 0 -0.0947493)
(-0.00303824 0 -0.0860875)
(-0.00266912 0 -0.0780959)
(-0.00234397 0 -0.0707207)
(-0.00205731 0 -0.0639158)
(-0.00180455 0 -0.0576401)
(-0.00158182 0 -0.0518562)
(-0.0013858 0 -0.0465297)
(-0.00121359 0 -0.0416286)
(-0.00106264 0 -0.0371233)
(-0.00093071 0 -0.032986)
(-0.000815791 0 -0.0291908)
(-0.000716109 0 -0.025713)
(-0.000630081 0 -0.0225295)
(-0.000556307 0 -0.0196178)
(-0.000493554 0 -0.0169563)
(-0.000440735 0 -0.0145237)
(-0.000396879 0 -0.0122993)
(-0.000361057 0 -0.0102635)
(-0.000332268 0 -0.00840025)
(-0.000309264 0 -0.0066985)
(-0.000290496 0 -0.00514828)
(-0.000274815 0 -0.00371526)
(-0.000262616 0 -0.00230423)
(-0.000253543 0 -0.000805648)
(-7.04278e-05 0 -0.00201123)
(-6.52584e-05 0 -0.00264903)
(-5.93793e-05 0 -0.00364299)
(-5.18948e-05 0 -0.00479024)
(-4.2611e-05 0 -0.00601251)
(-3.14415e-05 0 -0.00729899)
(-1.82788e-05 0 -0.00865756)
(-2.98847e-06 0 -0.0100977)
(1.45837e-05 0 -0.011628)
(3.46195e-05 0 -0.0132564)
(5.73225e-05 0 -0.0149913)
(8.29174e-05 0 -0.0168411)
(0.000111646 0 -0.0188143)
(0.000143767 0 -0.0209199)
(0.000179563 0 -0.0231669)
(0.000219338 0 -0.0255648)
(0.000263427 0 -0.028123)
(0.000312193 0 -0.0308515)
(0.000366039 0 -0.0337605)
(0.000425408 0 -0.0368609)
(0.000490794 0 -0.0401641)
(0.00056275 0 -0.0436824)
(0.000641903 0 -0.0474291)
(0.000728961 0 -0.0514189)
(0.000824737 0 -0.0556678)
(0.000930157 0 -0.0601944)
(0.00104627 0 -0.0650198)
(0.00117424 0 -0.0701684)
(0.0013152 0 -0.0756678)
(0.00147033 0 -0.081546)
(0.00165428 0 -0.0883593)
(0.00186689 0 -0.0959744)
(0.00209332 0 -0.10371)
(0.00233443 0 -0.111581)
(0.00259184 0 -0.119602)
(0.00286678 0 -0.127791)
(0.00316049 0 -0.136159)
(0.00347426 0 -0.14472)
(0.00380948 0 -0.153486)
(0.00416765 0 -0.162471)
(0.00455043 0 -0.171689)
(0.00495956 0 -0.181157)
(0.00539694 0 -0.190892)
(0.00586485 0 -0.200915)
(0.00636613 0 -0.211254)
(0.00690371 0 -0.221954)
(0.00747813 0 -0.233087)
(0.00808286 0 -0.244741)
(0.00869949 0 -0.256985)
(0.00929932 0 -0.269833)
(0.0098497 0 -0.283269)
(0.0103051 0 -0.297327)
(0.0105778 0 -0.31207)
(0.0105124 0 -0.327434)
(0.00988686 0 -0.343019)
(0.0084488 0 -0.357927)
(0.00599762 0 -0.370692)
(0.00250933 0 -0.379406)
(-0.00174385 0 -0.382153)
(-0.00620113 0 -0.377665)
(-0.0101717 0 -0.365808)
(-0.0130953 0 -0.347767)
(-0.0147489 0 -0.325575)
(-0.0152392 0 -0.30136)
(-0.0148574 0 -0.276784)
(-0.0139242 0 -0.252861)
(-0.0127006 0 -0.230055)
(-0.0113638 0 -0.208481)
(-0.010018 0 -0.188089)
(-0.00872131 0 -0.168791)
(-0.00759811 0 -0.152236)
(-0.00666882 0 -0.13854)
(-0.00585239 0 -0.126188)
(-0.00513793 0 -0.114962)
(-0.00451309 0 -0.10469)
(-0.00396509 0 -0.0952481)
(-0.00348311 0 -0.0865473)
(-0.0030583 0 -0.0785206)
(-0.00268338 0 -0.0711136)
(-0.00235236 0 -0.0642794)
(-0.00206017 0 -0.0579764)
(-0.00180249 0 -0.0521669)
(-0.00157557 0 -0.0468162)
(-0.00137612 0 -0.0418924)
(-0.00120125 0 -0.0373655)
(-0.00104837 0 -0.0332077)
(-0.000915209 0 -0.0293929)
(-0.000799704 0 -0.0258965)
(-0.000700032 0 -0.0226951)
(-0.000614572 0 -0.0197662)
(-0.000541889 0 -0.0170881)
(-0.000480713 0 -0.0146394)
(-0.000429897 0 -0.0123993)
(-0.000388336 0 -0.0103487)
(-0.000354861 0 -0.00847196)
(-0.000328137 0 -0.00675888)
(-0.000306737 0 -0.00519977)
(-0.000289816 0 -0.00375846)
(-0.000277735 0 -0.00233517)
(-0.000269589 0 -0.000817186)
(-0.000111958 0 -0.00202352)
(-0.000106626 0 -0.00266473)
(-0.000100521 0 -0.00366312)
(-9.26723e-05 0 -0.0048146)
(-8.28311e-05 0 -0.00604081)
(-7.09142e-05 0 -0.00733112)
(-5.67949e-05 0 -0.00869347)
(-4.03049e-05 0 -0.0101373)
(-2.12548e-05 0 -0.0116713)
(5.6981e-07 0 -0.0133036)
(2.54068e-05 0 -0.0150422)
(5.3515e-05 0 -0.0168958)
(8.51703e-05 0 -0.0188728)
(0.00012067 0 -0.0209823)
(0.000160336 0 -0.0232333)
(0.000204516 0 -0.0256351)
(0.000253589 0 -0.0281973)
(0.000307971 0 -0.0309299)
(0.000368116 0 -0.0338431)
(0.000434528 0 -0.0369477)
(0.000507765 0 -0.0402553)
(0.000588453 0 -0.0437781)
(0.000677295 0 -0.0475295)
(0.000775087 0 -0.0515241)
(0.000882735 0 -0.0557783)
(0.00100127 0 -0.0603104)
(0.00113186 0 -0.0651416)
(0.00127578 0 -0.0702963)
(0.00143433 0 -0.0758021)
(0.00160879 0 -0.0816865)
(0.00181599 0 -0.0885062)
(0.0020558 0 -0.09613)
(0.00231101 0 -0.103876)
(0.00258255 0 -0.111757)
(0.00287211 0 -0.119791)
(0.00318093 0 -0.127992)
(0.0035103 0 -0.136373)
(0.00386148 0 -0.144949)
(0.00423582 0 -0.15373)
(0.00463472 0 -0.162732)
(0.00505964 0 -0.171968)
(0.00551205 0 -0.181454)
(0.00599341 0 -0.191209)
(0.00650529 0 -0.201254)
(0.00704941 0 -0.211615)
(0.00762698 0 -0.222339)
(0.00823603 0 -0.233492)
(0.00886676 0 -0.245157)
(0.00949695 0 -0.257395)
(0.0100932 0 -0.270214)
(0.010616 0 -0.283593)
(0.0110113 0 -0.297546)
(0.0111836 0 -0.3121)
(0.0109756 0 -0.327149)
(0.0101736 0 -0.342265)
(0.00854696 0 -0.356561)
(0.0059271 0 -0.368648)
(0.00231819 0 -0.376773)
(-0.00200454 0 -0.379207)
(-0.00651 0 -0.374813)
(-0.0105527 0 -0.363459)
(-0.0135998 0 -0.346182)
(-0.0154161 0 -0.324801)
(-0.0160711 0 -0.301276)
(-0.0158198 0 -0.277193)
(-0.014964 0 -0.253571)
(-0.0137625 0 -0.230916)
(-0.0124012 0 -0.209396)
(-0.0109964 0 -0.189)
(-0.00961735 0 -0.16967)
(-0.00840889 0 -0.153073)
(-0.00740071 0 -0.139323)
(-0.00650697 0 -0.126911)
(-0.00571913 0 -0.115628)
(-0.00502602 0 -0.105303)
(-0.00441534 0 -0.095814)
(-0.00387637 0 -0.0870707)
(-0.00340005 0 -0.0790054)
(-0.00297882 0 -0.0715628)
(-0.00260633 0 -0.0646956)
(-0.00227714 0 -0.0583618)
(-0.00198657 0 -0.0525233)
(-0.00173049 0 -0.0471453)
(-0.00150531 0 -0.0421955)
(-0.0013078 0 -0.0376439)
(-0.0011351 0 -0.0334626)
(-0.000984644 0 -0.0296253)
(-0.000854145 0 -0.0261074)
(-0.000741549 0 -0.0228853)
(-0.000645029 0 -0.0199366)
(-0.000562961 0 -0.0172393)
(-0.000493901 0 -0.014772)
(-0.000436532 0 -0.0125141)
(-0.000389582 0 -0.0104465)
(-0.000351732 0 -0.00855416)
(-0.000321572 0 -0.00682742)
(-0.000297749 0 -0.00525636)
(-0.000279615 0 -0.00380314)
(-0.000267474 0 -0.00236506)
(-0.00025932 0 -0.000827926)
(-0.000166887 0 -0.0020359)
(-0.000161546 0 -0.00268064)
(-0.000155403 0 -0.00368382)
(-0.000147341 0 -0.00484007)
(-0.000137079 0 -0.00607077)
(-0.000124537 0 -0.00736542)
(-0.000109583 0 -0.00873202)
(-9.20257e-05 0 -0.0101801)
(-7.16475e-05 0 -0.0117183)
(-4.82043e-05 0 -0.0133548)
(-2.14268e-05 0 -0.0150978)
(8.97474e-06 0 -0.0169557)
(4.33093e-05 0 -0.0189371)
(8.19106e-05 0 -0.021051)
(0.000125138 0 -0.0233064)
(0.000173382 0 -0.0257128)
(0.000227067 0 -0.0282796)
(0.000286655 0 -0.0310168)
(0.000352654 0 -0.0339346)
(0.000425625 0 -0.0370441)
(0.000506187 0 -0.0403566)
(0.000595034 0 -0.0438845)
(0.000692942 0 -0.0476412)
(0.000800789 0 -0.0516413)
(0.00091957 0 -0.0559013)
(0.00105041 0 -0.0604395)
(0.00119459 0 -0.0652773)
(0.00135351 0 -0.0704389)
(0.00152857 0 -0.0759516)
(0.00172118 0 -0.0818429)
(0.00195023 0 -0.0886701)
(0.00221557 0 -0.0963035)
(0.00249778 0 -0.10406)
(0.00279781 0 -0.111954)
(0.00311736 0 -0.12)
(0.00345766 0 -0.128215)
(0.00381998 0 -0.136611)
(0.00420553 0 -0.145202)
(0.00461553 0 -0.154)
(0.00505121 0 -0.163018)
(0.00551376 0 -0.172272)
(0.00600423 0 -0.181778)
(0.00652349 0 -0.191553)
(0.00707226 0 -0.201617)
(0.00765098 0 -0.212)
(0.00825895 0 -0.222743)
(0.0088916 0 -0.233912)
(0.00953592 0 -0.24558)
(0.0101661 0 -0.257801)
(0.0107446 0 -0.270578)
(0.0112262 0 -0.28388)
(0.0115502 0 -0.297704)
(0.0116162 0 -0.312045)
(0.0112688 0 -0.326757)
(0.0103062 0 -0.341393)
(0.0085212 0 -0.355083)
(0.00577529 0 -0.36652)
(0.00209583 0 -0.374091)
(-0.00224421 0 -0.376238)
(-0.00674613 0 -0.371936)
(-0.010811 0 -0.361058)
(-0.0139364 0 -0.34451)
(-0.0158814 0 -0.323922)
(-0.0166831 0 -0.301091)
(-0.016561 0 -0.277526)
(-0.0157943 0 -0.254238)
(-0.0146345 0 -0.231769)
(-0.0132715 0 -0.210329)
(-0.0118305 0 -0.189949)
(-0.0103901 0 -0.170601)
(-0.00911314 0 -0.153968)
(-0.00803904 0 -0.140167)
(-0.00707872 0 -0.127697)
(-0.00622634 0 -0.116356)
(-0.00547216 0 -0.105978)
(-0.00480468 0 -0.0964387)
(-0.00421353 0 -0.0876503)
(-0.00368968 0 -0.0795435)
(-0.00322543 0 -0.0720624)
(-0.00281422 0 -0.0651592)
(-0.00245034 0 -0.0587915)
(-0.0021288 0 -0.0529211)
(-0.00184522 0 -0.0475127)
(-0.00159569 0 -0.042534)
(-0.00137673 0 -0.0379549)
(-0.00118521 0 -0.0337473)
(-0.00101834 0 -0.0298849)
(-0.000873588 0 -0.026343)
(-0.000748703 0 -0.0230978)
(-0.000641664 0 -0.0201269)
(-0.00055067 0 -0.0174082)
(-0.000474108 0 -0.0149201)
(-0.000410496 0 -0.0126422)
(-0.000358404 0 -0.0105557)
(-0.000316382 0 -0.00864598)
(-0.000282954 0 -0.00690355)
(-0.000256782 0 -0.00531813)
(-0.000237282 0 -0.00385048)
(-0.000224697 0 -0.00239584)
(-0.000216065 0 -0.000838935)
(-0.000237225 0 -0.00204813)
(-0.000231859 0 -0.0026965)
(-0.000225659 0 -0.00370479)
(-0.000217392 0 -0.00486629)
(-0.000206754 0 -0.00610199)
(-0.000193655 0 -0.00740144)
(-0.000177953 0 -0.00877276)
(-0.000159434 0 -0.0102256)
(-0.000137853 0 -0.0117685)
(-0.000112936 0 -0.0134098)
(-8.43853e-05 0 -0.0151575)
(-5.18828e-05 0 -0.0170202)
(-1.50879e-05 0 -0.0190066)
(2.63676e-05 0 -0.0211254)
(7.28801e-05 0 -0.0233858)
(0.000124879 0 -0.0257972)
(0.000182831 0 -0.0283691)
(0.000247247 0 -0.0311115)
(0.000318684 0 -0.0340346)
(0.000397755 0 -0.0371494)
(0.00048514 0 -0.0404675)
(0.000581595 0 -0.0440011)
(0.000687966 0 -0.0477636)
(0.000805207 0 -0.0517699)
(0.000934396 0 -0.0560364)
(0.00107675 0 -0.0605814)
(0.00123364 0 -0.0654263)
(0.00140658 0 -0.0705954)
(0.0015971 0 -0.0761159)
(0.00180668 0 -0.0820149)
(0.00205615 0 -0.0888504)
(0.00234535 0 -0.0964945)
(0.00265273 0 -0.104263)
(0.00297924 0 -0.112169)
(0.00332657 0 -0.12023)
(0.0036959 0 -0.128459)
(0.00408844 0 -0.136871)
(0.00450528 0 -0.145478)
(0.00494747 0 -0.154293)
(0.005416 0 -0.163329)
(0.0059117 0 -0.172602)
(0.00643511 0 -0.182126)
(0.00698642 0 -0.19192)
(0.00756537 0 -0.202004)
(0.008171 0 -0.212405)
(0.00880064 0 -0.223164)
(0.00944716 0 -0.234342)
(0.0100945 0 -0.246005)
(0.0107136 0 -0.258199)
(0.0112634 0 -0.27092)
(0.0116943 0 -0.284128)
(0.0119403 0 -0.297804)
(0.0118993 0 -0.31191)
(0.0114201 0 -0.326272)
(0.0103152 0 -0.340427)
(0.00840074 0 -0.353529)
(0.00556564 0 -0.364348)
(0.00185571 0 -0.371406)
(-0.00246197 0 -0.37329)
(-0.00692188 0 -0.369079)
(-0.0109708 0 -0.358647)
(-0.0141379 0 -0.342788)
(-0.0161809 0 -0.322963)
(-0.0171099 0 -0.30082)
(-0.0171108 0 -0.277786)
(-0.0164381 0 -0.254857)
(-0.0153329 0 -0.232601)
(-0.0139852 0 -0.211268)
(-0.0125263 0 -0.190924)
(-0.011042 0 -0.17157)
(-0.00971113 0 -0.154909)
(-0.00858251 0 -0.141063)
(-0.00756528 0 -0.128538)
(-0.00665641 0 -0.11714)
(-0.00584783 0 -0.106706)
(-0.00512908 0 -0.0971167)
(-0.00449032 0 -0.0882813)
(-0.00392272 0 -0.0801307)
(-0.00341863 0 -0.0726086)
(-0.00297134 0 -0.0656669)
(-0.00257498 0 -0.0592627)
(-0.00222436 0 -0.0533575)
(-0.00191485 0 -0.0479162)
(-0.00164232 0 -0.042906)
(-0.00140304 0 -0.0382969)
(-0.00119367 0 -0.0340605)
(-0.0010112 0 -0.0301706)
(-0.000852893 0 -0.0266022)
(-0.000716311 0 -0.0233317)
(-0.000599254 0 -0.0203363)
(-0.000499756 0 -0.0175939)
(-0.000416042 0 -0.0150831)
(-0.000346472 0 -0.0127833)
(-0.000289474 0 -0.0106761)
(-0.000243489 0 -0.00874718)
(-0.00020699 0 -0.00698711)
(-0.000178622 0 -0.00538519)
(-0.00015778 0 -0.00390105)
(-0.000144636 0 -0.00242825)
(-0.000135496 0 -0.000850467)
(-0.000325062 0 -0.00206051)
(-0.000319544 0 -0.00271264)
(-0.000313155 0 -0.00372629)
(-0.000304588 0 -0.00489338)
(-0.00029352 0 -0.00613446)
(-0.000279847 0 -0.00743908)
(-0.000263413 0 -0.0088155)
(-0.00024398 0 -0.0102734)
(-0.000221274 0 -0.0118215)
(-0.000194991 0 -0.013468)
(-0.000164803 0 -0.015221)
(-0.000130364 0 -0.017089)
(-9.13006e-05 0 -0.0190807)
(-4.7213e-05 0 -0.0212049)
(2.32997e-06 0 -0.0234708)
(5.77948e-05 0 -0.0258877)
(0.000119693 0 -0.0284652)
(0.000188578 0 -0.0312133)
(0.000265051 0 -0.0341422)
(0.000349778 0 -0.037263)
(0.000443494 0 -0.040587)
(0.000547014 0 -0.0441269)
(0.000661249 0 -0.0478959)
(0.000787223 0 -0.051909)
(0.00092609 0 -0.0561824)
(0.00107915 0 -0.0607349)
(0.00124787 0 -0.0655876)
(0.00143385 0 -0.0707648)
(0.00163874 0 -0.0762937)
(0.0018641 0 -0.082201)
(0.00213251 0 -0.0890458)
(0.00244384 0 -0.0967014)
(0.0027745 0 -0.104483)
(0.00312542 0 -0.112403)
(0.00349826 0 -0.120478)
(0.00389412 0 -0.128723)
(0.00431409 0 -0.137151)
(0.00475911 0 -0.145775)
(0.00523002 0 -0.154607)
(0.00572749 0 -0.163661)
(0.00625194 0 -0.172952)
(0.00680334 0 -0.182494)
(0.00738111 0 -0.192306)
(0.00798394 0 -0.202407)
(0.00860942 0 -0.212824)
(0.00925295 0 -0.223595)
(0.00990489 0 -0.234775)
(0.0105464 0 -0.246425)
(0.0111457 0 -0.258582)
(0.0116588 0 -0.271233)
(0.0120327 0 -0.284333)
(0.0121982 0 -0.297843)
(0.0120531 0 -0.3117)
(0.0114527 0 -0.325702)
(0.0102245 0 -0.33938)
(0.0082075 0 -0.351916)
(0.0053149 0 -0.362153)
(0.00160677 0 -0.368734)
(-0.00265828 0 -0.370381)
(-0.00704734 0 -0.366258)
(-0.0110508 0 -0.356243)
(-0.0142293 0 -0.341034)
(-0.0163429 0 -0.321939)
(-0.0173791 0 -0.300472)
(-0.0174932 0 -0.277976)
(-0.0169148 0 -0.255426)
(-0.0158719 0 -0.233407)
(-0.0145516 0 -0.212203)
(-0.013089 0 -0.191913)
(-0.0115755 0 -0.172569)
(-0.010203 0 -0.155888)
(-0.00902981 0 -0.142002)
(-0.0079643 0 -0.129425)
(-0.00700627 0 -0.117972)
(-0.00614946 0 -0.107484)
(-0.0053846 0 -0.0978433)
(-0.00470255 0 -0.0889596)
(-0.00409484 0 -0.0807635)
(-0.00355393 0 -0.0731985)
(-0.00307312 0 -0.0662159)
(-0.00264645 0 -0.059773)
(-0.00226856 0 -0.0538308)
(-0.00193467 0 -0.0483541)
(-0.00164044 0 -0.04331)
(-0.00138196 0 -0.0386684)
(-0.00115569 0 -0.034401)
(-0.000958417 0 -0.0304812)
(-0.000787239 0 -0.0268841)
(-0.000639539 0 -0.023586)
(-0.000512956 0 -0.0205641)
(-0.000405369 0 -0.0177961)
(-0.000314854 0 -0.0152605)
(-0.000239629 0 -0.0129369)
(-0.000177994 0 -0.0108073)
(-0.0001283 0 -0.00885725)
(-8.89738e-05 0 -0.00707757)
(-5.86046e-05 0 -0.00545713)
(-3.64831e-05 0 -0.00395464)
(-2.27904e-05 0 -0.00246224)
(-1.31773e-05 0 -0.000862489)
(-0.000431922 0 -0.0020734)
(-0.000426134 0 -0.00272947)
(-0.00041944 0 -0.00374872)
(-0.000410471 0 -0.00492167)
(-0.000398891 0 -0.00616839)
(-0.000384589 0 -0.00747846)
(-0.000367399 0 -0.00886028)
(-0.000347062 0 -0.0103236)
(-0.000323275 0 -0.0118772)
(-0.000295702 0 -0.0135292)