/*--------------------------------*- C++ -*----------------------------------*\
  =========                 |
  \\      /  F ield         | OpenFOAM: The Open Source CFD Toolbox
   \\    /   O peration     | Website:  https://openfoam.org
    \\  /    A nd           | Version:  9
     \\/     M anipulation  |
\*---------------------------------------------------------------------------*/
FoamFile
{
    format      ascii;
    class       surfaceVectorField;
    location    "0.04";
    object      Uf;
}
// * * * * * * * * * * * * * * * * * * * * * * * * * * * * * * * * * * * * * //

dimensions      [0 1 -1 0 0 0 0];

internalField   nonuniform List<vector> 
39700
(
(-8.41664e-06 0 -0.00207245)
(-3.44031e-05 0 -0.00176094)
(-5.78307e-07 0 -0.00297427)
(-1.00164e-05 0 -0.00248459)
(2.22768e-06 0 -0.00408086)
(-1.29237e-06 0 -0.00352714)
(3.76353e-06 0 -0.00526551)
(2.18618e-06 0 -0.0046802)
(5.29318e-06 0 -0.00650957)
(5.27611e-06 0 -0.00589373)
(7.00109e-06 0 -0.00782115)
(8.65161e-06 0 -0.00717008)
(8.87379e-06 0 -0.0092101)
(1.22841e-05 0 -0.00851937)
(1.09052e-05 0 -0.0106849)
(1.61603e-05 0 -0.00995061)
(1.31102e-05 0 -0.0122536)
(2.03133e-05 0 -0.0114718)
(1.55126e-05 0 -0.013924)
(2.47951e-05 0 -0.0130909)
(1.81379e-05 0 -0.0157045)
(2.96619e-05 0 -0.014816)
(2.10111e-05 0 -0.0176037)
(3.49685e-05 0 -0.0166555)
(2.41569e-05 0 -0.0196305)
(4.07679e-05 0 -0.0186183)
(2.76003e-05 0 -0.0217938)
(4.7112e-05 0 -0.0207131)
(3.13665e-05 0 -0.0241028)
(5.40532e-05 0 -0.0229492)
(3.54819e-05 0 -0.0265671)
(6.16451e-05 0 -0.0253358)
(3.99746e-05 0 -0.0291962)
(6.99437e-05 0 -0.0278826)
(4.48748e-05 0 -0.0320004)
(7.90092e-05 0 -0.0305994)
(5.02161e-05 0 -0.03499)
(8.89066e-05 0 -0.0334964)
(5.60362e-05 0 -0.0381762)
(9.97081e-05 0 -0.0365845)
(6.23778e-05 0 -0.0415706)
(0.000111494 0 -0.0398749)
(6.92908e-05 0 -0.045186)
(0.000124358 0 -0.04338)
(7.68342e-05 0 -0.0490362)
(0.000138406 0 -0.0471128)
(8.5079e-05 0 -0.0531363)
(0.000153764 0 -0.0510878)
(9.41122e-05 0 -0.0575035)
(0.000170584 0 -0.0553211)
(0.000104042 0 -0.0621573)
(0.000189047 0 -0.0598308)
(0.000114998 0 -0.0671203)
(0.000209374 0 -0.064638)
(0.000127126 0 -0.0724191)
(0.000231815 0 -0.0697672)
(0.000140558 0 -0.0780826)
(0.000256627 0 -0.0752467)
(0.000155342 0 -0.0841377)
(0.000284068 0 -0.0811062)
(0.000173131 0 -0.0916708)
(0.000315864 0 -0.0879032)
(0.000192086 0 -0.0993149)
(0.000351884 0 -0.0954916)
(0.000212388 0 -0.107082)
(0.000390423 0 -0.103196)
(0.000234218 0 -0.114989)
(0.000431697 0 -0.111031)
(0.000257734 0 -0.123051)
(0.000476056 0 -0.119013)
(0.000283082 0 -0.131282)
(0.000523792 0 -0.127159)
(0.000310413 0 -0.139697)
(0.000575192 0 -0.135482)
(0.000339904 0 -0.148306)
(0.000630569 0 -0.143993)
(0.000371778 0 -0.157123)
(0.000690299 0 -0.152706)
(0.000406305 0 -0.16616)
(0.000754839 0 -0.161633)
(0.000443799 0 -0.175433)
(0.000824732 0 -0.170788)
(0.000484614 0 -0.184956)
(0.000900606 0 -0.180186)
(0.000529219 0 -0.194747)
(0.00098323 0 -0.189843)
(0.000578413 0 -0.204825)
(0.00107373 0 -0.199776)
(0.000633689 0 -0.215223)
(0.00117404 0 -0.21001)
(0.000697376 0 -0.226004)
(0.00128726 0 -0.220587)
(0.000771868 0 -0.237262)
(0.00141719 0 -0.231587)
(0.000857821 0 -0.249104)
(0.00156618 0 -0.243123)
(0.000953381 0 -0.261591)
(0.00173287 0 -0.255292)
(0.00105774 0 -0.274719)
(0.00191398 0 -0.268117)
(0.00117656 0 -0.288526)
(0.00211153 0 -0.281576)
(0.00131642 0 -0.303186)
(0.00233249 0 -0.295768)
(0.00147158 0 -0.318926)
(0.0025728 0 -0.310937)
(0.00161124 0 -0.33579)
(0.00279685 0 -0.327279)
(0.00167011 0 -0.353332)
(0.00292178 0 -0.344656)
(0.00154833 0 -0.370305)
(0.0028128 0 -0.362276)
(0.00113918 0 -0.384473)
(0.00230681 0 -0.378413)
(0.000404876 0 -0.392856)
(0.00129345 0 -0.39034)
(-0.000537751 0 -0.392742)
(-0.000160127 0 -0.394927)
(-0.00144904 0 -0.382938)
(-0.00175936 0 -0.39001)
(-0.00207758 0 -0.364521)
(-0.00309867 0 -0.375435)
(-0.00233005 0 -0.34038)
(-0.00389311 0 -0.353447)
(-0.00227884 0 -0.313746)
(-0.00411822 0 -0.327426)
(-0.00205965 0 -0.287035)
(-0.00393616 0 -0.300351)
(-0.00178467 0 -0.261542)
(-0.00354538 0 -0.274063)
(-0.00151671 0 -0.237701)
(-0.00309155 0 -0.249346)
(-0.00128013 0 -0.215487)
(-0.00265291 0 -0.226333)
(-0.00107874 0 -0.194699)
(-0.00225991 0 -0.204864)
(-0.000908035 0 -0.175123)
(-0.00191759 0 -0.184709)
(-0.000761186 0 -0.156626)
(-0.0016211 0 -0.165676)
(-0.000648666 0 -0.142405)
(-0.00137738 0 -0.149336)
(-0.000555845 0 -0.129665)
(-0.00118283 0 -0.135896)
(-0.000480023 0 -0.118144)
(-0.00102154 0 -0.123804)
(-0.000417282 0 -0.107628)
(-0.000887319 0 -0.112811)
(-0.000364309 0 -0.0979697)
(-0.000774257 0 -0.102739)
(-0.000318778 0 -0.0890683)
(-0.000677582 0 -0.0934666)
(-0.000279159 0 -0.0808528)
(-0.000593898 0 -0.0849124)
(-0.000244431 0 -0.0732679)
(-0.00052085 0 -0.0770149)
(-0.000213871 0 -0.0662666)
(-0.000456763 0 -0.0697238)
(-0.000186934 0 -0.0598076)
(-0.000400387 0 -0.0629955)
(-0.000163179 0 -0.053853)
(-0.00035074 0 -0.0567903)
(-0.000142241 0 -0.0483679)
(-0.000307018 0 -0.0510719)
(-0.000123804 0 -0.0433198)
(-0.000268541 0 -0.0458068)
(-0.000107595 0 -0.0386786)
(-0.000234726 0 -0.0409636)
(-9.33721e-05 0 -0.0344158)
(-0.000205062 0 -0.0365131)
(-8.09212e-05 0 -0.030505)
(-0.000179102 0 -0.0324277)
(-7.00511e-05 0 -0.0269212)
(-0.000156449 0 -0.0286819)
(-6.05915e-05 0 -0.0236409)
(-0.00013675 0 -0.0252513)
(-5.23922e-05 0 -0.0206415)
(-0.000119698 0 -0.022113)
(-4.53239e-05 0 -0.0179017)
(-0.000105025 0 -0.0192451)
(-3.92796e-05 0 -0.0154002)
(-9.25121e-05 0 -0.0166262)
(-3.41765e-05 0 -0.0131166)
(-8.19844e-05 0 -0.0142357)
(-2.99525e-05 0 -0.0110307)
(-7.33142e-05 0 -0.0120529)
(-2.65529e-05 0 -0.00912339)
(-6.64037e-05 0 -0.0100581)
(-2.39038e-05 0 -0.00737809)
(-6.11431e-05 0 -0.00823298)
(-2.192e-05 0 -0.00578198)
(-5.73327e-05 0 -0.00656258)
(-2.08053e-05 0 -0.00432108)
(-5.47992e-05 0 -0.00503539)
(-2.19893e-05 0 -0.00295066)
(-5.45005e-05 0 -0.00363066)
(-2.77396e-05 0 -0.00154962)
(-5.95404e-05 0 -0.00227416)
(-7.08528e-05 0 -0.000816832)
(-2.63977e-05 0 -0.00215853)
(-4.82772e-05 0 -0.00186445)
(-9.37231e-06 0 -0.00301539)
(-1.83697e-05 0 -0.00253756)
(-1.63206e-06 0 -0.00410161)
(-6.58463e-06 0 -0.00355008)
(3.52243e-06 0 -0.00528201)
(-5.49219e-07 0 -0.00469475)
(8.52751e-06 0 -0.0065263)
(5.37786e-06 0 -0.00590719)
(1.38263e-05 0 -0.00783867)
(1.18507e-05 0 -0.00718366)
(1.94513e-05 0 -0.00922838)
(1.878e-05 0 -0.00853311)
(2.54357e-05 0 -0.010704)
(2.61746e-05 0 -0.00996454)
(3.18498e-05 0 -0.0122734)
(3.41074e-05 0 -0.0114861)
(3.8779e-05 0 -0.0139448)
(4.26774e-05 0 -0.0131056)
(4.63091e-05 0 -0.0157263)
(5.19913e-05 0 -0.0148312)
(5.45229e-05 0 -0.0176267)
(6.21547e-05 0 -0.0166713)
(6.35006e-05 0 -0.0196545)
(7.32716e-05 0 -0.0186347)
(7.33216e-05 0 -0.0218191)
(8.54452e-05 0 -0.0207303)
(8.40661e-05 0 -0.0241294)
(9.87805e-05 0 -0.0229671)
(9.58174e-05 0 -0.026595)
(0.000113386 0 -0.0253545)
(0.000108663 0 -0.0292256)
(0.000129375 0 -0.0279021)
(0.000122698 0 -0.0320313)
(0.000146869 0 -0.0306197)
(0.000138025 0 -0.0350226)
(0.000166 0 -0.0335176)
(0.000154758 0 -0.0382105)
(0.000186913 0 -0.0366065)
(0.000173028 0 -0.0416068)
(0.000209771 0 -0.0398979)
(0.000192983 0 -0.0452242)
(0.000234756 0 -0.0434039)
(0.000214796 0 -0.0490766)
(0.000262081 0 -0.0471377)
(0.000238671 0 -0.0531791)
(0.00029199 0 -0.0511138)
(0.000264854 0 -0.0575489)
(0.000324774 0 -0.0553482)
(0.000293637 0 -0.0622055)
(0.000360778 0 -0.0598593)
(0.000325365 0 -0.0671717)
(0.000400408 0 -0.0646679)
(0.00036041 0 -0.0724739)
(0.000444118 0 -0.0697986)
(0.00039909 0 -0.0781411)
(0.00049236 0 -0.0752798)
(0.000441451 0 -0.0841996)
(0.000545617 0 -0.0811407)
(0.000493997 0 -0.0917371)
(0.000607822 0 -0.0879383)
(0.000549624 0 -0.0993863)
(0.000678745 0 -0.0955287)
(0.000609025 0 -0.107159)
(0.000754481 0 -0.103235)
(0.000672756 0 -0.115072)
(0.000835457 0 -0.111073)
(0.00074127 0 -0.12314)
(0.000922359 0 -0.119059)
(0.000814993 0 -0.131378)
(0.00101575 0 -0.127208)
(0.000894366 0 -0.139799)
(0.00111618 0 -0.135535)
(0.000979892 0 -0.148416)
(0.00122425 0 -0.14405)
(0.00107218 0 -0.15724)
(0.00134066 0 -0.152768)
(0.00117195 0 -0.166286)
(0.00146626 0 -0.1617)
(0.00128008 0 -0.175568)
(0.00160204 0 -0.17086)
(0.00139756 0 -0.185102)
(0.00174916 0 -0.180264)
(0.00152576 0 -0.194904)
(0.00190905 0 -0.189928)
(0.00166684 0 -0.204996)
(0.00208375 0 -0.19987)
(0.00182432 0 -0.21541)
(0.0022765 0 -0.210115)
(0.00200305 0 -0.22621)
(0.00249218 0 -0.220706)
(0.00220746 0 -0.237491)
(0.00273634 0 -0.231723)
(0.00243825 0 -0.249358)
(0.00301197 0 -0.243277)
(0.00269155 0 -0.261871)
(0.00331603 0 -0.255461)
(0.00296497 0 -0.275031)
(0.0036418 0 -0.268299)
(0.00326431 0 -0.28888)
(0.00398871 0 -0.281775)
(0.00359097 0 -0.303586)
(0.00435987 0 -0.295986)
(0.00391496 0 -0.319362)
(0.00473666 0 -0.311153)
(0.0041503 0 -0.336228)
(0.00504816 0 -0.327436)
(0.00414215 0 -0.353705)
(0.00515089 0 -0.344651)
(0.00368173 0 -0.370526)
(0.00483016 0 -0.361969)
(0.00257801 0 -0.384471)
(0.00384621 0 -0.377677)
(0.000800434 0 -0.392644)
(0.00205855 0 -0.389155)
(-0.00138959 0 -0.392437)
(-0.000402043 0 -0.393467)
(-0.00350629 0 -0.382713)
(-0.00307721 0 -0.388599)
(-0.00505155 0 -0.3645)
(-0.00535201 0 -0.374405)
(-0.00580284 0 -0.340569)
(-0.00678051 0 -0.352946)
(-0.00585515 0 -0.314066)
(-0.00729284 0 -0.327391)
(-0.00546125 0 -0.287393)
(-0.00710849 0 -0.300613)
(-0.00486462 0 -0.261876)
(-0.00652697 0 -0.27446)
(-0.00422597 0 -0.237984)
(-0.00578787 0 -0.249772)
(-0.00362524 0 -0.215714)
(-0.00503432 0 -0.226733)
(-0.0030902 0 -0.194877)
(-0.00433281 0 -0.205221)
(-0.002622 0 -0.175263)
(-0.00370421 0 -0.185022)
(-0.00221027 0 -0.15674)
(-0.00314893 0 -0.16595)
(-0.00190112 0 -0.142502)
(-0.00268971 0 -0.149588)
(-0.00163983 0 -0.129743)
(-0.00232179 0 -0.136119)
(-0.00142166 0 -0.118206)
(-0.00201268 0 -0.124)
(-0.00123853 0 -0.107679)
(-0.00175236 0 -0.112984)
(-0.00108285 0 -0.098011)
(-0.00153134 0 -0.102893)
(-0.000948826 0 -0.0891027)
(-0.00134155 0 -0.0936055)
(-0.000832304 0 -0.0808819)
(-0.001177 0 -0.0850391)
(-0.00073035 0 -0.0732925)
(-0.00103333 0 -0.0771311)
(-0.000640807 0 -0.0662876)
(-0.000907328 0 -0.0698309)
(-0.00056202 0 -0.0598255)
(-0.000796561 0 -0.0630943)
(-0.000492659 0 -0.0538682)
(-0.000699084 0 -0.0568815)
(-0.000431618 0 -0.0483807)
(-0.000613299 0 -0.0511561)
(-0.000377955 0 -0.0433307)
(-0.000537862 0 -0.0458844)
(-0.000330856 0 -0.0386876)
(-0.000471617 0 -0.041035)
(-0.000289607 0 -0.0344233)
(-0.000413559 0 -0.0365786)
(-0.00025358 0 -0.0305112)
(-0.000362804 0 -0.0324878)
(-0.000222218 0 -0.0269263)
(-0.000318576 0 -0.0287367)
(-0.000195034 0 -0.0236449)
(-0.000280188 0 -0.0253011)
(-0.000171601 0 -0.0206446)
(-0.000247039 0 -0.022158)
(-0.000151565 0 -0.0179038)
(-0.000218612 0 -0.0192854)
(-0.000134636 0 -0.0154014)
(-0.000194475 0 -0.016662)
(-0.000120601 0 -0.0131167)
(-0.000174281 0 -0.0142668)
(-0.000109298 0 -0.0110296)
(-0.000157759 0 -0.0120792)
(-0.000100582 0 -0.00912099)
(-0.000144686 0 -0.0100793)
(-9.42458e-05 0 -0.00737442)
(-0.000134811 0 -0.00824914)
(-9.00044e-05 0 -0.00577631)
(-0.000127695 0 -0.0065739)
(-8.80219e-05 0 -0.00430815)
(-0.000122736 0 -0.00504091)
(-9.04844e-05 0 -0.00291859)
(-0.000120539 0 -0.00362329)
(-0.000100592 0 -0.00150444)
(-0.000124293 0 -0.00224266)
(-0.000132736 0 -0.000783862)
(-2.92581e-05 0 -0.00223144)
(-3.97917e-05 0 -0.00193881)
(-1.48355e-05 0 -0.00305287)
(-1.93183e-05 0 -0.00258241)
(-6.1488e-06 0 -0.00412136)
(-9.89834e-06 0 -0.00357582)
(1.05509e-06 0 -0.0052971)
(-3.16324e-06 0 -0.00471508)
(8.53508e-06 0 -0.00654085)
(4.32894e-06 0 -0.0059273)
(1.6608e-05 0 -0.0078533)
(1.27386e-05 0 -0.00720435)
(2.52844e-05 0 -0.00924314)
(2.19621e-05 0 -0.00855429)
(3.46069e-05 0 -0.010719)
(3.20184e-05 0 -0.00998623)
(4.46716e-05 0 -0.0122888)
(4.29849e-05 0 -0.0115084)
(5.55993e-05 0 -0.0139607)
(5.49754e-05 0 -0.0131287)
(6.75167e-05 0 -0.0157429)
(6.81209e-05 0 -0.0148552)
(8.05509e-05 0 -0.0176439)
(8.2558e-05 0 -0.0166964)
(9.48289e-05 0 -0.0196726)
(9.84263e-05 0 -0.0186609)
(0.000110479 0 -0.0218379)
(0.00011587 0 -0.0207577)
(0.000127635 0 -0.0241491)
(0.000135038 0 -0.0229958)
(0.000146434 0 -0.0266156)
(0.000156089 0 -0.0253845)
(0.000167024 0 -0.0292471)
(0.000179192 0 -0.0279334)
(0.000189564 0 -0.0320537)
(0.000204526 0 -0.0306524)
(0.000214225 0 -0.0350458)
(0.000232289 0 -0.0335516)
(0.0002412 0 -0.0382347)
(0.000262698 0 -0.036642)
(0.000270705 0 -0.041632)
(0.000295993 0 -0.0399349)
(0.000302983 0 -0.0452505)
(0.000332448 0 -0.0434425)
(0.000338317 0 -0.0491039)
(0.000372374 0 -0.047178)
(0.000377038 0 -0.0532075)
(0.000416131 0 -0.0511559)
(0.000419532 0 -0.0575786)
(0.000464139 0 -0.0553923)
(0.000466257 0 -0.0622366)
(0.000516889 0 -0.0599054)
(0.000517735 0 -0.0672043)
(0.000574954 0 -0.0647164)
(0.000574522 0 -0.0725081)
(0.000638963 0 -0.0698496)
(0.000637087 0 -0.0781768)
(0.000709528 0 -0.0753333)
(0.000705543 0 -0.0842361)
(0.000787325 0 -0.0811966)
(0.000791731 0 -0.0917747)
(0.000878709 0 -0.0879957)
(0.000882832 0 -0.0994262)
(0.000983419 0 -0.0955894)
(0.000979975 0 -0.107202)
(0.00109513 0 -0.1033)
(0.00108403 0 -0.115117)
(0.00121443 0 -0.111143)
(0.00119572 0 -0.123189)
(0.00134229 0 -0.119134)
(0.00131574 0 -0.13143)
(0.00147952 0 -0.127288)
(0.00144477 0 -0.139856)
(0.0016269 0 -0.135621)
(0.00158362 0 -0.148477)
(0.00178528 0 -0.144143)
(0.00173321 0 -0.157307)
(0.00195562 0 -0.152868)
(0.00189465 0 -0.166358)
(0.00213908 0 -0.161807)
(0.00206924 0 -0.175647)
(0.00233701 0 -0.170976)
(0.00225853 0 -0.185188)
(0.00255096 0 -0.18039)
(0.00246457 0 -0.194998)
(0.00278286 0 -0.190066)
(0.00269043 0 -0.205101)
(0.00303533 0 -0.200021)
(0.00294074 0 -0.215529)
(0.00331235 0 -0.210282)
(0.00322137 0 -0.226346)
(0.00361956 0 -0.220893)
(0.003537 0 -0.237646)
(0.00396286 0 -0.231934)
(0.00388721 0 -0.249529)
(0.0043445 0 -0.24351)
(0.00426548 0 -0.262054)
(0.00475889 0 -0.255713)
(0.00466552 0 -0.275227)
(0.00519513 0 -0.268566)
(0.0050867 0 -0.289087)
(0.00564703 0 -0.282056)
(0.00551664 0 -0.303787)
(0.00610843 0 -0.296272)
(0.00589869 0 -0.319505)
(0.00654263 0 -0.311408)
(0.00610462 0 -0.336208)
(0.00684828 0 -0.327573)
(0.00592671 0 -0.353371)
(0.00684085 0 -0.344532)
(0.0051081 0 -0.369717)
(0.00626337 0 -0.361424)
(0.0034393 0 -0.383106)
(0.00484979 0 -0.376564)
(0.000922252 0 -0.39083)
(0.00246835 0 -0.387477)
(-0.00209747 0 -0.390492)
(-0.00069694 0 -0.391454)
(-0.00501412 0 -0.381049)
(-0.00410211 0 -0.386655)
(-0.00721479 0 -0.36342)
(-0.00703407 0 -0.372938)
(-0.00839801 0 -0.340132)
(-0.00896088 0 -0.352158)
(-0.0086398 0 -0.314132)
(-0.00976688 0 -0.32723)
(-0.00822973 0 -0.287759)
(-0.00967639 0 -0.300887)
(-0.00747609 0 -0.262368)
(-0.00903174 0 -0.274963)
(-0.00660354 0 -0.238497)
(-0.00812816 0 -0.250354)
(-0.00573951 0 -0.216197)
(-0.00715748 0 -0.22731)
(-0.00494062 0 -0.195312)
(-0.00622024 0 -0.205754)
(-0.00422232 0 -0.17565)
(-0.00535718 0 -0.1855)
(-0.00357888 0 -0.157089)
(-0.00457959 0 -0.166379)
(-0.00309533 0 -0.142821)
(-0.00393082 0 -0.149982)
(-0.00268208 0 -0.130026)
(-0.00340802 0 -0.136473)
(-0.00233258 0 -0.118457)
(-0.00296399 0 -0.124314)
(-0.00203613 0 -0.107903)
(-0.00258633 0 -0.113263)
(-0.00178245 0 -0.0982134)
(-0.00226332 0 -0.103143)
(-0.00156329 0 -0.0892873)
(-0.00198466 0 -0.0938326)
(-0.0013725 0 -0.0810515)
(-0.0017424 0 -0.0852465)
(-0.00120551 0 -0.073449)
(-0.00153058 0 -0.0773215)
(-0.0010589 0 -0.0664325)
(-0.0013447 0 -0.0700062)
(-0.000929945 0 -0.0599597)
(-0.00118124 0 -0.063256)
(-0.000816479 0 -0.0539925)
(-0.00103739 0 -0.0570307)
(-0.000716677 0 -0.0484958)
(-0.000910811 0 -0.0512938)
(-0.00062899 0 -0.0434371)
(-0.000799513 0 -0.0460113)
(-0.00055208 0 -0.0387858)
(-0.000701799 0 -0.0411517)
(-0.000484777 0 -0.0345137)
(-0.000616188 0 -0.0366857)
(-0.000426055 0 -0.0305942)
(-0.00054138 0 -0.0325857)
(-0.000375007 0 -0.0270022)
(-0.000476229 0 -0.028826)
(-0.000330838 0 -0.023714)
(-0.000419723 0 -0.0253821)
(-0.000292857 0 -0.0207071)
(-0.000370973 0 -0.022231)
(-0.000260475 0 -0.0179598)
(-0.000329206 0 -0.0193507)
(-0.000233202 0 -0.0154509)
(-0.00029376 0 -0.0167196)
(-0.000210639 0 -0.0131596)
(-0.000264082 0 -0.0143167)
(-0.000192456 0 -0.0110657)
(-0.000239705 0 -0.0121214)
(-0.000178324 0 -0.0091502)
(-0.000220212 0 -0.0101137)
(-0.000167793 0 -0.00739696)
(-0.000205133 0 -0.008276)
(-0.000160184 0 -0.00579219)
(-0.000193741 0 -0.00659424)
(-0.000154901 0 -0.00431448)
(-0.000184902 0 -0.0050557)
(-0.000152577 0 -0.00290874)
(-0.000178134 0 -0.00363007)
(-0.000154631 0 -0.00148431)
(-0.000175055 0 -0.0022362)
(-0.000172623 0 -0.000775304)
(-2.34702e-05 0 -0.00227404)
(-3.05745e-05 0 -0.00197578)
(-1.46735e-05 0 -0.00308117)
(-1.98518e-05 0 -0.00260977)
(-7.51948e-06 0 -0.00414213)
(-1.3181e-05 0 -0.00359701)
(-1.22966e-07 0 -0.00531649)
(-6.51617e-06 0 -0.00473594)
(8.29368e-06 0 -0.0065608)
(1.50494e-06 0 -0.00594992)
(1.78086e-05 0 -0.0078739)
(1.08344e-05 0 -0.00722871)
(2.83891e-05 0 -0.00926428)
(2.14266e-05 0 -0.00858012)
(4.00652e-05 0 -0.0107407)
(3.3305e-05 0 -0.0100134)
(5.29282e-05 0 -0.0123112)
(4.65435e-05 0 -0.0115369)
(6.71032e-05 0 -0.0139839)
(6.12601e-05 0 -0.0131586)
(8.2731e-05 0 -0.015767)
(7.75967e-05 0 -0.0148867)
(9.99608e-05 0 -0.017669)
(9.57077e-05 0 -0.0167295)
(0.000118949 0 -0.0196988)
(0.000115757 0 -0.0186958)
(0.000139861 0 -0.0218652)
(0.00013792 0 -0.0207943)
(0.000162871 0 -0.0241776)
(0.000162384 0 -0.0230342)
(0.000188166 0 -0.0266453)
(0.000189349 0 -0.0254248)
(0.000215948 0 -0.029278)
(0.000219032 0 -0.0279756)
(0.000246435 0 -0.0320858)
(0.00025167 0 -0.0306965)
(0.000279868 0 -0.0350792)
(0.000287521 0 -0.0335978)
(0.000316512 0 -0.0382693)
(0.000326871 0 -0.0366903)
(0.000356664 0 -0.0416679)
(0.000370036 0 -0.0399854)
(0.000400664 0 -0.0452877)
(0.000417376 0 -0.0434952)
(0.000448898 0 -0.0491425)
(0.000469298 0 -0.0472331)
(0.000501814 0 -0.0532476)
(0.000526269 0 -0.0512135)
(0.000559934 0 -0.0576202)
(0.000588831 0 -0.0554526)
(0.000623863 0 -0.06228)
(0.000657613 0 -0.0599686)
(0.000694283 0 -0.0672496)
(0.000733336 0 -0.0647827)
(0.000771916 0 -0.0725553)
(0.000816796 0 -0.0699193)
(0.000857398 0 -0.0782257)
(0.000908755 0 -0.0754064)
(0.000950981 0 -0.084286)
(0.00101005 0 -0.0812729)
(0.00106955 0 -0.0918261)
(0.00112947 0 -0.0880747)
(0.001195 0 -0.0994803)
(0.00126679 0 -0.095673)
(0.00132869 0 -0.107259)
(0.00141323 0 -0.103389)
(0.00147173 0 -0.115179)
(0.00156947 0 -0.111238)
(0.00162505 0 -0.123255)
(0.00173675 0 -0.119236)
(0.00178957 0 -0.131502)
(0.00191604 0 -0.127398)
(0.00196621 0 -0.139933)
(0.00210832 0 -0.135738)
(0.00215599 0 -0.14856)
(0.00231462 0 -0.14427)
(0.00236009 0 -0.157396)
(0.00253613 0 -0.153004)
(0.00257991 0 -0.166455)
(0.00277421 0 -0.161954)
(0.00281705 0 -0.175752)
(0.00303046 0 -0.171134)
(0.00307344 0 -0.185302)
(0.00330668 0 -0.180561)
(0.00335153 0 -0.195125)
(0.00360505 0 -0.190251)
(0.00365487 0 -0.205241)
(0.00392848 0 -0.200223)
(0.00398848 0 -0.215686)
(0.00428115 0 -0.210504)
(0.00435827 0 -0.226524)
(0.00466867 0 -0.22114)
(0.00476808 0 -0.237845)
(0.00509625 0 -0.232207)
(0.00521531 0 -0.249744)
(0.00556438 0 -0.243808)
(0.00568976 0 -0.262279)
(0.0060642 0 -0.256029)
(0.00617958 0 -0.275455)
(0.00657993 0 -0.268892)
(0.00667525 0 -0.289309)
(0.00709827 0 -0.282387)
(0.00714919 0 -0.303971)
(0.00760168 0 -0.296588)
(0.00752146 0 -0.319572)
(0.00803591 0 -0.311656)
(0.00763378 0 -0.336024)
(0.0082759 0 -0.327648)
(0.00724858 0 -0.352756)
(0.00811183 0 -0.344275)
(0.00609173 0 -0.3685)
(0.00726932 0 -0.360652)
(0.00396172 0 -0.381223)
(0.00548406 0 -0.375144)
(0.000896295 0 -0.38843)
(0.00264972 0 -0.385433)
(-0.00270784 0 -0.387951)
(-0.0010094 0 -0.389051)
(-0.00618879 0 -0.378842)
(-0.00491097 0 -0.384334)
(-0.00887951 0 -0.361904)
(-0.0083069 0 -0.371144)
(-0.0104281 0 -0.339406)
(-0.0106244 0 -0.351125)
(-0.0108804 0 -0.314064)
(-0.0117078 0 -0.326929)
(-0.0105287 0 -0.28812)
(-0.0117602 0 -0.301121)
(-0.00971163 0 -0.262947)
(-0.0111328 0 -0.275508)
(-0.00869436 0 -0.239149)
(-0.0101499 0 -0.251032)
(-0.00764109 0 -0.216842)
(-0.00903748 0 -0.228012)
(-0.00663519 0 -0.195915)
(-0.00792523 0 -0.206424)
(-0.0057087 0 -0.176201)
(-0.00687402 0 -0.186118)
(-0.0048642 0 -0.157594)
(-0.00590831 0 -0.166943)
(-0.00422605 0 -0.143285)
(-0.00509442 0 -0.150503)
(-0.00367534 0 -0.130444)
(-0.00443406 0 -0.136944)
(-0.00320496 0 -0.118832)
(-0.00386758 0 -0.124736)
(-0.00280262 0 -0.10824)
(-0.00338154 0 -0.113642)
(-0.00245619 0 -0.0985194)
(-0.00296302 0 -0.103486)
(-0.0021557 0 -0.0895672)
(-0.00260023 0 -0.094144)
(-0.00189346 0 -0.0813089)
(-0.00228382 0 -0.0855315)
(-0.00166363 0 -0.0736867)
(-0.0020066 0 -0.0775835)
(-0.00146166 0 -0.0666523)
(-0.00176301 0 -0.0702477)
(-0.00128395 0 -0.0601631)
(-0.00154863 0 -0.0634788)
(-0.00112754 0 -0.0541807)
(-0.00135985 0 -0.0572364)
(-0.000989952 0 -0.0486698)
(-0.00119366 0 -0.0514836)
(-0.000869059 0 -0.0435976)
(-0.00104751 0 -0.0461861)
(-0.000763028 0 -0.0389336)
(-0.000919168 0 -0.0413125)
(-0.000670254 0 -0.0346494)
(-0.000806715 0 -0.0368333)
(-0.000589322 0 -0.0307183)
(-0.000708451 0 -0.0327207)
(-0.000518985 0 -0.0271152)
(-0.000622874 0 -0.028949)
(-0.000458142 0 -0.0238163)
(-0.000548653 0 -0.0254937)
(-0.000405826 0 -0.0207992)
(-0.000484614 0 -0.0223316)
(-0.000361195 0 -0.0180418)
(-0.000429723 0 -0.0194407)
(-0.000323527 0 -0.015523)
(-0.000383081 0 -0.0167992)
(-0.000292202 0 -0.0132219)
(-0.000343911 0 -0.0143862)
(-0.00026667 0 -0.0111181)
(-0.000311535 0 -0.0121807)
(-0.000246368 0 -0.009193)
(-0.000285319 0 -0.0101632)
(-0.000230567 0 -0.00743123)
(-0.000264561 0 -0.00831636)
(-0.000218165 0 -0.00581983)
(-0.000248261 0 -0.00662746)
(-0.000207807 0 -0.00433676)
(-0.00023494 0 -0.00508482)
(-0.000198868 0 -0.00292433)
(-0.000223427 0 -0.00365645)
(-0.000192312 0 -0.00149256)
(-0.000214378 0 -0.00225651)
(-0.000205528 0 -0.000784886)
(-2.41977e-05 0 -0.00229561)
(-3.5244e-05 0 -0.00199331)
(-1.86742e-05 0 -0.00310103)
(-2.90513e-05 0 -0.00262693)
(-1.25189e-05 0 -0.0041624)
(-2.34543e-05 0 -0.00361522)
(-5.11676e-06 0 -0.00533895)
(-1.66478e-05 0 -0.00475681)
(3.7599e-06 0 -0.00658568)
(-8.24145e-06 0 -0.00597377)
(1.41255e-05 0 -0.00790089)
(1.76351e-06 0 -0.00725525)
(2.59845e-05 0 -0.00929311)
(1.33926e-05 0 -0.00860906)
(3.93894e-05 0 -0.0107712)
(2.67035e-05 0 -0.0100446)
(5.44415e-05 0 -0.0123435)
(4.17914e-05 0 -0.0115703)
(7.1276e-05 0 -0.014018)
(5.87919e-05 0 -0.0131943)
(9.0048e-05 0 -0.0158029)
(7.78658e-05 0 -0.0149246)
(0.000110926 0 -0.0177069)
(9.91897e-05 0 -0.0167697)
(0.000134093 0 -0.0197386)
(0.000122954 0 -0.0187383)
(0.000159746 0 -0.0219071)
(0.000149366 0 -0.0208392)
(0.000188096 0 -0.0242215)
(0.000178647 0 -0.0230815)
(0.000219375 0 -0.0266912)
(0.00021104 0 -0.0254746)
(0.000253833 0 -0.0293261)
(0.000246809 0 -0.0280279)
(0.000291745 0 -0.0321361)
(0.000286241 0 -0.0307514)
(0.000333415 0 -0.0351317)
(0.000329654 0 -0.0336554)
(0.000379179 0 -0.0383241)
(0.000377397 0 -0.0367506)
(0.000429414 0 -0.0417251)
(0.000429863 0 -0.0400485)
(0.000484547 0 -0.0453474)
(0.00048749 0 -0.0435612)
(0.000545063 0 -0.0492049)
(0.000550776 0 -0.0473021)
(0.000611522 0 -0.0533128)
(0.00062029 0 -0.0512858)
(0.00068457 0 -0.0576884)
(0.000696689 0 -0.0555283)
(0.000764949 0 -0.0623514)
(0.000780725 0 -0.060048)
(0.000853491 0 -0.0673244)
(0.00087326 0 -0.0648661)
(0.000951076 0 -0.0726337)
(0.000975244 0 -0.0700069)
(0.0010585 0 -0.0783076)
(0.00108759 0 -0.0754983)
(0.00117618 0 -0.0843708)
(0.00121128 0 -0.0813689)
(0.00132586 0 -0.0919149)
(0.00135749 0 -0.0881745)
(0.00148432 0 -0.0995744)
(0.00152602 0 -0.0957786)
(0.00165315 0 -0.10736)
(0.00170568 0 -0.103502)
(0.0018336 0 -0.115286)
(0.00189721 0 -0.111358)
(0.00202677 0 -0.12337)
(0.00210204 0 -0.119365)
(0.00223375 0 -0.131625)
(0.00232127 0 -0.127536)
(0.00245562 0 -0.140065)
(0.00255603 0 -0.135886)
(0.00269358 0 -0.148702)
(0.00280748 0 -0.144428)
(0.002949 0 -0.157549)
(0.00307695 0 -0.153174)
(0.00322343 0 -0.16662)
(0.00336593 0 -0.162137)
(0.00351865 0 -0.17593)
(0.00367612 0 -0.171331)
(0.00383675 0 -0.185495)
(0.00400941 0 -0.180773)
(0.00418034 0 -0.195333)
(0.00436801 0 -0.19048)
(0.00455298 0 -0.205469)
(0.00475479 0 -0.200472)
(0.00495949 0 -0.215938)
(0.00517367 0 -0.210775)
(0.005405 0 -0.226801)
(0.00562954 0 -0.221437)
(0.00589161 0 -0.238147)
(0.00612615 0 -0.232531)
(0.00641382 0 -0.250067)
(0.00666147 0 -0.244157)
(0.00695717 0 -0.262612)
(0.00722295 0 -0.256392)
(0.00750354 0 -0.275789)
(0.00778961 0 -0.269256)
(0.00803347 0 -0.289626)
(0.00834037 0 -0.28274)
(0.00850457 0 -0.304229)
(0.00884595 0 -0.296902)
(0.008818 0 -0.319682)
(0.00923659 0 -0.311865)
(0.00879637 0 -0.335845)
(0.00937061 0 -0.327634)
(0.00818981 0 -0.35211)
(0.00902613 0 -0.343871)
(0.00672798 0 -0.36723)
(0.00792936 0 -0.359678)
(0.00423323 0 -0.379284)
(0.00583526 0 -0.373481)
(0.000777534 0 -0.385982)
(0.00267006 0 -0.383129)
(-0.00321783 0 -0.385364)
(-0.00131484 0 -0.386388)
(-0.00707839 0 -0.376574)
(-0.00553169 0 -0.381761)
(-0.0101262 0 -0.360312)
(-0.0092388 0 -0.369112)
(-0.0119805 0 -0.338606)
(-0.0118543 0 -0.349889)
(-0.0126506 0 -0.313953)
(-0.0131895 0 -0.326482)
(-0.0124087 0 -0.288483)
(-0.0134123 0 -0.301283)
(-0.0115984 0 -0.263573)
(-0.0128591 0 -0.276048)
(-0.0105076 0 -0.239881)
(-0.0118631 0 -0.25176)
(-0.00932771 0 -0.217585)
(-0.0106717 0 -0.228798)
(-0.00816571 0 -0.196622)
(-0.00943817 0 -0.207199)
(-0.00707063 0 -0.176857)
(-0.00824215 0 -0.186848)
(-0.00605551 0 -0.158198)
(-0.00712199 0 -0.167619)
(-0.00528298 0 -0.143841)
(-0.00616772 0 -0.151133)
(-0.00460981 0 -0.130948)
(-0.00538759 0 -0.137521)
(-0.0040295 0 -0.119285)
(-0.00471178 0 -0.125257)
(-0.00352928 0 -0.10865)
(-0.00412712 0 -0.114113)
(-0.00309607 0 -0.0988918)
(-0.00362045 0 -0.103913)
(-0.00271875 0 -0.0899077)
(-0.00317914 0 -0.094535)
(-0.00238855 0 -0.0816216)
(-0.00279295 0 -0.0858904)
(-0.0020986 0 -0.0739747)
(-0.00245382 0 -0.0779141)
(-0.00184347 0 -0.066918)
(-0.00215533 0 -0.0705528)
(-0.00161878 0 -0.0604084)
(-0.00189232 0 -0.0637607)
(-0.00142089 0 -0.0544071)
(-0.00166051 0 -0.0574968)
(-0.00124673 0 -0.0488785)
(-0.00145632 0 -0.0517238)
(-0.00109365 0 -0.0437896)
(-0.00127666 0 -0.0464076)
(-0.000959361 0 -0.0391099)
(-0.00111884 0 -0.0415163)
(-0.000841837 0 -0.0348109)
(-0.000980532 0 -0.0370203)
(-0.000739302 0 -0.0308656)
(-0.000859652 0 -0.0328918)
(-0.000650176 0 -0.027249)
(-0.000754366 0 -0.0291049)
(-0.000573062 0 -0.0239373)
(-0.000663042 0 -0.0256352)
(-0.000506721 0 -0.0209077)
(-0.000584231 0 -0.0224593)
(-0.000450066 0 -0.0181384)
(-0.000516652 0 -0.019555)
(-0.000402146 0 -0.0156079)
(-0.000459179 0 -0.0169006)
(-0.00036213 0 -0.0132952)
(-0.000410825 0 -0.0144749)
(-0.000329255 0 -0.0111803)
(-0.000370714 0 -0.0122572)
(-0.000302744 0 -0.00924477)
(-0.000338013 0 -0.0102278)
(-0.000281643 0 -0.00747427)
(-0.000311813 0 -0.00837031)
(-0.000264626 0 -0.00585724)
(-0.000290934 0 -0.00667309)
(-0.000250099 0 -0.00437162)
(-0.000273809 0 -0.00512569)
(-0.000237178 0 -0.00295596)
(-0.000259196 0 -0.00369462)
(-0.000227079 0 -0.00151402)
(-0.000247514 0 -0.00228783)
(-0.000237914 0 -0.000798847)
(-3.87515e-05 0 -0.00230933)
(-5.61588e-05 0 -0.00200543)
(-3.40189e-05 0 -0.00311736)
(-5.09769e-05 0 -0.00264163)
(-2.78312e-05 0 -0.00418214)
(-4.52887e-05 0 -0.00363353)
(-2.00245e-05 0 -0.00536224)
(-3.80547e-05 0 -0.00477882)
(-1.05362e-05 0 -0.00661229)
(-2.90882e-05 0 -0.00599925)
(6.89371e-07 0 -0.00793053)
(-1.83224e-05 0 -0.00728399)
(1.3725e-05 0 -0.00932558)
(-5.67412e-06 0 -0.00864087)
(2.86697e-05 0 -0.0108064)
(8.96551e-06 0 -0.0100794)
(4.56547e-05 0 -0.0123814)
(2.57293e-05 0 -0.011608)
(6.48394e-05 0 -0.0140585)
(4.47825e-05 0 -0.0132348)
(8.64055e-05 0 -0.0158462)
(6.63137e-05 0 -0.0149681)
(0.000110551 0 -0.0177529)
(9.05303e-05 0 -0.0168162)
(0.00013749 0 -0.0197873)
(0.000117656 0 -0.0187877)
(0.000167454 0 -0.0219586)
(0.000147932 0 -0.0208916)
(0.000200695 0 -0.0242758)
(0.00018162 0 -0.023137)
(0.000237488 0 -0.0267485)
(0.000219004 0 -0.0255332)
(0.000278132 0 -0.0293863)
(0.000260394 0 -0.0280897)
(0.000322957 0 -0.0321993)
(0.00030613 0 -0.0308164)
(0.000372326 0 -0.0351981)
(0.000356584 0 -0.0337236)
(0.000426642 0 -0.0383937)
(0.000412169 0 -0.0368221)
(0.000486359 0 -0.041798)
(0.000473347 0 -0.0401234)
(0.000551985 0 -0.0454237)
(0.000540633 0 -0.0436398)
(0.000624099 0 -0.0492847)
(0.000614611 0 -0.0473844)
(0.000703366 0 -0.0533965)
(0.000695945 0 -0.051372)
(0.000790545 0 -0.0577762)
(0.000785395 0 -0.0556186)
(0.000886506 0 -0.0624436)
(0.000883833 0 -0.0601428)
(0.000992221 0 -0.0674213)
(0.000992246 0 -0.0649656)
(0.00110872 0 -0.0727355)
(0.00111173 0 -0.0701115)
(0.00123695 0 -0.0784142)
(0.00124334 0 -0.0756081)
(0.0013775 0 -0.0844819)
(0.00138821 0 -0.0814836)
(0.00155682 0 -0.0920319)
(0.00155982 0 -0.088294)
(0.00174671 0 -0.0996987)
(0.001758 0 -0.0959052)
(0.00194892 0 -0.107492)
(0.00196914 0 -0.103636)
(0.00216482 0 -0.115428)
(0.00219405 0 -0.111502)
(0.00239565 0 -0.123522)
(0.00243431 0 -0.119519)
(0.00264261 0 -0.131788)
(0.00269108 0 -0.127701)
(0.00290689 0 -0.140239)
(0.00296561 0 -0.136063)
(0.0031898 0 -0.148889)
(0.00325913 0 -0.144617)
(0.00349279 0 -0.15775)
(0.00357303 0 -0.153376)
(0.00381748 0 -0.166835)
(0.00390884 0 -0.162353)
(0.00416569 0 -0.176161)
(0.00426822 0 -0.171564)
(0.00453944 0 -0.185744)
(0.004653 0 -0.181023)
(0.00494123 0 -0.195602)
(0.00506523 0 -0.190748)
(0.00537428 0 -0.20576)
(0.00550741 0 -0.20076)
(0.00584267 0 -0.216254)
(0.00598282 0 -0.211087)
(0.00635006 0 -0.227145)
(0.00649511 0 -0.221775)
(0.00689624 0 -0.238517)
(0.00704596 0 -0.232895)
(0.00747232 0 -0.250455)
(0.00763039 0 -0.244541)
(0.00805937 0 -0.263006)
(0.00823198 0 -0.256783)
(0.00863279 0 -0.276173)
(0.00882456 0 -0.269639)
(0.00916309 0 -0.289977)
(0.00937927 0 -0.283093)
(0.00959462 0 -0.304494)
(0.00985584 0 -0.29719)
(0.00981465 0 -0.319766)
(0.0101719 0 -0.312011)
(0.00963617 0 -0.335604)
(0.0101757 0 -0.327515)
(0.00881068 0 -0.351374)
(0.00964379 0 -0.34332)
(0.00708569 0 -0.365858)
(0.00831505 0 -0.358528)
(0.00431519 0 -0.377251)