/*--------------------------------*- C++ -*----------------------------------*\
  =========                 |
  \\      /  F ield         | OpenFOAM: The Open Source CFD Toolbox
   \\    /   O peration     | Website:  https://openfoam.org
    \\  /    A nd           | Version:  9
     \\/     M anipulation  |
\*---------------------------------------------------------------------------*/
FoamFile
{
    format      ascii;
    class       surfaceScalarField;
    location    "0.12";
    object      alphaPhi0.water;
}
// * * * * * * * * * * * * * * * * * * * * * * * * * * * * * * * * * * * * * //

dimensions      [0 3 -1 0 0 0 0];

internalField   nonuniform List<scalar> 
9850
(
2.90377e-24
2.26576e-23
1.22649e-22
1.02536e-21
2.77548e-21
2.90115e-20
4.56266e-20
4.87336e-19
3.79729e-19
5.03043e-18
5.23303e-18
4.53341e-17
4.38862e-16
8.4784e-16
1.75524e-14
1.95992e-14
3.88455e-13
6.83664e-13
1.14642e-11
1.39683e-11
1.02688e-10
5.13878e-10
1.578e-09
4.00139e-10
4.96727e-07
1.74801e-08
1.97921e-06
1.10578e-06
1.86189e-06
1.19331e-06
1.78937e-06
1.0942e-06
1.76892e-06
1.06953e-06
1.78154e-06
1.00205e-06
1.80928e-06
9.24891e-07
1.84726e-06
8.51866e-07
1.88658e-06
6.47934e-07
1.92959e-06
5.93719e-07
1.96995e-06
5.73061e-07
2.00026e-06
5.87569e-07
2.016e-06
6.28377e-07
2.01535e-06
6.81909e-07
1.99814e-06
7.3306e-07
1.96539e-06
7.77194e-07
1.9118e-06
8.47975e-07
8.49114e-07
7.995e-07
4.84864e-09
1.27219e-07
0
6.0633e-09
0
1.35878e-09
0
3.89035e-10
0
7.18436e-11
0
1.75442e-11
0
4.63243e-12
0
1.2243e-12
0
3.22828e-13
0
8.75282e-14
0
2.43451e-14
5.742e-16
6.474e-15
9.14532e-16
2.22281e-15
7.88925e-16
1.18995e-15
5.9229e-16
7.76832e-16
4.17509e-16
5.26986e-16
2.69116e-16
3.39482e-16
1.6123e-16
2.02257e-16
9.01718e-17
1.17926e-16
4.82817e-17
2.18795e-24
1.26231e-23
1.23141e-22
1.01508e-21
3.50436e-21
3.71382e-20
3.9772e-20
4.38761e-19
3.36217e-19
3.52657e-18
4.0551e-18
3.00363e-17
2.6335e-16
5.1464e-16
8.88621e-15
8.68221e-15
4.81783e-13
2.80548e-13
1.67671e-11
1.62267e-11
1.70651e-10
5.06863e-10
1.199e-09
2.29977e-10
2.94816e-07
1.18038e-08
1.9833e-06
9.52644e-07
1.84235e-06
1.347e-06
1.77882e-06
1.15777e-06
1.77287e-06
1.07548e-06
1.79071e-06
9.84215e-07
1.81389e-06
9.01708e-07
1.84154e-06
8.24214e-07
1.87112e-06
6.18358e-07
1.9062e-06
5.58635e-07
1.94072e-06
5.3854e-07
1.96637e-06
5.61924e-07
1.97931e-06
6.15431e-07
1.98021e-06
6.81012e-07
1.96729e-06
7.4598e-07
1.93369e-06
8.108e-07
1.85977e-06
9.11573e-07
6.40028e-07
7.06187e-07
1.48283e-09
4.48767e-08
0
2.1522e-09
2.63947e-11
7.95242e-10
0
3.94877e-10
0
7.33615e-11
0
1.76716e-11
0
4.60666e-12
0
1.25497e-12
0
3.34365e-13
0
9.0204e-14
0
2.49877e-14
4.92989e-16
6.7881e-15
9.21181e-16
2.30666e-15
8.53076e-16
1.28358e-15
6.83304e-16
8.91371e-16
5.13077e-16
6.44084e-16
3.51936e-16
4.41296e-16
2.23679e-16
2.79367e-16
1.32293e-16
1.71063e-16
7.43517e-17
1.31024e-24
9.06575e-24
2.69246e-22
2.89951e-21
8.37847e-21
1.0382e-19
6.13573e-20
7.82486e-19
2.98565e-19
3.23704e-18
2.68076e-18
1.92557e-17
6.99173e-17
2.54816e-16
3.59104e-15
2.34748e-15
3.15474e-13
8.30486e-14
2.84802e-11
2.58895e-11
1.21961e-10
1.70261e-10
1.26478e-09
1.42001e-10
1.04727e-07
4.50536e-09
1.78402e-06
6.83458e-07
1.83028e-06
1.51148e-06
1.78339e-06
1.2047e-06
1.79678e-06
1.06209e-06
1.8191e-06
9.61891e-07
1.83452e-06
8.8629e-07
1.84732e-06
8.11417e-07
1.86159e-06
6.04084e-07
1.8823e-06
5.37924e-07
1.90505e-06
5.15796e-07
1.9187e-06
5.48274e-07
1.91754e-06
6.1659e-07
1.90576e-06
6.92791e-07
1.88484e-06
7.66896e-07
1.84645e-06
8.48411e-07
1.74267e-06
9.76857e-07
2.35364e-07
4.19975e-07
0
9.32092e-09
0
7.77691e-10
1.76904e-11
3.85919e-10
0
3.0623e-10
0
7.04443e-11
0
1.83488e-11
0
4.55009e-12
0
1.225e-12
0
3.35685e-13
0
9.0596e-14
0
2.47989e-14
4.78081e-16
6.7427e-15
9.10636e-16
2.29918e-15
8.89811e-16
1.30379e-15
7.53367e-16
9.70516e-16
5.94131e-16
7.41907e-16
4.2796e-16
5.3513e-16
2.84966e-16
3.55533e-16
1.76154e-16
2.26179e-16
1.02163e-16
3.95784e-24
4.0086e-23
9.67649e-22
1.04226e-20
2.28329e-20
2.63507e-19
1.27429e-19
1.67357e-18
3.8373e-19
4.64647e-18
1.67545e-18
1.39456e-17
4.37211e-17
1.5861e-16
6.35591e-15
2.54326e-15
8.23428e-13
1.04936e-13
1.34884e-11
5.24216e-11
5.17656e-11
1.20351e-11
4.10465e-10
1.87365e-10
2.76708e-08
1.17626e-09
1.44989e-06
3.69699e-07
1.8764e-06
1.63814e-06
1.83655e-06
1.2454e-06
1.85787e-06
1.04081e-06
1.87341e-06
9.46348e-07
1.87482e-06
8.84879e-07
1.86877e-06
8.17469e-07
1.86282e-06
6.10041e-07
1.8624e-06
5.38345e-07
1.86801e-06
5.10183e-07
1.86574e-06
5.50539e-07
1.83936e-06
6.42971e-07
1.79504e-06
7.37117e-07
1.75009e-06
8.11774e-07
1.70997e-06
8.86113e-07
1.18894e-06
8.35602e-07
6.38595e-09
1.18982e-07
0
3.76545e-09
0
4.67494e-10
1.23404e-11
3.98174e-10
9.72054e-13
2.04142e-10
0
6.35059e-11
0
1.83394e-11
0
4.58195e-12
0
1.18204e-12
0
3.30621e-13
0
9.09425e-14
0
2.4596e-14
4.26213e-16
6.40858e-15
8.62094e-16
2.14469e-15
8.80884e-16
1.28573e-15
7.85677e-16
1.0042e-15
6.45571e-16
8.05517e-16
4.84476e-16
6.07181e-16
3.33848e-16
4.1979e-16
2.13274e-16
2.75689e-16
1.27966e-16
1.80535e-23
1.83632e-22
2.9054e-21
2.75738e-20
5.2235e-20
5.26353e-19
2.57752e-19
3.09784e-18
6.07065e-19
7.79842e-18
1.50731e-18
1.36843e-17
7.69031e-17
1.55482e-16
6.26676e-15
1.4417e-15
2.54749e-12
1.24618e-12
1.32444e-11
2.60015e-11
3.68129e-11
4.43043e-11
4.19425e-10
5.71113e-10
1.07245e-08
3.01587e-10
8.82695e-07
7.82597e-08
2.07669e-06
1.41733e-06
1.99525e-06
1.32984e-06
1.97476e-06
1.06117e-06
1.95576e-06
9.6537e-07
1.93313e-06
9.07507e-07
1.90678e-06
8.43814e-07
1.87832e-06
6.38502e-07
1.85165e-06
5.65019e-07
1.83698e-06
5.24854e-07
1.82448e-06
5.63038e-07
1.78195e-06
6.85496e-07
1.71246e-06
8.066e-07
1.65754e-06
8.66363e-07
1.6575e-06
8.71933e-07
5.19215e-07
3.45877e-07
5.85564e-10
7.719e-09
0
7.60108e-10
5.80325e-11
6.31785e-10
7.36001e-11
5.77207e-10
0
1.35075e-10
0
5.33314e-11
0
1.79531e-11
0
4.86679e-12
0
1.17722e-12
0
3.21107e-13
0
9.04909e-14
0
2.5078e-14
3.04957e-16
6.05067e-15
7.95042e-16
1.90044e-15
8.53375e-16
1.22554e-15
7.85778e-16
1.01135e-15
6.65569e-16
8.4306e-16
5.1479e-16
6.56079e-16
3.64795e-16
4.67274e-16
2.38913e-16
3.13722e-16
1.48568e-16
8.81126e-23
8.15349e-22
6.38412e-21
5.18863e-20
9.42654e-20
8.04608e-19
4.66762e-19
4.83371e-18
1.02853e-18
1.29594e-17
1.96244e-18
1.92123e-17
2.11996e-16
4.01962e-16
1.94796e-14
2.44239e-15
9.82495e-13
1.69717e-12
5.48461e-12
1.02653e-11
9.88871e-12
3.6905e-11
3.02203e-10
4.46955e-10
3.4139e-09
7.31569e-11
4.61707e-07
2.46124e-08
2.29521e-06
6.07409e-07
2.22925e-06
1.4225e-06
2.13171e-06
1.15902e-06
2.05516e-06
1.04191e-06
2.00183e-06
9.60836e-07
1.95728e-06
8.88361e-07
1.90904e-06
6.86737e-07
1.85333e-06
6.20734e-07
1.81458e-06
5.636e-07
1.80302e-06
5.74594e-07
1.77643e-06
7.12081e-07
1.72227e-06
8.60574e-07
1.70267e-06
8.78949e-07
1.00947e-06
5.0603e-07
7.1404e-09
1.21937e-08
0
5.61714e-10
6.30713e-11
2.01514e-10
2.19288e-10
6.11591e-10
0
5.81547e-10
0
7.03119e-11
0
3.58507e-11
0
1.93169e-11
0
4.79483e-12
0
1.30654e-12
0
3.195e-13
0
9.03904e-14
0
2.56799e-14
1.98819e-16
6.01203e-15
7.12488e-16
1.73893e-15
8.04766e-16
1.16648e-15
7.64714e-16
1.0097e-15
6.6396e-16
8.66546e-16
5.24593e-16
6.9006e-16
3.77535e-16
4.9971e-16
2.50252e-16
3.37974e-16
1.63628e-16
2.69483e-22
2.08182e-21
1.029e-20
7.02037e-20
1.3203e-19
9.35537e-19
7.1865e-19
6.15698e-18
1.80125e-18
2.00997e-17
4.69363e-18
3.45617e-17
4.8893e-16
1.07441e-15
6.85599e-14
1.26038e-14
1.03119e-12
1.37299e-12
3.13377e-11
1.10856e-11
8.30606e-11
6.94761e-10
3.05018e-10
5.14556e-10
1.01489e-09
2.59783e-11
4.4243e-08
6.68203e-10
1.15198e-06
1.2416e-07
2.36195e-06
9.44117e-07
2.2624e-06
1.26309e-06
2.1464e-06
1.15804e-06
2.07318e-06
1.03402e-06
2.01689e-06
9.44611e-07
1.95364e-06
7.49957e-07
1.87263e-06
7.01739e-07
1.8015e-06
6.34668e-07
1.78017e-06
5.95966e-07
1.7811e-06
7.11042e-07
1.75138e-06
8.85571e-07
1.17021e-06
5.80421e-07
8.10533e-09
1.9193e-08
0
0
1.58809e-10
0
5.23455e-10
1.29923e-10
4.3234e-10
1.52622e-10
4.97218e-11
5.41107e-10
0
8.22984e-11
1.0426e-12
2.44698e-11
2.02466e-12
1.75668e-11
0
5.1304e-12
0
1.32838e-12
0
3.44007e-13
0
9.29242e-14
0
2.66706e-14
1.06811e-16
6.12706e-15
6.40275e-16
1.64923e-15
7.56846e-16
1.14156e-15
7.33961e-16
1.00962e-15
6.50739e-16
8.86594e-16
5.18541e-16
7.15748e-16
3.74513e-16
5.20907e-16
2.5908e-16
3.48329e-16
1.74752e-16
4.91079e-22
3.10346e-21
1.24606e-20
7.36797e-20
1.48065e-19
9.43794e-19
9.21747e-19
6.58584e-18
3.19157e-18
2.82363e-17
1.96028e-17
7.69347e-17
1.60423e-15
1.94103e-15
3.52971e-14
6.27573e-14
2.06447e-12
6.60149e-13
3.8158e-11
4.76451e-11
1.51248e-10
6.29091e-10
1.0848e-10
1.16605e-10
1.2908e-10
1.37093e-11
5.43349e-09
4.07872e-11
1.83997e-07
9.59092e-10
1.67894e-06
2.58229e-08
2.27867e-06
9.53409e-07
2.2186e-06
1.22038e-06
2.14859e-06
1.10412e-06
2.08484e-06
1.00826e-06
2.01475e-06
8.2004e-07
1.92687e-06
7.89622e-07
1.82862e-06
7.32263e-07
1.76235e-06
6.61508e-07
1.72369e-06
7.44759e-07
9.63879e-07
4.68476e-07
2.97216e-08
3.66089e-09
0
0
0
0
9.19511e-11
0
4.33572e-10
0
7.06849e-10
6.46208e-11
5.17394e-10
2.60768e-10
3.91285e-11
4.90233e-10
0
2.2291e-11
1.54473e-12
9.53158e-12
0
5.27346e-12
0
1.22556e-12
0
3.53915e-13
0
9.43104e-14
0
2.6663e-14
1.80225e-16
6.16285e-15
5.93736e-16
1.61789e-15
7.12069e-16
1.12968e-15
6.98822e-16
1.01237e-15
6.31814e-16
8.99017e-16
5.05781e-16
7.29404e-16
3.61437e-16
5.31804e-16
2.47286e-16
3.51071e-16
1.79985e-16
6.18401e-22
3.35509e-21
1.30071e-20
7.31323e-20
1.5291e-19
9.03434e-19
1.03329e-18
6.59729e-18
4.88853e-18
3.4707e-17
5.44623e-17
1.4161e-16
2.30889e-15
3.28532e-15
2.83187e-14
7.00043e-14
6.65714e-13
2.02652e-13
8.99111e-12
8.64834e-11
1.23477e-10
6.52087e-10
8.35794e-12
3.16543e-12
2.66952e-11
1.8027e-11
2.2855e-10
2.68585e-11
4.80735e-09
2.10381e-11
2.07185e-07
0
1.57069e-06
1.2598e-09
2.1326e-06
6.52721e-07
2.21818e-06
1.02084e-06
2.15625e-06
1.07012e-06
2.08836e-06
8.87801e-07
2.02395e-06
8.53445e-07
1.89464e-06
6.1858e-07
1.30759e-06
4.36199e-07
5.16002e-07
1.77657e-07
1.01991e-08
0
0
0
0
0
0
0
6.96058e-12
0
3.53078e-11
0
4.50312e-10
3.55966e-12
7.40618e-11
2.25107e-10
1.909e-10
5.40475e-10
0
5.12496e-11
0
6.73661e-12
4.81293e-13
4.90993e-12
0
1.23937e-12
0
3.33483e-13
0
9.1472e-14
0
2.5252e-14
2.64409e-16
5.84599e-15
5.62288e-16
1.59675e-15
6.67013e-16
1.11914e-15
6.56671e-16
1.01034e-15
5.95491e-16
8.986e-16
4.75322e-16
7.28603e-16
3.41792e-16
5.32249e-16
2.34292e-16
3.52839e-16
1.76578e-16
6.51447e-22
3.36163e-21
1.28929e-20
6.71043e-20
1.49452e-19
8.10559e-19
1.08079e-18
6.30155e-18
6.22e-18
3.68976e-17
8.16917e-17
2.02832e-16
2.40525e-15
3.6362e-15
2.16791e-14
6.12006e-14
2.92993e-13
1.06237e-13
6.09555e-11
9.91404e-11
8.02062e-11
2.07544e-10
1.23096e-11
4.81227e-11
1.1765e-11
2.09347e-11
3.20875e-11
2.99991e-11
3.68442e-10
3.53169e-11
3.79718e-09
0
8.08092e-08
0
7.40273e-07
0
1.3437e-06
2.22264e-08
1.42091e-06
1.91677e-07
1.3091e-06
1.73724e-07
9.89195e-07
1.14564e-07
4.76436e-07
2.41933e-09
1.53536e-07
0
7.12447e-09
0
6.947e-10
0
0
0
0
2.58542e-13
0
0
1.83263e-12
0
1.13233e-11
1.94255e-13
2.08914e-10
1.83577e-12
5.59337e-10
6.47921e-11
2.57853e-10
2.2888e-10
5.93858e-12
8.24684e-11
0
6.26657e-12
4.86183e-13
3.22718e-12
0
1.15739e-12
0
2.76073e-13
0
8.42509e-14
0
2.25808e-14
3.8071e-16
5.14346e-15
5.37639e-16
1.49438e-15
6.20953e-16
1.09497e-15
6.12653e-16
1.00586e-15
5.51815e-16
8.91194e-16
4.38793e-16
7.16859e-16
3.17313e-16
5.24645e-16
2.06776e-16
3.53225e-16
1.61044e-16
6.41333e-22
3.07914e-21
1.16875e-20
5.53335e-20
1.35372e-19
6.66938e-19
1.06711e-18
5.66787e-18
6.89183e-18
3.68489e-17
8.58333e-17
2.51355e-16
2.42131e-15
3.56325e-15
5.81804e-14
3.18374e-14
3.99375e-12
5.43479e-13
2.14114e-11
4.89694e-11
2.26636e-11
7.72528e-11
9.34102e-12
3.279e-11
1.58554e-11
6.81637e-11
2.51731e-11
1.98119e-10
1.16045e-10
1.2441e-10
3.49718e-10
0
1.52778e-09
0
1.00273e-08
0
2.52114e-08
0
6.37383e-08
0
6.17958e-08
0
2.7738e-08
0
7.30421e-09
0
4.12794e-09
0
8.84788e-10
0
1.37945e-10
0
0
0
0
1.09282e-14
0
3.63202e-14
6.48985e-13
1.41188e-14
3.15282e-12
2.87119e-14
6.74762e-11
2.11153e-12
1.49977e-10
3.85469e-11
7.40426e-11
1.51126e-11
3.03662e-12
8.36009e-11
0
4.26558e-12
9.97515e-14
6.09601e-13
6.09876e-15
1.07489e-12
0
2.22481e-13
0
6.99329e-14
0
1.8748e-14
4.08556e-16
4.16508e-15
5.19958e-16
1.34678e-15
5.75821e-16
1.06705e-15
5.67798e-16
9.9529e-16
5.03386e-16
8.73522e-16
3.98077e-16
6.96018e-16
2.89415e-16
5.0978e-16
1.87778e-16
3.43256e-16
1.47176e-16
5.65387e-22
2.45345e-21
9.44669e-21
4.04508e-20
1.12022e-19
5.00594e-19
9.78242e-19
4.68897e-18
7.18512e-18
3.49225e-17
7.24795e-17
2.76107e-16
1.5498e-15
3.52668e-15
7.40178e-14
1.02469e-14
1.47128e-12
1.13408e-12
9.40559e-12
8.71331e-12
9.83739e-12
4.77879e-11
4.79169e-11
1.60159e-10
1.3002e-10
1.43186e-10
1.29438e-10
3.24983e-10
4.07615e-13
9.73245e-11
3.77269e-11
1.50399e-11
1.54612e-10
0
5.38058e-10
0
1.02709e-09
0
1.39138e-09
0
1.37385e-09
0
9.17131e-10
0
4.74236e-10
0
2.49023e-10
0
7.19558e-11
0
1.40716e-11
0
2.70872e-13
0
5.36214e-14
0
7.02268e-14
1.36102e-14
2.77665e-13
2.39131e-14
2.38829e-12
8.5037e-14
7.39927e-11
1.15622e-12
1.1732e-10
1.61439e-10
2.76721e-12
1.42504e-10
6.94182e-13
5.81745e-11
3.80354e-14
2.90757e-12
5.41785e-14
4.54775e-13
1.81669e-13
6.50473e-13
0
1.73751e-13
0
4.80964e-14
0
1.39809e-14
3.25934e-16
3.05888e-15
4.62316e-16
1.20081e-15
5.22113e-16
1.02293e-15
5.20383e-16
9.72165e-16
4.51136e-16
8.44295e-16
3.55249e-16
6.67772e-16
2.59535e-16
4.90081e-16
1.66614e-16
3.28277e-16
1.30348e-16
4.33018e-22
1.68783e-21
6.96752e-21
2.74265e-20
8.59689e-20
3.53599e-19
8.24868e-19
3.58502e-18
6.96263e-18
3.07298e-17
7.11703e-17
2.76926e-16
1.17949e-15
2.78084e-15
5.57726e-14
6.70071e-15
6.55383e-13
8.03333e-13
6.28283e-12
3.61701e-12
5.39746e-11
1.87419e-10
1.24669e-10
1.53936e-10
5.84131e-11
1.22439e-10
1.82193e-10
3.63084e-10
4.17655e-11
7.25266e-11
9.79034e-12
1.73281e-11
2.89836e-11
0
4.15181e-11
0
8.57046e-11
0
1.04483e-10
0
1.03793e-10
0
7.61929e-11
0
4.33547e-11
0
2.16755e-11
0
6.16082e-12
0
1.56034e-12
0
3.40276e-14
0
8.58858e-14
0
1.89996e-13
1.80068e-14
3.24467e-13
1.07838e-14
2.0197e-12
3.39472e-14
1.22589e-10
7.61357e-12
2.11473e-10
1.55878e-10
1.44543e-10
2.25636e-10
1.34084e-12
6.82958e-11
2.95266e-13
2.84489e-12
3.50882e-14
4.96701e-13
6.00225e-14
1.25325e-13
0
1.32557e-13
0
2.77664e-14
3.27941e-17
8.93512e-15
3.07887e-16
2.00947e-15
4.34748e-16
1.09867e-15
4.69316e-16
9.95731e-16
4.65872e-16
9.35881e-16
3.9726e-16
8.05351e-16
3.13053e-16
6.3615e-16
2.29431e-16
4.68782e-16
1.442e-16
3.0992e-16
1.10879e-16
2.99418e-22
1.07582e-21
4.8481e-21
1.78828e-20
6.28021e-20
2.41904e-19
6.52468e-19
2.62323e-18
6.0867e-18
2.44247e-17
6.21216e-17
2.41601e-16
6.12155e-16
1.88042e-15
1.35215e-14
3.16506e-15
4.91038e-13
2.56985e-13
1.84598e-11
8.00928e-12
7.71134e-11
1.92198e-10
8.81343e-11
1.73107e-11
4.56037e-11
9.40627e-11
1.95316e-10
3.75254e-10
4.02692e-11
6.69581e-11
1.01639e-11
1.5101e-11
1.26737e-11
1.47721e-11
3.99294e-12
6.6156e-13
8.76299e-12
0
1.08132e-11
0
1.081e-11
0
8.89713e-12
0
4.85905e-12
0
2.14939e-12
0
5.93398e-13
0
1.52288e-13
0
2.40029e-14
0
3.87323e-14
1.22726e-14
4.38265e-14
1.1617e-14
7.75058e-14
1.39841e-14
2.56973e-13
2.19425e-14
1.12697e-10
3.13147e-12
1.96797e-10
1.37284e-10
1.99642e-10
2.41502e-10
2.07091e-12
1.11118e-10
0
3.66979e-12
1.14974e-14
5.12064e-13
5.21761e-15
8.32933e-14
1.39989e-14
8.79855e-14
0
1.79108e-14
1.35024e-16
4.76811e-15
2.98718e-16
1.27049e-15
4.07263e-16
1.00255e-15
4.19448e-16
9.72611e-16
4.03506e-16
8.92278e-16
3.44163e-16
7.62084e-16
2.73411e-16
6.05203e-16
2.00628e-16
4.48337e-16
1.20697e-16
2.87487e-16
8.88353e-17
1.96401e-22
6.6776e-22
3.27029e-21
1.14813e-20
4.46413e-20
1.63318e-19
4.94914e-19
1.87389e-18
4.84403e-18
1.79607e-17
4.98851e-17
1.79145e-16
3.15502e-16
1.27505e-15
4.18776e-15
2.22071e-15
2.41591e-13
5.31558e-14
6.14272e-12
1.84824e-11
4.24523e-11
1.58873e-10
4.12756e-11
5.50125e-12
3.86335e-11
1.35475e-10
2.00876e-10
3.74169e-10
2.08221e-11
1.23245e-10
6.87531e-11
2.44343e-10
6.56367e-12
1.62787e-11
3.05997e-14
3.34599e-13
1.00569e-12
0
1.37012e-12
0
1.37088e-12
0
1.76221e-12
0
7.73573e-13
0
2.0516e-13
0
6.80855e-14
0
3.61876e-14
0
4.52686e-14
2.85922e-15
4.24865e-14
1.37738e-14
4.11693e-14
1.17172e-14
4.05943e-14
1.33987e-14
1.24418e-13
1.84362e-14
1.82052e-11
3.46682e-13
1.62345e-10
9.42122e-11
1.74213e-10
2.48346e-10
2.90863e-12
1.60642e-10
0
4.97126e-12
0
5.37999e-13
2.17156e-16
9.06747e-14
6.19296e-15
3.70837e-14
0
1.17647e-14
1.92931e-16
2.33204e-15
3.08236e-16
1.10408e-15
3.58756e-16
9.50181e-16
3.70702e-16
9.35131e-16
3.44229e-16
8.47328e-16
2.95797e-16
7.23483e-16
2.37586e-16
5.79613e-16
1.72954e-16
4.28023e-16
9.55625e-17
2.58079e-16
6.52535e-17
1.26182e-22
4.13031e-22
2.17868e-21
7.36917e-21
3.13711e-20
1.10265e-19
3.66233e-19
1.32447e-18
3.59039e-18
1.26106e-17
3.49631e-17
1.11184e-16
2.48925e-16
9.02749e-16
2.14141e-15
3.04827e-15
7.97078e-14
1.76888e-14
1.1561e-11
1.54282e-11
3.305e-11
4.35064e-11
4.82894e-11
3.44443e-11
1.60583e-10
3.11091e-10
1.83339e-10
1.45458e-10
1.11821e-10
2.97907e-10
8.76356e-11
1.89998e-10
8.64136e-13
1.38882e-11
0
2.61278e-13
3.20719e-13
1.47822e-14
4.55056e-13
0
4.32269e-13
0
6.26502e-13
0
4.49359e-13
0
0
1.99955e-14
1.2333e-14
4.78079e-15
5.75716e-14
7.32238e-15
7.5595e-14
1.25715e-14
6.62157e-14
2.42792e-14
3.8269e-14
2.25415e-14
4.82444e-14
1.66458e-14
1.0882e-13
2.12823e-14
6.25549e-11
3.17013e-12
1.40705e-10
1.15441e-10
1.71768e-10
2.61952e-10
4.58153e-12
1.73703e-10
0
5.63537e-12
0
5.68877e-13
0
6.41167e-14
6.46148e-16
1.43016e-14
0
8.3247e-15
2.3808e-16
1.33268e-15
2.94963e-16
1.01647e-15
3.09693e-16
9.24783e-16
3.17453e-16
8.93649e-16
2.92282e-16
8.0867e-16
2.54303e-16
6.95628e-16
2.04966e-16
5.59123e-16
1.44357e-16
4.02591e-16
6.89518e-17
2.17785e-16
4.29317e-17
8.09753e-23
2.58435e-22
1.45581e-21
4.79769e-21
2.2099e-20
7.54151e-20
2.68482e-19
9.38784e-19
2.56884e-18
8.71791e-18
2.34321e-17
6.91877e-17
2.63183e-16
7.73945e-16
7.53462e-15
4.73043e-15
4.27232e-13
7.88049e-14
4.46781e-12
6.54967e-12
6.38666e-12
3.73424e-11
8.39198e-12
4.24123e-11
1.8115e-10
2.5668e-10
1.19148e-10
1.82068e-10
1.11733e-10
3.78836e-10
7.49684e-11
9.2406e-11
1.5835e-13
1.22067e-12
1.24156e-15
1.49721e-13
2.30018e-14
1.12713e-13
1.18956e-13
2.74428e-13
1.06779e-13
1.39946e-13
1.1851e-13
2.19135e-15
2.05675e-13
1.90814e-14
2.27223e-14
1.68168e-14
2.63972e-14
8.80446e-15
4.32933e-14
7.01667e-15
5.29438e-14
1.31891e-14
1.68478e-13
5.41587e-14
1.17575e-14
5.05007e-14
1.02823e-13
1.91478e-14
5.08177e-13
3.76524e-14
1.16307e-10
3.09869e-11
1.27424e-10
1.17466e-10
1.7669e-10
2.7985e-10
3.3281e-12
1.58127e-10
0
5.73843e-12
3.36789e-15
6.81042e-13
0
2.88622e-14
9.12433e-16
6.13377e-15
4.3511e-16
5.81633e-15
2.31456e-16
1.19184e-15
2.60386e-16
9.76873e-16
2.66712e-16
9.11092e-16
2.69614e-16
8.68386e-16
2.49261e-16
7.8954e-16
2.18102e-16
6.78078e-16
1.72677e-16
5.37035e-16
1.13006e-16
3.63136e-16
4.32825e-17
1.66179e-16
2.45761e-17
5.28106e-23
1.66268e-22
9.91176e-22
3.21643e-21
1.58142e-20
5.28741e-20
1.98113e-19
6.76837e-19
1.83924e-18
6.14098e-18
1.67898e-17
4.52223e-17
2.63472e-16
7.64209e-16
4.24841e-15
7.68134e-15
1.32639e-13
1.78351e-14
5.45594e-12
3.25845e-12
3.78977e-11
2.19437e-10
6.64465e-11
4.06756e-10
1.7265e-10
2.65291e-10
1.1267e-10
2.29409e-10
2.00576e-10
3.3104e-10
1.88744e-12
1.7458e-11
4.84483e-13
4.83374e-13
3.8241e-13
8.96168e-14
3.48104e-13
7.36296e-14
2.41722e-13
1.88723e-13
2.191e-13
1.53876e-13
2.08958e-14
2.4888e-14
2.88694e-14
3.12707e-15
4.07784e-14
7.9252e-15
2.65114e-14
6.31663e-15
4.93615e-14
8.32629e-15
7.79702e-14
8.74316e-15
1.99482e-13
4.22152e-14
2.64372e-13
5.58108e-14
5.66322e-13
3.32111e-14
3.09384e-11
2.91816e-12
1.63682e-10
6.55432e-11
1.16668e-10
7.42053e-11
1.53516e-10
2.77542e-10
0
9.55155e-11
0
4.02892e-12
1.37479e-15
7.38446e-13
0
2.1132e-14
5.21335e-16
3.54598e-15
7.62953e-16
3.04378e-15
2.08218e-16
1.14924e-15
2.23952e-16
9.58093e-16
2.286e-16
9.04674e-16
2.30061e-16
8.59896e-16
2.13926e-16
7.8639e-16
1.83361e-16
6.62633e-16
1.38421e-16
5.01907e-16
7.93212e-17
3.01781e-16
2.26122e-17
1.10059e-16
1.19847e-17
3.55946e-23
1.11632e-22
6.96973e-22
2.2435e-21
1.16119e-20
3.82512e-20
1.49214e-19
5.01744e-19
1.35893e-18
4.52596e-18
1.28405e-17
3.16922e-17
2.73113e-16
7.61243e-16
2.38662e-15
8.58331e-15
1.79229e-14
1.37142e-14
2.77411e-11
3.00608e-12
1.56167e-10
2.93537e-10
1.89934e-10
1.56711e-10
1.95897e-10
3.12665e-10
1.88546e-10
4.66277e-10
1.94034e-10
3.12955e-10
6.6563e-13
1.36602e-11
5.40998e-14
2.84026e-13
2.58917e-13
4.79469e-14
4.04708e-13
2.51008e-14
4.29516e-13
1.43957e-13
4.79292e-13
1.53566e-13
2.78555e-14
3.63511e-14
2.00839e-14
8.06769e-15
2.49798e-14
6.84361e-15
2.93458e-14
6.547e-15
4.50067e-14
9.45776e-15
8.06862e-14
7.97017e-15
1.32265e-13
1.89015e-14
3.32841e-13
6.65244e-14
1.69995e-12
6.25525e-14
6.13625e-11
1.69235e-11
1.07615e-10
6.80491e-11
5.81191e-11
4.65354e-13
5.4627e-11
2.37332e-11
0
1.72547e-11
0
1.80281e-12
2.19166e-15
6.11578e-13
5.25241e-16
1.50832e-14
1.88768e-16
2.446e-15
2.85125e-16
1.269e-15
1.82545e-16
1.0259e-15
1.90158e-16
9.48428e-16
1.93679e-16
9.00595e-16
1.95044e-16
8.55346e-16
1.82704e-16
7.86817e-16
1.48186e-16
6.37943e-16
1.01524e-16
4.39537e-16
4.74464e-17
2.20937e-16
9.58141e-18
6.14505e-17
5.03126e-18
2.50845e-23
7.87471e-23
5.09216e-22
1.62953e-21
8.77697e-21
2.85187e-20
1.1574e-19
3.84258e-19
1.05414e-18
3.52126e-18
1.02467e-17
2.36733e-17
2.73539e-16
6.86229e-16
3.43555e-15
9.02026e-15
2.25002e-14
1.19545e-14
3.63569e-12
1.5599e-11
9.05328e-11
3.08966e-10
9.37609e-11
9.30752e-12
1.78756e-10
3.83344e-10
1.96621e-10
4.955e-10
2.36665e-10
3.0458e-10
0
8.69725e-12
0
1.97026e-13
1.77901e-13
1.55546e-13
2.90709e-13
1.24474e-13
3.03898e-13
2.16396e-13
8.10996e-14
3.10109e-14
2.48789e-14
5.15296e-15
2.42373e-14
7.02941e-15
2.57646e-14
6.73728e-15
2.86652e-14
7.49628e-15
3.67801e-14
8.71269e-15
4.61248e-14
1.02762e-14
8.36527e-14
2.93143e-15
2.5171e-13
1.58295e-14
1.42635e-12
7.10394e-14
3.98823e-11
3.31179e-11
4.98527e-11
7.05335e-11
2.25856e-12
2.79375e-11
3.76379e-12
1.60924e-12
9.39981e-13
7.0468e-13
0
7.35874e-13
2.72733e-15
4.13001e-13
0
1.04408e-14
1.1171e-16
2.52681e-15
1.45924e-16
1.05079e-15
1.53742e-16
9.85846e-16
1.58064e-16
9.43248e-16
1.61396e-16
8.96775e-16
1.62564e-16
8.50905e-16
1.53308e-16
7.85317e-16
1.11432e-16
5.85813e-16
6.46304e-17
3.43978e-16
2.33441e-17
1.37879e-16
3.32177e-18
2.88828e-17
1.91293e-18
1.85136e-23
5.81107e-23
3.85402e-22
1.22299e-21
6.80349e-21
2.17719e-20
9.27044e-20
3.03707e-19
8.6163e-19
2.88161e-18
8.61858e-18
1.87759e-17
2.74279e-16
6.27866e-16
3.71193e-15
9.0147e-15
2.15576e-14
1.23543e-14
2.4102e-11
1.36125e-11
8.58712e-11
1.21189e-10
7.97763e-11
2.30456e-11
1.53237e-10
3.87827e-10
2.32209e-10
4.96675e-10
1.68806e-10
2.09551e-10
0
3.33479e-12
6.36468e-13
3.90427e-13
1.54501e-13
3.29035e-12
6.73205e-14
1.1435e-12
4.26517e-14
9.90646e-13
2.71006e-14
4.61938e-14
2.56081e-14
1.1406e-14
2.44294e-14
7.95053e-15
2.46575e-14
6.20913e-15
3.17338e-14
7.24252e-15
3.26627e-14
8.92719e-15
2.70652e-14
8.21447e-15
3.99259e-14
6.63274e-15
1.02546e-13
9.60032e-15
2.75329e-12
9.9408e-14
4.07636e-11
4.38333e-11
5.05396e-11
7.8639e-11
1.344e-12
7.61205e-11
8.85213e-14
2.51369e-12
2.61538e-14
1.22638e-13
9.83953e-15
5.99295e-14
5.83983e-15
2.7692e-14
0
6.06383e-15
1.35395e-16
3.58144e-15
1.12383e-16
1.04358e-15
1.2331e-16
9.74436e-16
1.28503e-16
9.38493e-16
1.31928e-16
8.92757e-16
1.32525e-16
8.46191e-16
1.2295e-16
7.65033e-16
7.37724e-17
4.87558e-16
3.4302e-17
2.31823e-16
9.42538e-18
7.29506e-17
9.82237e-19
1.17354e-17
6.94552e-19
1.41876e-23
4.42664e-23
2.99e-22
9.34862e-22
5.37785e-21
1.6909e-20
7.6416e-20
2.46226e-19
7.387e-19
2.45592e-18
7.4443e-18
1.62684e-17
2.61831e-16
5.73954e-16
3.63867e-15
8.05101e-15
2.57387e-14
1.17421e-14
6.85664e-12
1.78449e-11
2.5878e-11
0
6.76862e-11
2.00727e-11
1.35307e-10
2.78416e-10
2.48762e-10
5.11439e-10
3.54862e-11
6.116e-11
6.54575e-12
3.82677e-12
6.80041e-12
2.64032e-12
3.54748e-10
2.95719e-10
3.0253e-10
2.03896e-10
1.38572e-12
8.60085e-11
9.11554e-15
1.37313e-12
2.38356e-14
2.39784e-14
2.4005e-14
7.11254e-15
2.46969e-14
5.60661e-15
2.95616e-14
6.29427e-15
3.12198e-14
8.21944e-15
2.03574e-14
7.38112e-15
4.28462e-14
9.72391e-15
8.40042e-14
1.23874e-14
7.43423e-12
2.66678e-13
4.02078e-11
4.58125e-11
4.89431e-11
8.73602e-11
1.14387e-11
8.09365e-11
6.44441e-14
2.42734e-12
0
1.62604e-13
2.79693e-15
1.51203e-13
0
3.88973e-15
1.03285e-16
2.65247e-15
2.73794e-16
3.99042e-15
8.65161e-17
1.04891e-15
9.68365e-17
9.67977e-16
1.02316e-16
9.34448e-16
1.0542e-16
8.88435e-16
1.05483e-16
8.40088e-16
8.79316e-17
6.85106e-16
4.07709e-17
3.49924e-16
1.51441e-17
1.33752e-16
3.19852e-18
3.33718e-17
2.5864e-19
4.26582e-18
2.39584e-19
1.11048e-23
3.41076e-23
2.33765e-22
7.14541e-22
4.3075e-21
1.326e-20
6.43043e-20
2.02898e-19
6.58547e-19
2.14912e-18
5.98791e-18
1.55655e-17
2.64064e-16
4.18391e-16
1.09617e-14
3.5753e-15
4.96496e-13
8.65844e-14
6.55519e-12
1.71635e-11
8.78878e-12
0
3.6832e-11
2.01772e-11
1.23042e-10
1.30899e-10
2.30183e-10
4.78454e-10
5.32621e-11
6.27467e-11
2.81292e-11
5.60602e-12
5.08641e-10
2.2036e-10
7.27902e-10
2.98956e-10
6.34882e-10
3.28687e-10
9.11544e-11
2.72675e-10
3.56666e-13
1.64663e-11
2.83841e-14
1.75522e-13
2.46542e-14
1.04728e-14
2.5225e-14
5.28762e-15
2.51568e-14
5.48705e-15
2.6177e-14
6.18267e-15
2.32018e-14
1.1287e-14
2.66286e-14
1.08652e-14
4.838e-14
1.45395e-14
7.45639e-12
3.00808e-13
3.60666e-11
4.47758e-11
4.44847e-11
9.63986e-11
4.28541e-12
4.3727e-11
0
1.28475e-12
0
1.11423e-13
1.02959e-14
1.99532e-13
0
4.84002e-15
9.87055e-17
1.33876e-15
2.4003e-16
3.71568e-15
6.2278e-17
1.03644e-15
7.45961e-17
9.64837e-16
7.97111e-17
9.30475e-16
8.19555e-17
8.83573e-16
7.99645e-17
8.11341e-16
5.0455e-17
5.20964e-16
1.87742e-17
2.13532e-16
5.71439e-18
6.75837e-17
9.33707e-19
1.35294e-17
6.17935e-20
1.41789e-18
7.63843e-20
8.65917e-24
2.58024e-23
1.81235e-22
5.41964e-22
3.46377e-21
1.03986e-20
5.47018e-20
1.68313e-19
5.99075e-19
1.89823e-18
5.22266e-18
1.54135e-17
1.93254e-16
3.56775e-16
1.40992e-14
1.52468e-15
7.91504e-13
1.34462e-13
5.10519e-12
1.55814e-11
3.83844e-12
1.20592e-11
2.19284e-11
7.7708e-11
1.04614e-10
1.42613e-10
2.01666e-10
4.30334e-10
7.42422e-11
9.93605e-11
2.972e-10
3.09281e-11
7.49568e-10
4.22741e-10
7.32321e-10
2.80544e-10
6.65923e-10
3.42303e-10
5.60402e-10
2.86775e-10
2.73855e-12
3.44315e-11
0
4.59295e-13
2.52431e-14
2.0041e-14
2.59219e-14
5.50265e-15
2.46884e-14
5.5147e-15
2.4481e-14
6.57326e-15
2.41094e-14
1.21751e-14
2.34656e-14
1.25111e-14
5.33355e-14
1.90076e-14
3.79041e-12
1.78952e-13
3.32693e-11
4.8744e-11
3.74914e-11
1.03939e-10
0
7.21351e-12
0
3.13268e-13
0
3.75527e-14
1.48167e-14
2.18864e-13
0
4.15546e-15
5.46888e-17
1.21507e-15
1.23854e-16
1.92146e-15
5.31985e-17
1.00448e-15
5.60934e-17
9.57871e-16
6.03909e-17
9.26307e-16
6.18411e-17
8.75842e-16
5.13993e-17
6.90935e-16
2.28137e-17
3.28511e-16
7.46324e-18
1.14256e-16
1.87389e-18
3.06078e-17
2.35801e-19
4.9319e-18
1.33067e-20
4.33708e-19
2.21674e-20
6.49426e-24
1.86506e-23
1.41499e-22
4.3278e-22
2.77241e-21
8.19139e-21
4.65866e-20
1.39453e-19
5.4652e-19
1.6727e-18
5.23997e-18
1.54173e-17
1.47171e-16
3.41132e-16
7.72142e-15
1.09392e-15
4.19018e-13
8.50388e-14
3.32661e-12
4.60155e-12
2.43522e-12
8.26825e-12
7.96653e-11
3.25466e-10
1.10491e-10
2.82063e-10
1.28448e-10
8.09806e-10
9.95764e-11
2.1673e-10
4.11417e-10
2.0201e-10
7.69246e-10
2.77544e-10
7.85638e-10
2.47557e-10
7.47439e-10
3.07866e-10
7.38308e-10
2.57033e-10
2.12861e-12
1.56451e-11
0
3.02931e-13
1.51143e-14
1.6916e-14
2.77561e-14
5.49042e-15
2.80438e-14
5.70526e-15
3.33898e-14
7.57867e-15
4.94725e-14
3.54217e-14
2.36874e-14
7.52022e-14
5.53845e-14
4.88232e-14
3.34645e-12
1.7199e-13
3.90747e-11
5.79041e-11
2.98199e-11
1.08645e-10
0
3.28342e-12
0
9.08533e-14
1.25338e-15
7.45933e-15
3.70759e-15
3.91575e-15
0
1.91677e-15
3.79111e-17
1.17652e-15
4.79405e-17
1.12704e-15
3.69842e-17
9.93039e-16
4.12776e-17
9.58103e-16
4.40017e-17
9.2007e-16
4.24764e-17
8.15446e-16
2.48404e-17
4.74946e-16
8.7631e-18
1.79227e-16
2.63049e-18
5.56949e-17
5.28583e-19
1.2508e-17
5.12556e-20
1.62994e-18
2.51826e-21
1.22777e-19
5.86448e-21
4.77216e-24
1.43565e-23
1.24061e-22
4.10262e-22
2.2763e-21
6.95528e-21
3.95099e-20
1.15443e-19
4.96696e-19
1.46857e-18
5.43782e-18
1.55282e-17
1.19031e-16
3.31262e-16
2.8645e-15
1.20639e-15
1.37419e-13
1.98149e-14
4.70664e-12
1.29788e-12
7.18358e-11
1.43715e-10
2.19394e-10
2.30565e-10
2.94423e-10
9.81194e-10
4.41015e-10
6.80789e-10
3.0989e-10
2.34922e-10
9.72384e-10
7.19463e-10
9.43789e-10
1.55916e-10
8.02756e-10
2.02093e-10
7.92899e-10
2.38963e-10
2.49232e-11
0
0
0
0
2.32235e-14
2.72828e-14
6.21051e-15
2.63113e-14
5.09087e-15
2.75886e-14
6.27356e-15
2.64514e-14
8.29474e-15
7.37943e-13
8.17737e-14
2.00998e-12
1.08323e-12
1.42958e-12
3.08071e-13
1.2969e-11
5.44723e-12
2.35311e-11
8.46702e-11
1.36563e-11
9.98957e-11
0
2.43575e-12
0
4.22965e-14
1.00788e-16
3.11189e-15
2.85244e-16
1.29936e-15
2.76414e-17
1.76735e-15
2.41666e-17
1.16325e-15
2.46919e-17
1.06925e-15
2.54746e-17
9.87915e-16
2.85973e-17
9.55709e-16
3.02315e-17
8.95176e-16
2.27416e-17
6.31002e-16
9.43475e-18
2.70088e-16
3.09469e-18
9.00353e-17
8.39922e-19
2.49953e-17
1.33948e-19
4.60724e-18
1.06993e-20
4.94169e-19
4.9392e-22
3.27651e-20
1.45947e-21
4.23071e-24
1.37771e-23
1.28934e-22
4.29368e-22
2.09255e-21
6.73708e-21
3.35356e-20
9.7588e-20
4.49649e-19
1.29227e-18
5.45766e-18
1.50207e-17
1.07115e-16
3.05362e-16
1.01036e-15
1.2391e-15
3.13944e-14
4.3182e-15
4.68648e-12
3.56202e-13
9.16316e-11
8.61734e-11
1.83842e-10
7.94973e-11
4.03222e-10
7.79007e-10
5.60347e-10
5.58361e-10
6.57815e-10
2.33893e-10
9.34105e-10
4.77689e-10
9.09085e-10
2.13999e-10
5.70439e-10
1.02018e-10
3.75747e-11
0
0
0
2.81668e-14
0
2.56893e-14
1.36173e-14
2.86747e-14
6.08729e-15
2.70464e-14
5.80337e-15
2.64109e-14
7.26296e-15
2.80685e-14
9.47651e-15
4.01125e-13
2.05194e-13
3.29143e-12
1.53994e-12
4.39279e-12
5.76604e-13
7.76295e-12
1.04145e-11
3.13141e-11
9.35541e-11
1.68816e-11
1.08346e-10
0
2.7483e-12
1.05623e-16
3.11088e-14
6.09349e-17
2.69435e-15
5.88312e-17
1.5891e-15
2.14275e-17
1.74096e-15
1.35868e-17
1.15809e-15
1.38746e-17
1.06473e-15
1.53676e-17
9.82762e-16
1.7433e-17
9.46203e-16
1.62732e-17
7.69819e-16