/*--------------------------------*- C++ -*----------------------------------*\
  =========                 |
  \\      /  F ield         | OpenFOAM: The Open Source CFD Toolbox
   \\    /   O peration     | Website:  https://openfoam.org
    \\  /    A nd           | Version:  9
     \\/     M anipulation  |
\*---------------------------------------------------------------------------*/
FoamFile
{
    format      ascii;
    class       volScalarField;
    location    "0.12";
    object      alpha.water;
}
// * * * * * * * * * * * * * * * * * * * * * * * * * * * * * * * * * * * * * //

dimensions      [0 0 0 0 0 0 0];

internalField   nonuniform List<scalar> 
5000
(
1.68749e-18
7.9189e-17
1.99692e-15
3.84697e-14
3.5811e-13
3.16896e-12
5.8332e-11
1.4616e-09
4.71181e-08
7.58469e-07
2.18316e-05
3.20906e-05
0.000328931
0.686161
0.999897
0.999994
1
1
1
1
1
1
1
1
1
1
1
0.999996
0.999996
0.8427
0.112508
0.000505451
0.000322014
6.24886e-05
9.69391e-06
2.27088e-06
5.77049e-07
1.48618e-07
4.04848e-08
1.16061e-08
3.39581e-09
9.47678e-10
3.85729e-10
2.49526e-10
1.79703e-10
1.27864e-10
8.51439e-11
5.20373e-11
3.14582e-11
1.24263e-11
1.20073e-18
7.19863e-17
2.27668e-15
2.86802e-14
2.59795e-13
2.2653e-12
3.94495e-11
8.29378e-10
1.28996e-08
7.62973e-07
4.37752e-05
3.09815e-05
3.7283e-05
0.602162
0.999824
0.999995
1
1
1
1
1
1
1
1
1
1
1
1
1
0.776965
0.0577547
0.00043989
0.000339465
0.000100243
1.14376e-05
2.44686e-06
6.32921e-07
1.68724e-07
4.50032e-08
1.28104e-08
3.85361e-09
1.05966e-09
4.15317e-10
2.7791e-10
2.12004e-10
1.60901e-10
1.14312e-10
7.46061e-11
4.75163e-11
2.02167e-11
6.48216e-19
1.4153e-16
4.94071e-15
4.10985e-14
2.03393e-13
1.50508e-12
2.20053e-11
2.59205e-10
2.54596e-10
9.12738e-07
4.0003e-05
1.51612e-05
2.35131e-05
0.449466
0.997067
0.999993
0.999999
1
1
1
1
1
1
1
1
1
1
1
0.999992
0.585684
0.00738558
0.000357399
0.000259747
0.000107603
1.33883e-05
2.81643e-06
6.60461e-07
1.8034e-07
4.82406e-08
1.33723e-08
3.89408e-09
1.0978e-09
4.2528e-10
2.95738e-10
2.39051e-10
1.91588e-10
1.43402e-10
9.85969e-11
6.53942e-11
2.92549e-11
1.8251e-18
4.74716e-16
1.2643e-14
8.20771e-14
2.54744e-13
9.17058e-13
1.04507e-11
3.48125e-11
1.00243e-10
2.90571e-06
8.08742e-06
9.34748e-06
1.36431e-05
0.265723
0.972368
0.999989
1
1
1
1
1
1
1
1
1
1
0.999998
0.999998
0.961476
0.286323
0.000580001
0.000218088
0.000171474
9.38012e-05
1.46182e-05
3.30897e-06
6.91444e-07
1.78622e-07
5.05971e-08
1.38718e-08
3.90551e-09
1.0757e-09
4.12529e-10
2.95568e-10
2.54211e-10
2.14246e-10
1.6805e-10
1.20598e-10
8.26903e-11
3.83013e-11
7.87911e-18
1.35811e-15
2.73395e-14
1.58363e-13
3.99658e-13
8.44175e-13
8.89306e-12
9.51103e-12
3.29063e-08
3.51476e-06
1.44341e-06
2.67696e-05
2.5063e-05
0.0764788
0.891152
0.999958
0.999998
1
1
1
1
1
1
1
1
0.999999
0.999996
0.999993
0.711725
0.0497149
0.000406926
0.000288646
0.000257909
7.07222e-05
1.49872e-05
3.44592e-06
8.12351e-07
1.78265e-07
5.02853e-08
1.43637e-08
4.04037e-09
1.01341e-09
3.72378e-10
2.88985e-10
2.6127e-10
2.28577e-10
1.85704e-10
1.37979e-10
9.71518e-11
4.61218e-11
3.67991e-17
2.8667e-15
4.65931e-14
2.65823e-13
6.66045e-13
1.04131e-12
1.65056e-11
1.50946e-11
1.01629e-07
1.06241e-06
1.1522e-06
5.88008e-05
2.83e-05
4.63255e-05
0.606137
0.999641
0.999995
1
1
1
1
1
1
0.999999
0.999999
0.999995
0.999994
0.883286
0.213252
0.000844971
0.000685001
0.000678361
0.000301138
3.35592e-05
1.42038e-05
3.92923e-06
8.41765e-07
2.01895e-07
4.999e-08
1.46457e-08
4.23534e-09
9.88062e-10
3.31289e-10
2.76243e-10
2.61708e-10
2.36872e-10
1.97868e-10
1.50476e-10
1.0746e-10
5.19844e-11
1.09768e-16
4.46528e-15
6.16252e-14
3.71725e-13
1.06632e-12
1.67473e-12
4.76061e-11
1.0227e-10
9.70155e-08
4.03172e-07
3.04568e-05
6.57283e-05
1.15292e-05
1.68843e-05
0.145078
0.862258
0.999933
0.999998
1
0.999994
0.999991
0.999979
0.999968
0.999995
0.999992
0.999994
0.920359
0.313483
0.001162
0.000188683
0.000648307
0.000704141
0.000364019
7.89539e-06
6.78442e-06
5.42088e-06
9.7372e-07
2.31592e-07
5.31878e-08
1.51704e-08
4.51552e-09
1.01879e-09
3.02739e-10
2.68075e-10
2.61759e-10
2.43078e-10
2.06514e-10
1.58666e-10
1.13526e-10
5.61926e-11
1.96538e-16
5.20351e-15
6.46315e-14
4.29642e-13
1.57235e-12
3.53176e-12
8.59102e-11
2.07293e-09
1.57742e-08
1.58845e-06
5.47107e-05
5.59742e-05
7.67225e-06
8.75968e-06
5.13726e-05
0.326126
0.929855
0.999963
0.999998
0.999994
0.999991
0.999989
0.999992
0.999995
0.999992
0.853426
0.298415
0.00248305
0.000105596
2.49889e-05
6.58602e-05
0.000402097
0.000399311
9.94744e-05
4.08256e-06
3.89851e-06
1.07194e-06
2.17471e-07
6.18278e-08
1.60204e-08
4.76616e-09
1.07019e-09
2.87237e-10
2.65641e-10
2.62725e-10
2.48665e-10
2.14259e-10
1.64495e-10
1.14709e-10
6.00561e-11
2.4082e-16
5.16679e-15
6.29317e-14
4.38617e-13
2.0703e-12
6.91315e-12
1.62882e-10
4.26129e-09
4.27617e-09
4.03832e-06
5.35254e-05
1.26035e-05
5.00232e-06
1.18104e-05
5.10405e-05
0.00163272
0.33331
0.840147
0.999962
0.999993
0.999991
0.99999
0.993542
0.88901
0.621062
0.178222
0.00208623
0.000155408
1.88286e-05
3.20073e-06
2.67604e-06
2.36343e-05
0.000373907
0.000293001
7.40114e-06
1.4378e-06
1.26416e-06
2.4114e-07
6.16128e-08
1.63334e-08
4.70742e-09
1.06153e-09
2.76651e-10
2.64614e-10
2.63321e-10
2.5001e-10
2.15027e-10
1.65854e-10
1.15483e-10
5.93954e-11
2.43201e-16
4.90744e-15
5.8382e-14
4.27491e-13
2.36849e-12
1.0806e-11
2.19587e-10
4.26831e-09
3.81559e-09
6.19662e-06
5.16744e-05
4.8299e-06
4.88314e-06
4.99169e-06
1.62503e-05
0.000279126
0.00188114
0.150732
0.425664
0.620022
0.641526
0.581844
0.394914
0.200398
0.0327415
0.00164611
0.000328804
2.38127e-05
2.78502e-06
4.65471e-07
1.54008e-06
1.42978e-06
0.000222757
0.000274249
2.05326e-05
1.04618e-06
1.17732e-06
2.35721e-07
5.54147e-08
1.61792e-08
4.46905e-09
9.98578e-10
2.7339e-10
2.63924e-10
2.63194e-10
2.49155e-10
2.13158e-10
1.64511e-10
1.15952e-10
5.61744e-11
2.31639e-16
4.28611e-15
5.03477e-14
3.97681e-13
2.40895e-12
1.4461e-11
2.25797e-10
2.84348e-09
9.44674e-09
7.65208e-06
6.53973e-06
4.38387e-06
7.02405e-06
6.30671e-06
2.11402e-05
5.17818e-05
0.000282926
0.0011832
0.00385541
0.0222159
0.0260374
0.0160585
0.00281137
0.00145065
0.000581299
0.000207968
4.75593e-05
3.54454e-06
5.09213e-07
1.38917e-07
2.27872e-07
1.16027e-06
6.65662e-05
6.77401e-05
3.14185e-05
5.06861e-07
4.66164e-07
2.62423e-07
4.59377e-08
1.51415e-08
3.97971e-09
8.63336e-10
2.68506e-10
2.61265e-10
2.62365e-10
2.46288e-10
2.0875e-10
1.6114e-10
1.14242e-10
5.1659e-11
1.98327e-16
3.33328e-15
3.96567e-14
3.44382e-13
2.34051e-12
1.72923e-11
2.28969e-10
4.38221e-10
6.26012e-08
2.32222e-06
2.46842e-06
5.85931e-06
2.40911e-05
0.000106193
3.85201e-05
1.17044e-05
3.94099e-05
0.000132532
0.000285815
0.000405443
0.000421657
0.000363698
0.000255015
0.000148247
6.17082e-05
1.97623e-05
3.49552e-06
5.08712e-07
3.23852e-07
9.4365e-08
7.03715e-08
1.00125e-07
8.1508e-05
5.08289e-05
1.9849e-05
2.56802e-07
1.85628e-07
2.58184e-07
3.98008e-08
1.20969e-08
3.2867e-09
6.81633e-10
2.59349e-10
2.54858e-10
2.58849e-10
2.40483e-10
2.01818e-10
1.55938e-10
1.10445e-10
4.64905e-11
1.47198e-16
2.3597e-15
2.90016e-14
2.74756e-13
2.14903e-12
1.80482e-11
2.02951e-10
1.97053e-10
6.78989e-08
6.91741e-08
5.88184e-06
2.744e-05
3.25899e-05
0.000109355
3.67971e-05
8.00569e-06
1.21156e-05
1.51572e-05
3.00479e-05
4.30751e-05
4.43262e-05
3.812e-05
2.59819e-05
1.50303e-05
5.65902e-06
1.97196e-06
4.53279e-07
5.25629e-08
8.96233e-08
7.32503e-08
2.34245e-08
5.26396e-06
0.000102888
0.00010486
2.05911e-05
1.62195e-07
1.09959e-07
1.22147e-07
3.31315e-08
7.42147e-09
2.422e-09
4.89768e-10
2.49473e-10
2.49164e-10
2.51993e-10
2.31555e-10
1.9321e-10
1.49706e-10
1.05256e-10
4.03927e-11
9.8097e-17
1.57569e-15
2.02453e-14
2.06713e-13
1.80549e-12
1.67708e-11
1.5004e-10
1.76638e-10
9.90339e-09
2.43627e-07
1.63217e-05
2.04358e-05
2.47343e-05
0.000109355
2.27494e-05
8.04051e-06
1.004e-05
2.09911e-06
3.28493e-06
4.62755e-06
4.75418e-06
4.35423e-06
2.98031e-06
1.61826e-06
6.04288e-07
2.04011e-07
4.62195e-08
1.84659e-08
1.73837e-08
1.86383e-08
2.25502e-08
8.49988e-08
0.000102409
0.00010486
2.84669e-05
1.39615e-07
8.92282e-08
2.81356e-08
2.89753e-08
4.86466e-09
1.4496e-09
2.88502e-10
2.38818e-10
2.45739e-10
2.42443e-10
2.20178e-10
1.83968e-10
1.43431e-10
9.88598e-11
3.33285e-11
6.20047e-17
1.0228e-15
1.38076e-14
1.50204e-13
1.39028e-12
1.36891e-11
1.03537e-10
1.04535e-10
1.45124e-10
1.12394e-06
1.61003e-05
6.24953e-06
1.78621e-05
0.000109355
2.35929e-05
4.91533e-05
1.44315e-05
4.21572e-07
4.54664e-07
5.89094e-07
5.77283e-07
8.15051e-07
5.5754e-07
2.24723e-07
7.4758e-08
3.17195e-08
1.87276e-08
1.73837e-08
1.73837e-08
1.73837e-08
1.7394e-08
1.83806e-08
6.55323e-05
0.00010486
4.06516e-05
1.33317e-07
7.2342e-08
2.07547e-08
1.77359e-08
3.04733e-09
7.25034e-10
2.30784e-10
2.28019e-10
2.39248e-10
2.31269e-10
2.08688e-10
1.7568e-10
1.37489e-10
9.061e-11
2.54303e-11
3.85182e-17
6.57883e-16
9.34703e-15
1.07173e-13
1.00582e-12
9.26604e-12
7.07947e-11
1.61142e-10
1.8014e-10
1.22346e-06
9.48929e-06
3.74315e-06
3.55969e-05
5.32977e-05
5.60213e-05
0.000102474
1.3924e-05
1.73839e-07
1.68632e-07
1.9589e-07
1.62375e-07
2.61301e-07
2.99938e-07
7.77373e-08
1.96476e-08
1.33315e-08
1.89321e-08
3.66928e-08
1.77593e-08
1.7394e-08
1.84497e-08
3.68322e-08
5.87965e-05
0.000104081
5.44793e-05
1.96947e-07
5.78679e-08
1.43756e-08
7.65092e-09
2.10705e-09
2.97129e-10
2.22299e-10
2.22083e-10
2.29569e-10
2.19997e-10
1.99312e-10
1.69303e-10
1.30823e-10
7.92057e-11
1.74751e-11
2.39806e-17
4.2575e-16
6.36573e-15
7.61176e-14
7.03954e-13
5.83534e-12
5.27105e-11
2.14469e-10
2.47737e-10
9.24384e-07
9.09268e-07
1.6237e-06
4.76823e-05
4.58502e-05
0.000124952
0.000106207
3.23948e-06
1.48131e-07
1.45663e-07
1.57464e-07
9.86347e-08
4.63381e-08
1.06757e-07
6.80511e-08
1.43753e-08
1.21447e-08
2.19297e-08
7.14736e-08
2.8918e-08
1.78495e-08
1.8851e-08
8.37191e-06
6.77026e-05
0.000103093
5.45308e-05
1.93832e-07
7.65058e-08
4.05274e-09
3.17042e-09
1.67237e-09
2.36115e-10
2.18343e-10
2.18356e-10
2.21156e-10
2.12022e-10
1.93367e-10
1.63615e-10
1.21025e-10
6.38085e-11
1.04651e-11
1.52149e-17
2.81576e-16
4.41893e-15
5.45977e-14
4.92852e-13
3.72554e-12
5.04459e-11
3.97595e-10
3.75899e-10
3.1051e-07
3.83207e-06
2.10104e-05
4.75386e-05
4.59439e-05
0.000126422
5.28397e-05
1.72755e-07
1.45816e-07
1.45561e-07
2.21492e-07
2.13165e-07
3.33053e-08
1.24784e-08
1.859e-08
1.67031e-08
1.17351e-08
1.57284e-08
7.15333e-08
6.97612e-08
2.20762e-08
4.9516e-07
2.42127e-05
6.13316e-05
0.000102893
4.34244e-05
1.7355e-07
1.11834e-07
1.49111e-09
8.69817e-10
1.07028e-09
2.53402e-10
2.16734e-10
2.16654e-10
2.17703e-10
2.09579e-10
1.89463e-10
1.55698e-10
1.05283e-10
4.54793e-11
5.27488e-12
1.00029e-17
1.92922e-16
3.15742e-15
4.0065e-14
3.56503e-13
2.52695e-12
5.06472e-11
5.33303e-10
5.86371e-10
8.56175e-09
2.48855e-05
4.23205e-05
4.57245e-05
8.66452e-05
0.000127115
2.27586e-05
1.54345e-07
1.42972e-07
1.485e-07
2.26721e-07
2.26184e-07
6.1596e-08
1.13431e-08
1.12129e-08
1.14643e-08
1.15232e-08
1.17351e-08
5.9454e-08
7.55164e-08
2.62574e-08
5.59752e-06
3.32411e-05
2.52039e-05
6.77942e-05
1.95002e-05
1.9771e-07
1.31836e-07
8.6566e-10
4.63448e-10
4.35454e-10
2.32472e-10
2.16135e-10
2.16155e-10
2.16834e-10
2.10103e-10
1.84648e-10
1.41601e-10
8.2539e-11
2.76241e-11
2.20503e-12
6.89426e-18
1.37729e-16
2.32845e-15
3.0317e-14
2.71241e-13
1.83252e-12
4.76283e-11
5.66634e-10
5.64315e-10
1.03356e-06
2.59188e-05
1.13647e-05
4.94805e-05
0.000126924
0.00012683
1.22956e-05
1.52592e-07
1.33648e-07
1.18896e-07
1.90477e-07
1.22991e-07
2.38706e-08
1.12129e-08
1.11878e-08
1.12129e-08
1.40299e-08
1.24332e-08
1.43855e-08
5.07254e-08
3.32304e-08
1.38326e-05
3.46101e-05
8.12679e-06
2.55797e-06
1.7923e-06
2.2688e-07
1.26227e-07
8.00404e-10
4.25292e-10
2.27298e-10
2.17029e-10
2.15968e-10
2.16021e-10
2.16416e-10
2.11074e-10
1.74734e-10
1.17938e-10
5.60256e-11
1.40374e-11
7.94177e-13
4.98816e-18
1.02104e-16
1.76421e-15
2.37043e-14
2.17625e-13
1.40915e-12
4.36908e-11
6.18913e-10
6.12282e-10
8.13133e-07
2.59188e-05
2.62513e-06
6.59157e-05
0.000126489
0.000126896
3.85009e-06
1.82476e-07
3.14211e-08
2.15816e-08
1.53301e-08
1.44498e-08
1.43836e-08
1.11877e-08
1.11878e-08
1.42403e-08
1.45701e-08
1.45545e-08
1.26962e-08
1.22796e-08
1.35146e-08
1.99218e-05
3.47406e-05
1.52209e-05
4.0241e-07
8.39986e-08
8.1013e-08
5.28373e-08
1.02772e-09
5.92753e-10
2.14861e-10
2.13067e-10
2.15608e-10
2.15967e-10
2.16008e-10
2.09152e-10
1.53982e-10
8.61417e-11
3.22499e-11
6.03505e-12
2.7358e-13
3.75491e-18
7.77368e-17
1.36486e-15
1.9082e-14
1.82904e-13
1.1581e-12
4.08556e-11
5.95244e-10
5.20559e-10
9.46173e-07
5.61087e-06
1.88686e-06
6.70355e-05
0.000125857
8.4551e-05
1.77897e-06
2.50584e-07
0.000122848
0.00018787
5.11762e-06
1.36738e-08
1.16107e-08
1.11932e-08
1.11877e-08
1.259e-08
1.45701e-08
1.32485e-08
1.16641e-08
1.16153e-08
1.22712e-08
2.44509e-05
3.47522e-05
2.98929e-05
4.54848e-07
3.94064e-08
2.98548e-08
1.60439e-09
7.55352e-10
8.20344e-10
2.20546e-10
2.12618e-10
2.15593e-10
2.15861e-10
2.15862e-10
1.97173e-10
1.19957e-10
5.39222e-11
1.58457e-11
2.26943e-12
9.51745e-14
2.89238e-18
5.97212e-17
1.07109e-15
1.569e-14
1.59134e-13
1.07355e-12
3.2526e-11
3.22967e-10
7.18711e-10
1.59998e-06
1.30349e-06
1.49343e-06
4.53285e-05
0.000125857
5.34986e-05
2.62078e-06
7.25166e-05
0.000375569
0.000377015
0.000216325
6.67719e-06
1.49563e-08
1.13175e-08
1.11931e-08
1.12153e-08
1.27951e-08
1.12345e-08
1.12472e-08
1.13115e-08
1.16196e-08
2.37646e-05
3.47522e-05
2.35971e-05
2.05663e-07
2.85448e-08
4.65322e-08
7.4389e-10
3.40465e-10
8.18369e-10
2.19641e-10
2.12324e-10
2.15613e-10
2.15757e-10
2.13138e-10
1.64468e-10
7.98099e-11
2.9182e-11
6.80034e-12
7.71462e-13
3.22439e-14
2.22338e-18
4.55126e-17
8.44594e-16
1.30533e-14
1.40868e-13
1.06505e-12
2.6056e-11
4.77497e-11
3.32717e-09
1.56508e-06
6.32907e-07
8.28541e-07
1.55127e-05
0.000125253
3.4979e-05
7.40807e-06
0.000354034
0.000377974
0.000377495
0.000377179
7.35577e-05
5.64674e-08
1.5027e-08
1.12657e-08
1.12191e-08
1.11993e-08
1.12304e-08
1.12339e-08
1.12486e-08
1.1632e-08
1.98244e-05
3.47522e-05
6.75668e-06
4.73671e-08
1.89259e-08
4.79238e-08
8.77037e-10
2.51511e-10
5.66684e-10
2.14935e-10
2.12142e-10
2.156e-10
2.15651e-10
1.9517e-10
1.15058e-10
4.57173e-11
1.39906e-11
2.60044e-12
2.41203e-13
1.01694e-14
1.64288e-18
3.48553e-17
6.63432e-16
1.08853e-14
1.25019e-13
1.07035e-12
2.40779e-11
5.49267e-11
3.56244e-09
5.53542e-07
5.91301e-07
1.71295e-05
1.70239e-05
0.000104726
3.50911e-05
2.96785e-05
0.000376361
0.000378161
0.000378194
0.000377572
5.91153e-05
5.65078e-08
1.70181e-08
1.12688e-08
1.11754e-08
1.11726e-08
2.34327e-08
1.1249e-08
1.16357e-08
1.25085e-08
1.91611e-05
3.46395e-05
1.69057e-06
1.21766e-08
6.3431e-09
2.36487e-08
4.54807e-10
2.34029e-10
2.88169e-10
2.11363e-10
2.12764e-10
2.15514e-10
2.09055e-10
1.50914e-10
6.78213e-11
2.34025e-11
6.02697e-12
8.94299e-13
6.95751e-14
2.90321e-15
1.17969e-18
3.00166e-17
5.35959e-16
9.06009e-15
1.10608e-13
1.09028e-12
2.34467e-11
6.32233e-11
8.65539e-11
1.1372e-09
4.13481e-06
2.84137e-05
7.22105e-05
0.000125862
6.2177e-05
0.000210364
0.000382635
0.000380722
0.000378406
0.00015289
4.55301e-06
7.85456e-08
1.46361e-08
1.11693e-08
1.11338e-08
1.11617e-08
4.33903e-08
8.26398e-07
9.02632e-08
1.15541e-06
2.92629e-05
2.9216e-05
4.18183e-07
3.06738e-09
9.36968e-10
4.63732e-10
3.32563e-10
2.30545e-10
2.20913e-10
2.10332e-10
2.13145e-10
2.13587e-10
1.79196e-10
9.52977e-11
3.55565e-11
1.09855e-11
2.33825e-12
2.79807e-13
1.87813e-14
7.50225e-16
1.0276e-18
3.10226e-17
4.8968e-16
7.581e-15
9.78879e-14
1.07534e-12
2.22842e-11
7.79163e-11
8.39919e-11
3.27927e-10
1.38783e-05
1.64289e-05
0.000125867
0.00012584
6.85081e-05
0.000380307
0.000382607
0.000372535
0.000137993
8.77507e-07
6.97631e-08
2.8129e-08
1.11692e-08
1.11338e-08
1.11285e-08
1.11322e-08
1.91844e-07
1.0054e-06
2.68229e-07
4.18317e-06
2.939e-05
2.94499e-05
4.76419e-07
1.10473e-09
5.30221e-10
3.357e-10
3.39284e-10
2.26715e-10
2.17468e-10
2.09867e-10
2.12851e-10
1.97042e-10
1.25184e-10
5.1565e-11
1.74492e-11
4.72786e-12
8.17552e-13
8.08952e-14
4.86948e-15
1.87183e-16
1.09144e-18
3.75372e-17
5.06971e-16
6.64504e-15
8.71198e-14
1.00648e-12
2.07087e-11
9.65044e-11
1.50068e-10
2.2336e-09
6.19548e-06
1.75443e-06
0.000123521
0.00012587
6.99733e-05
0.000371011
0.000328534
4.98247e-05
7.56868e-07
1.1571e-07
1.39868e-07
1.05022e-07
1.30361e-08
1.11285e-08
1.11285e-08
1.11285e-08
5.87267e-08
6.99782e-07
1.78696e-07
2.95263e-06
2.94733e-05
2.939e-05
6.42698e-07
7.34183e-10
4.35825e-10
3.31264e-10
3.21382e-10
2.26778e-10
2.1647e-10
2.08332e-10
2.05555e-10
1.53484e-10
7.21799e-11
2.58709e-11
8.08788e-12
1.84697e-12
2.60056e-13
2.20758e-14
1.24347e-15
4.69687e-17
1.48702e-18
5.894e-17
5.97618e-16
6.44362e-15
7.78595e-14
8.98216e-13
1.93876e-11
1.20147e-10
1.13268e-10
1.1279e-08
1.32381e-08
1.27224e-07
4.69269e-05
0.000106132
8.7427e-05
0.000199192
6.1986e-05
6.6748e-07
1.0135e-07
2.31503e-08
1.11794e-07
1.23566e-07
4.63065e-08
1.11688e-08
1.11285e-08
1.34984e-08
5.14331e-08
7.70656e-08
1.21679e-07
7.72801e-07
1.75829e-05
2.31383e-05
2.87895e-07
7.57834e-10
3.97262e-10
3.40629e-10
2.64862e-10
2.24365e-10
2.14173e-10
2.03653e-10
1.76961e-10
9.74626e-11
3.7183e-11
1.25232e-11
3.47706e-12
6.5238e-13
7.64735e-14
5.79283e-15
3.17314e-16
1.1771e-17
2.87463e-18
1.1302e-16
8.67033e-16
6.67221e-15
6.96703e-14
7.89059e-13
1.8298e-11
1.38614e-10
1.323e-10
6.06838e-09
6.7158e-09
6.77246e-08
4.03529e-05
5.06305e-05
9.45493e-05
8.57365e-05
1.49402e-05
7.32693e-08
2.21686e-08
1.29903e-08
1.41355e-08
4.88911e-08
4.48771e-08
1.25892e-08
1.11688e-08
1.32459e-08
5.28004e-07
9.09519e-08
1.56519e-07
2.98842e-07
7.18057e-07
1.86154e-06
1.04983e-07
6.44096e-10
3.56731e-10
3.49314e-10
2.18383e-10
2.14307e-10
2.09953e-10
1.88306e-10
1.26518e-10
5.30479e-11
1.84139e-11
5.78359e-12
1.36178e-12
2.09973e-13
2.11998e-14
1.48655e-15
8.16869e-17
2.91874e-18
6.46351e-18
2.28708e-16
1.48311e-15
7.58538e-15
6.46937e-14
6.90244e-13
1.66435e-11
1.40322e-10
1.43153e-10
1.57045e-08
1.06743e-08
1.0983e-05
6.36414e-05
3.41324e-05
9.45566e-05
8.05663e-05
1.06235e-05
2.70767e-08
1.30203e-08
1.12441e-08
1.11617e-08
1.11714e-08
2.3268e-08
1.335e-08
1.12684e-08
1.14346e-08
1.27573e-06
3.41709e-05
9.95271e-07
1.64338e-07
9.17445e-08
2.90285e-08
2.02131e-08
5.36898e-10
3.77783e-10
3.3414e-10
1.9793e-10
1.99812e-10
2.00623e-10
1.54458e-10
7.53086e-11
2.68186e-11
8.90425e-12
2.48209e-12
4.8366e-13
6.25973e-14
5.65161e-15
3.79339e-16
2.13982e-17
7.30977e-19
1.42438e-17
4.51362e-16
2.68135e-15
9.96648e-15
6.47842e-14
6.15819e-13
1.47213e-11
1.41383e-10
1.11222e-10
1.10922e-08
5.57899e-09
2.73754e-05
6.31176e-05
1.89646e-05
9.37722e-05
9.37167e-05
1.81004e-05
3.335e-08
1.27706e-08
1.11619e-08
1.10964e-08
1.10303e-08
1.34954e-08
1.17668e-08
1.14346e-08
1.16075e-08
7.58912e-06
4.01868e-05
1.53651e-05
7.40064e-08
2.83698e-08
6.3456e-09
2.02656e-09
4.21851e-10
3.89885e-10
2.89602e-10
1.93443e-10
1.86538e-10
1.77102e-10
1.07663e-10
3.96893e-11
1.32142e-11
4.10889e-12
9.71059e-13
1.56738e-13
1.7577e-14
1.47061e-15
9.75202e-17
5.67111e-18
1.84467e-19
2.94335e-17
8.45456e-16
4.80977e-15
1.4889e-14
6.75118e-14
5.92344e-13
1.32286e-11
1.39139e-10
1.0875e-10
1.10327e-09
1.42082e-09
1.18713e-05
3.08105e-05
1.34156e-05
9.40948e-05
9.20292e-05
9.95062e-06
3.9764e-08
1.33441e-08
1.11117e-08
1.10255e-08
1.09758e-08
1.23779e-08
1.30243e-08
1.18933e-08
1.21074e-08
1.83727e-05
4.01867e-05
3.42336e-05
3.32001e-07
8.95518e-09
2.02727e-09
6.32387e-10
3.94454e-10
3.77827e-10
2.39673e-10
1.9367e-10
1.69487e-10
1.36019e-10
6.41702e-11
1.98303e-11
6.34555e-12
1.75845e-12
3.44408e-13
4.69438e-14
4.72011e-15
3.77334e-16
2.53516e-17
1.50562e-18
4.63684e-20
5.71757e-17
1.49777e-15
8.34507e-15
2.36701e-14
7.65472e-14
6.02986e-13
1.25974e-11
1.2661e-10
1.0875e-10
1.11427e-10
1.86225e-09
-4.92371e-10
1.83171e-07
1.17065e-05
9.81386e-05
6.69105e-05
2.47351e-06
3.71023e-08
1.18277e-08
1.10308e-08
1.09581e-08
1.08492e-08
1.10126e-08
1.31535e-08
1.28105e-08
1.24209e-08
1.48053e-05
4.01868e-05
2.41679e-05
1.20804e-07
3.9224e-09
8.17242e-10
4.58419e-10
3.8128e-10
3.36044e-10
2.09117e-10
1.92502e-10
1.42396e-10
8.8973e-11
3.41414e-11
9.68318e-12
2.89843e-12
6.85241e-13
1.11386e-13
1.32004e-14
1.23022e-15
9.64562e-17
6.64339e-18
3.98235e-19
1.15571e-20
1.05791e-16
2.5258e-15
1.39016e-14
3.80408e-14
9.70548e-14
6.40801e-13
1.27659e-11
1.25272e-10
1.11631e-10
1.65452e-10
1.41775e-10
6.36999e-10
3.18973e-08
2.7526e-05
9.97156e-05
5.23323e-05
4.10211e-07
2.90628e-08
1.13149e-08
1.09988e-08
1.08479e-08
1.08378e-08
1.07429e-08
1.22359e-08
1.09888e-08
1.11894e-08
3.50575e-06
4.01607e-05
6.5417e-06
2.52961e-08
1.7598e-09
5.56699e-10
4.18131e-10
3.52085e-10
2.69614e-10
1.92406e-10
1.83434e-10
1.0666e-10
5.0857e-11
1.69659e-11
4.58296e-12
1.22739e-12
2.41839e-13
3.32564e-14
3.54142e-15
3.15546e-16
2.48235e-17
1.74789e-18
1.04676e-19
2.84854e-21
1.89052e-16
4.09593e-15
2.22556e-14
6.01632e-14
1.34752e-13
7.21676e-13
1.37866e-11
1.44068e-10
1.5049e-10
2.47451e-10
2.4445e-10
3.14087e-10
8.74406e-09
7.32059e-05
0.000100232
4.49275e-05
4.6192e-07
1.69138e-08
1.18218e-08
1.13204e-08
5.41144e-08
1.72429e-08
1.0445e-08
1.01489e-08
9.78733e-09
1.01892e-08
3.33257e-05
3.79914e-05
7.03892e-07
5.05078e-09
9.7222e-10
4.71152e-10
4.14734e-10
2.88491e-10
2.12673e-10
1.81152e-10
1.5633e-10
7.04774e-11
2.66328e-11
8.05279e-12
2.05237e-12
4.73765e-13
7.77065e-14
9.30861e-15
9.20357e-16
8.03436e-17
6.43994e-18
4.59617e-19
2.73062e-20
6.90118e-22
3.30081e-16
6.45422e-15
3.442e-14
9.2694e-14
1.9577e-13
8.7232e-13
1.73285e-11
2.17315e-10
1.90099e-10
2.30265e-10
6.15082e-10
1.09916e-08
1.27193e-08
9.79547e-05
0.000100232
3.24477e-05
2.33469e-06
4.06025e-06
9.19418e-06
3.34802e-06
6.3623e-08
1.24354e-08
1.00419e-08
9.75235e-09
9.86294e-09
2.69989e-06
4.96063e-05
1.65844e-05
2.167e-08
1.45194e-09
5.15402e-10
4.3968e-10
4.09102e-10
2.1832e-10
1.80721e-10
1.68877e-10
1.14068e-10
4.13006e-11
1.3235e-11
3.64582e-12
8.50196e-13
1.6567e-13
2.30121e-14
2.48362e-15
2.35242e-16
2.05326e-17
1.67816e-18
1.20223e-19
7.06796e-21
1.65381e-22
5.67222e-16
9.96964e-15
5.17791e-14
1.38923e-13
2.87893e-13
1.19801e-12
2.54391e-11
2.58363e-10
1.87293e-10
1.90789e-10
1.14278e-07
1.27193e-08
4.12466e-05
9.9556e-05
0.000100232
2.03812e-05
3.3079e-06
8.98086e-06
1.06336e-05
1.00904e-05
8.12846e-07
1.42592e-08
1.0626e-08
1.00755e-08
9.85658e-09
1.29289e-05
4.98956e-05
1.28838e-05
4.54038e-09
8.96889e-10
6.39325e-10
3.67973e-10
3.89857e-10
1.87206e-10
1.62855e-10
1.46664e-10
7.16695e-11
2.17962e-11
6.28195e-12
1.55364e-12
3.21137e-13
5.26955e-14
6.38454e-15
6.42114e-16
5.97305e-17
5.29009e-18
4.37964e-19
3.1204e-20
1.81382e-21
3.94829e-23
9.62455e-16
1.51843e-14
7.62715e-14
2.03346e-13
4.23691e-13
1.94464e-12
3.6615e-11
2.58265e-10
1.79404e-10
8.39738e-10
1.20422e-07
1.761e-08
8.64094e-05
9.72403e-05
6.41548e-05
1.5761e-05
1.38039e-05
1.28756e-05
9.97751e-06
4.63257e-06
3.3318e-07
1.25866e-08
1.11778e-08
1.07331e-08
1.0583e-08
1.40964e-05
5.03261e-05
3.0008e-05
5.06346e-08
1.07724e-09
9.28622e-10
2.53499e-10
3.34114e-10
1.82288e-10
1.44846e-10
1.11809e-10
3.98545e-11
1.05895e-11
2.81026e-12
6.14072e-13
1.10103e-13
1.54382e-14
1.69006e-15
1.63398e-16
1.52014e-17
1.36931e-18
1.13943e-19
8.03095e-21
4.61148e-22
9.27827e-24
1.61191e-15
2.28582e-14
1.10653e-13
2.93084e-13
6.24477e-13
3.33491e-12
4.46256e-11
2.42382e-10
1.76343e-10
1.794e-10
6.66899e-08
2.20512e-08
2.29994e-05
4.39956e-05
1.22147e-05
1.21715e-05
1.20124e-05
7.19787e-06
1.55988e-06
8.99247e-08
4.32204e-07
1.94752e-07
1.20454e-08
1.12358e-08
1.20512e-08
9.87315e-06
5.07508e-05
3.38547e-05
8.2703e-08
1.43576e-09
1.24206e-09
1.81537e-10
2.53708e-10
1.8015e-10
1.19167e-10
7.28112e-11
2.00935e-11
4.8123e-12
1.16585e-12
2.22803e-13
3.44432e-14
4.24341e-15
4.34436e-16
4.13537e-17
3.89523e-18
3.55217e-19
2.94348e-20
2.049e-21
1.16121e-22
2.12986e-24
2.65734e-15
3.39963e-14
1.58863e-13
4.20162e-13
9.18567e-13
4.8267e-12
5.42102e-11
1.96057e-10
1.7466e-10
1.70754e-10
2.12833e-10
5.90019e-06
6.15527e-06
5.76342e-06
4.69529e-06
4.61751e-06
3.01641e-06
4.83535e-07
6.33543e-08
4.34298e-08
2.10248e-07
2.45644e-07
6.09995e-08
1.28886e-08
2.31384e-07
3.86401e-05
5.07646e-05
1.45621e-05
2.95943e-08
1.42008e-09
1.32538e-09
1.64025e-10
1.98016e-10
1.7177e-10
8.61916e-11
4.08508e-11
9.33257e-12
2.0485e-12
4.44273e-13
7.39839e-14
9.96681e-15
1.11667e-15
1.10106e-16
1.04877e-17
1.00307e-18
9.20021e-20
7.54066e-21
5.18221e-22
2.8952e-23
4.75185e-25
4.29347e-15
4.98559e-14
2.26412e-13
6.0512e-13
1.33446e-12
6.03828e-12
7.69245e-11
1.51114e-10
1.55386e-10
1.60199e-10
2.11024e-06
1.06163e-05
7.99399e-06
9.77141e-06
9.60091e-06
1.84196e-06
1.29117e-07
6.10325e-08
4.38415e-08
4.29367e-08
4.52906e-08
2.45644e-07
1.10679e-07
1.58951e-08
5.78426e-06
5.07536e-05
5.0786e-05
1.69173e-06
7.93772e-09
9.35135e-10
1.29381e-09
1.57414e-10
1.76397e-10
1.42589e-10
5.38101e-11
2.02474e-11
4.02675e-12
8.11067e-13
1.55255e-13
2.26089e-14
2.71936e-15
2.86352e-16
2.77795e-17
2.67588e-18
2.59003e-19
2.36849e-20
1.91616e-21
1.29939e-22
7.14534e-24
1.02326e-25
6.76464e-15
7.19485e-14
3.20812e-13
8.76531e-13
1.8989e-12
9.5864e-12
1.54604e-10
1.53601e-10
1.58948e-10
1.683e-10
4.28028e-06
7.33066e-06
2.26221e-05
2.91607e-05
2.84786e-05
6.45337e-06
7.53206e-08
4.41863e-08
4.29367e-08
4.29367e-08
4.29367e-08
1.95555e-07
9.61522e-08
3.15985e-08
4.70538e-06
5.06655e-05
5.08221e-05
3.46026e-07
5.32988e-10
6.92915e-10
9.98582e-10
1.52878e-10
1.58265e-10
9.42168e-11
2.93747e-11
9.06756e-12
1.61701e-12
2.96966e-13
4.99669e-14
6.44426e-15
7.1361e-16
7.25121e-17
7.02029e-18
6.86411e-19
6.6848e-20
6.05098e-21
4.8322e-22
3.23013e-23
1.74551e-24
2.10355e-26
1.03517e-14
1.02017e-13
4.51791e-13
1.28446e-12
2.66468e-12
5.09802e-12
3.1559e-10
9.27123e-10
1.80715e-09
1.30428e-09
8.63448e-07
9.77357e-07
2.9585e-05
2.92212e-05
2.41816e-05
3.59734e-06
1.79117e-07
4.37796e-08
4.29679e-08
4.29367e-08
4.88503e-08
5.44607e-08
6.38975e-08
5.60995e-08
1.97068e-05
5.0546e-05
2.39961e-05
1.21865e-08
3.07359e-10
3.63809e-10
4.97995e-10
1.49915e-10
1.2702e-10
5.02058e-11
1.43435e-11
3.71665e-12
6.03451e-13
1.0054e-13
1.49447e-14
1.74425e-15
1.83057e-16
1.82838e-17
1.78421e-18
1.7674e-19
1.71717e-20
1.53513e-21
1.20974e-22
7.96234e-24
4.22187e-25
4.05027e-27
1.53538e-14
1.41977e-13
6.30138e-13
1.84281e-12
3.66778e-12
3.67796e-12
6.37242e-10
7.33253e-09
7.65147e-09
3.36491e-09
4.38166e-09
1.48715e-05
2.99994e-05
2.57105e-05
3.9674e-06
4.86335e-07
3.40238e-07
2.06995e-07
4.38056e-08
3.45875e-06
3.25525e-07
5.96935e-08
6.66423e-08
7.79931e-08
4.84597e-05
5.0546e-05
1.10731e-06
4.05149e-11
2.43191e-10
2.4111e-10
2.47061e-10
1.35797e-10
8.49863e-11
2.3627e-11
6.35878e-12
1.40346e-12
2.09266e-13
3.16395e-14
4.20896e-15
4.56385e-16
4.64181e-17
4.61184e-18
4.56393e-19
4.55403e-20
4.38303e-21
3.87116e-22
3.00783e-23
1.9475e-24
1.01172e-25
7.05169e-28
2.20581e-14
1.93548e-13
8.65766e-13
2.5931e-12
5.02516e-12
3.90049e-12
1.0593e-09
8.71908e-09
8.74183e-09
5.73082e-09
3.10829e-08
3.01101e-05
2.99994e-05
1.06085e-05
4.05911e-07
3.57751e-07
3.61802e-07
9.52291e-06
9.73977e-05
1.40269e-05
8.12391e-08
6.95329e-08
9.22407e-08
7.40433e-06
4.83053e-05
4.86901e-05
7.43451e-10
2.37582e-10
2.30626e-10
2.3145e-10
1.76281e-10
1.02709e-10
4.73142e-11
1.06055e-11
2.56636e-12
4.9132e-13
6.77141e-14
9.33972e-15
1.1337e-15
1.17098e-16
1.17247e-17
1.16922e-18
1.17356e-19
1.16944e-20
1.11279e-21
9.70952e-23
7.43328e-24
4.73127e-25
2.40369e-26
9.4506e-29
3.07002e-14
2.58279e-13
1.16228e-12
3.46685e-12
6.74979e-12
7.47632e-12
9.79193e-10
6.22088e-09
3.34895e-09
4.33277e-09
2.51562e-05
3.02293e-05
2.96419e-05
5.58762e-06
4.24547e-07
3.66618e-07
3.5938e-07
9.45856e-05
0.00016079
1.04667e-05
9.17737e-08
8.26702e-08
4.63316e-07
4.21509e-05
4.74632e-05
1.23663e-05
-1.44337e-09
2.00361e-10
2.29145e-10
2.33207e-10
1.3101e-10
6.21916e-11
2.35827e-11
4.62071e-12
9.42409e-13
1.60894e-13
2.06096e-14
2.61722e-15
2.96536e-16
2.97542e-17
2.96266e-18
2.98683e-19
3.0242e-20
2.9891e-21
2.81381e-22
2.42442e-23
1.82816e-24
1.14326e-25
5.67355e-27
4.9475e-30
4.13759e-14
3.36877e-13
1.51544e-12
4.44627e-12
9.05014e-12
5.4023e-11
8.29357e-10
1.09943e-09
1.28162e-09
5.22101e-06
3.02246e-05
3.01876e-05
1.03041e-05
4.98737e-06
8.90508e-07
3.98893e-07
1.12774e-05
0.000159951
0.000161394
1.7506e-05
1.09598e-07
9.5894e-08
3.77826e-06
4.66618e-05
4.74632e-05
1.0534e-07
1.44267e-10
1.58878e-10
2.25121e-10
2.2824e-10
8.63918e-11
3.18129e-11
1.13827e-11
1.89972e-12
3.17613e-13
4.98186e-14
5.95877e-15
7.05817e-16
7.62836e-17
7.54079e-18
7.52226e-19
7.68014e-20
7.78169e-21
7.61583e-22
7.09381e-23
6.03464e-24
4.48175e-25
2.75291e-26
1.33682e-27
2.33963e-31
5.39719e-14
4.29936e-13
1.93326e-12
5.66203e-12
1.29162e-11
5.81666e-11
5.17535e-10
2.59381e-09
2.151e-09
3.34436e-06
6.13018e-06
9.12378e-06
1.87165e-06
3.07978e-06
1.05021e-06
3.45198e-07
0.000105996
0.000162613
0.000162093
0.000130242
6.23836e-07
6.06757e-07
3.88793e-05
4.49149e-05
2.69872e-05
-1.04275e-09
1.46467e-10
1.40578e-10
2.20355e-10
2.04383e-10
4.69464e-11
1.54555e-11
5.30147e-12
7.08081e-13
1.00268e-13
1.47338e-14
1.65387e-15
1.85703e-16
1.94834e-17
1.91543e-18
1.92436e-19
1.98341e-20
1.99753e-21
1.93727e-22
1.78542e-23
1.49988e-24
1.09726e-25
6.62058e-27
3.15197e-28
2.49742e-32
6.83492e-14
5.40695e-13
2.44943e-12
7.16649e-12
1.63003e-11
4.6468e-11
1.243e-10
1.27994e-10
5.41155e-07
1.74174e-06
2.87478e-05
6.19522e-06
8.22065e-07
6.14808e-07
1.3632e-07
1.32994e-07
0.000162027
0.000162428
0.000162274
0.000161784
1.02246e-05
1.12343e-06
4.26714e-05
4.35306e-05
6.71521e-07
1.82935e-10
9.60423e-11
1.34341e-10
2.15604e-10
1.49133e-10
2.08505e-11
7.54474e-12
2.22173e-12
2.34188e-13
3.03311e-14
4.19654e-15
4.45627e-16
4.82296e-17
4.97322e-18
4.89093e-19
4.95829e-20
5.12902e-21
5.12294e-22
4.92618e-23
4.49362e-24
3.72964e-25
2.68886e-26
1.59448e-27
7.45369e-29
2.83245e-33
8.45696e-14
6.67684e-13
3.05377e-12
8.99122e-12
1.83555e-11
2.75414e-11
8.78102e-11
7.0638e-11
1.63317e-06
2.65015e-05
3.07396e-05
7.98035e-06
7.83221e-07
8.76721e-08
4.86977e-08
5.99727e-08
0.00012143
0.000162624
0.000162882
0.000162421
0.000143743
2.79611e-05
3.23098e-05
1.33706e-05
3.71296e-09
1.01668e-10
7.79439e-11
1.14628e-10
1.92223e-10
7.98077e-11
8.57975e-12
3.54369e-12
7.87702e-13
6.99466e-14
8.92177e-15
1.15974e-15
1.17927e-16
1.24737e-17
1.27446e-18