/*--------------------------------*- C++ -*----------------------------------*\
  =========                 |
  \\      /  F ield         | OpenFOAM: The Open Source CFD Toolbox
   \\    /   O peration     | Website:  https://openfoam.org
    \\  /    A nd           | Version:  9
     \\/     M anipulation  |
\*---------------------------------------------------------------------------*/
FoamFile
{
    format      ascii;
    class       volScalarField;
    location    "0.12";
    object      p_rgh;
}
// * * * * * * * * * * * * * * * * * * * * * * * * * * * * * * * * * * * * * //

dimensions      [1 -1 -2 0 0 0 0];

internalField   nonuniform List<scalar> 
5000
(
-0.173537
-0.202423
-0.239065
-0.285272
-0.343868
-0.417942
-0.509508
-0.618521
-0.740971
-0.886409
-1.13179
-1.01285
-2.30877
-1389.88
-2029.84
-2029.23
-2028.89
-2028.12
-2026.75
-2025.6
-2024.78
-2024.35
-2024.26
-2024.41
-2024.62
-2024.7
-2024.63
-2024.51
-2024.8
-1706.74
-230.775
-2.33074
-1.86687
-1.25389
-1.0636
-0.961012
-0.860473
-0.759972
-0.664267
-0.575999
-0.495769
-0.423025
-0.356846
-0.296347
-0.2408
-0.189621
-0.142324
-0.0985338
-0.0575795
-0.0209735
-0.156594
-0.180646
-0.210633
-0.247864
-0.293778
-0.348856
-0.411708
-0.478861
-0.537516
-0.568255
-0.709623
-0.102436
1.7768
-1214.43
-2026.6
-2026.83
-2027.12
-2026.42
-2025.06
-2023.96
-2023.11
-2022.66
-2022.62
-2022.93
-2023.34
-2023.62
-2023.67
-2023.39
-2023.15
-1572.76
-118.984
-1.95316
-1.71685
-1.19505
-0.963395
-0.882683
-0.802004
-0.716312
-0.630945
-0.549858
-0.47481
-0.406069
-0.343154
-0.285376
-0.232086
-0.182758
-0.136967
-0.094418
-0.0547346
-0.0205446
-0.138845
-0.158064
-0.181526
-0.209865
-0.243326
-0.280317
-0.316351
-0.345254
-0.351635
-0.289093
-0.24161
0.460364
2.55551
-908.979
-2019.17
-2025.83
-2025.96
-2024.82
-2023.4
-2022.28
-2021.34
-2020.83
-2020.78
-2021.19
-2021.78
-2022.21
-2022.37
-2022.18
-2021.82
-1188.78
-16.1018
-1.661
-1.4273
-1.09248
-0.870865
-0.805582
-0.741453
-0.669783
-0.594817
-0.521201
-0.451662
-0.38722
-0.327857
-0.273135
-0.222548
-0.175656
-0.132092
-0.0915926
-0.0535949
-0.0180519
-0.120815
-0.13544
-0.152747
-0.172581
-0.194322
-0.215324
-0.228858
-0.225995
-0.19369
-0.0825988
0.119714
0.703989
2.14265
-540.478
-1963.35
-2026.69
-2025.49
-2023.18
-2021.67
-2020.43
-2019.36
-2018.71
-2018.58
-2018.95
-2019.45
-2019.68
-2019.6
-2019.22
-1941.56
-584.382
-2.05236
-1.27234
-1.14811
-0.968137
-0.789914
-0.736522
-0.684848
-0.62489
-0.5592
-0.492541
-0.428254
-0.367938
-0.311992
-0.260229
-0.212275
-0.167737
-0.126251
-0.0875038
-0.0508562
-0.0171274
-0.102994
-0.113344
-0.125037
-0.137357
-0.148986
-0.156632
-0.152546
-0.126056
-0.0680633
0.0603474
0.30484
0.702655
1.49888
-156.161
-1798.58
-2030.88
-2024.81
-2020.9
-2019.57
-2018.26
-2017.03
-2016.21
-2015.95
-2016.1
-2016.16
-2015.96
-2015.78
-2014.63
-1436.94
-101.789
-1.53906
-1.31676
-1.24007
-0.854842
-0.729507
-0.68257
-0.638352
-0.585888
-0.527073
-0.465984
-0.406094
-0.349317
-0.296334
-0.247141
-0.201459
-0.158949
-0.119304
-0.0823136
-0.0475438
-0.0157536
-0.0857953
-0.0923365
-0.0991567
-0.105222
-0.10868
-0.10584
-0.0889456
-0.0468206
0.0269236
0.161637
0.392412
0.608931
1.044
0.893396
-1230.78
-2027.68
-2022.78
-2018.01
-2016.91
-2015.72
-2014.36
-2013.36
-2012.97
-2012.95
-2012.83
-2013.09
-2013.9
-1779.73
-431.665
-2.33613
-2.00767
-1.98839
-1.27808
-0.722689
-0.675822
-0.636598
-0.597691
-0.551581
-0.498343
-0.441907
-0.385781
-0.332107
-0.281797
-0.235012
-0.191568
-0.151176
-0.113555
-0.0784799
-0.0455214
-0.0151246
-0.0695594
-0.072862
-0.0756306
-0.076696
-0.0739193
-0.0635042
-0.0383055
0.0124161
0.094113
0.22133
0.368421
0.5714
0.901218
0.989351
-295.835
-1744.62
-2018.77
-2015.35
-2014.24
-2013.06
-2011.64
-2010.32
-2009.75
-2009.65
-2009.92
-2011.45
-1852.65
-632.872
-2.80807
-0.845179
-1.83943
-1.89489
-1.34582
-0.615986
-0.61172
-0.594813
-0.559802
-0.519475
-0.471406
-0.419321
-0.366757
-0.316036
-0.268265
-0.223748
-0.182382
-0.143913
-0.108074
-0.0746316
-0.0432198
-0.0142506
-0.0545168
-0.0551947
-0.0547882
-0.0521198
-0.0450041
-0.0297619
-0.000217981
0.052981
0.133088
0.250543
0.329183
0.549269
0.778767
0.858593
0.520395
-659.009
-1873.19
-2012.1
-2011.56
-2010.68
-2009.21
-2007.53
-2006.91
-2005.48
-2005.06
-1715.17
-601.555
-5.39084
-0.649844
-0.478726
-0.61656
-1.30607
-1.27645
-0.770853
-0.569045
-0.556567
-0.527138
-0.490405
-0.446442
-0.398079
-0.348768
-0.300838
-0.255494
-0.213142
-0.17375
-0.137108
-0.102969
-0.0711059
-0.0411564
-0.0133254
-0.040819
-0.0394982
-0.0368005
-0.0316143
-0.0219001
-0.00426216
0.0263696
0.0777906
0.151549
0.250565
0.311165
0.573893
0.674869
0.728557
0.659362
-2.70068
-670.292
-1688.75
-2007.89
-2007.71
-2006.69
-2005.32
-1991.19
-1782.41
-1249.04
-359.502
-4.4818
-0.683491
-0.45539
-0.431558
-0.452545
-0.521344
-1.15033
-1.06188
-0.524191
-0.511548
-0.493882
-0.461964
-0.422245
-0.377594
-0.331476
-0.286283
-0.243317
-0.203076
-0.165603
-0.130731
-0.098238
-0.0679011
-0.0393615
-0.0125773
-0.0285428
-0.0258219
-0.0216633
-0.0150554
-0.00423364
0.0138088
0.0430384
0.0897755
0.154156
0.233271
0.265373
0.507917
0.570751
0.60825
0.611346
0.0573821
-3.32434
-303.861
-858.179
-1244.98
-1285.54
-1167.8
-796.254
-405.295
-66.1998
-3.6267
-1.0474
-0.433531
-0.408886
-0.409825
-0.429139
-0.445854
-0.86426
-0.940317
-0.530905
-0.484434
-0.466932
-0.436689
-0.399649
-0.358056
-0.314834
-0.272222
-0.231516
-0.19327
-0.157583
-0.124335
-0.0933314
-0.0643836
-0.0372061
-0.0117357
-0.017701
-0.0141283
-0.00924706
-0.0021602
0.00855951
0.0254856
0.0515413
0.0916738
0.14468
0.203201
0.292237
0.414095
0.4624
0.488853
0.486192
0.35722
-0.237857
-2.16947
-7.72344
-44.9972
-52.8266
-32.6672
-5.87837
-3.15978
-1.47686
-0.776483
-0.480352
-0.387254
-0.386782
-0.394876
-0.408406
-0.425131
-0.563619
-0.579118
-0.51794
-0.45218
-0.436573
-0.410732
-0.37701
-0.338757
-0.298536
-0.258534
-0.220087
-0.183815
-0.14989
-0.118248
-0.0887335
-0.0611761
-0.0353286
-0.0111056
-0.00825258
-0.00431416
0.000665424
0.00744602
0.0171218
0.031836
0.0535777
0.0861153
0.12707
0.176483
0.240013
0.316011
0.330663
0.201796
0.332186
0.327652
0.171461
-0.113682
-0.527193
-0.852499
-0.95433
-0.891265
-0.718806
-0.545504
-0.412091
-0.357776
-0.351677
-0.360662
-0.367636
-0.377213
-0.388837
-0.400562
-0.561409
-0.514282
-0.455359
-0.416082
-0.40518
-0.384397
-0.354862
-0.320203
-0.283036
-0.245624
-0.209388
-0.175038
-0.142818
-0.112719
-0.0846152
-0.0583482
-0.0336909
-0.0105543
-0.000109053
0.00377367
0.00835279
0.014201
0.0221318
0.0339013
0.0507231
0.0754237
0.104756
0.141886
0.171967
0.188285
0.222731
0.103547
0.230429
0.249017
0.165223
0.0819828
-0.0292784
-0.12904
-0.192084
-0.229082
-0.247947
-0.262119
-0.274659
-0.294951
-0.320389
-0.338272
-0.349242
-0.360192
-0.371437
-0.393187
-0.574591
-0.58416
-0.43869
-0.394927
-0.384397
-0.365021
-0.337701
-0.30516
-0.270069
-0.234589
-0.200112
-0.167353
-0.136578
-0.107802
-0.08092
-0.0558159
-0.0321586
-0.00993854
0.00685708
0.0103307
0.0141282
0.0185817
0.0242777
0.0326543
0.0443657
0.0614365
0.0802513
0.102826
0.0982612
0.129483
0.156732
0.0259948
0.172099
0.175466
0.114284
0.0718261
0.00299052
-0.0625461
-0.115995
-0.159124
-0.194874
-0.225273
-0.253205
-0.279592
-0.303488
-0.321397
-0.334323
-0.345583
-0.355805
-0.36462
-0.563778
-0.569736
-0.447888
-0.385599
-0.373685
-0.353514
-0.326386
-0.29442
-0.260261
-0.225884
-0.192566
-0.160959
-0.131298
-0.103583
-0.0777095
-0.0535408
-0.030836
-0.00948119
0.0128006
0.0155841
0.0183103
0.0210536
0.0242013
0.0289436
0.0355422
0.0455099
0.0551047
0.0646297
0.0521905
0.10204
0.105551
-0.0544234
0.105506
0.0266053
0.0539311
0.0367768
-0.0158787
-0.0684416
-0.114219
-0.153114
-0.187027
-0.216976
-0.244365
-0.269027
-0.290654
-0.308496
-0.322652
-0.334351
-0.344094
-0.351917
-0.49104
-0.55766
-0.46312
-0.377215
-0.365375
-0.345056
-0.317793
-0.286026
-0.252354
-0.218685
-0.186206
-0.155501
-0.126758
-0.0999489
-0.0749533
-0.0516249
-0.02973
-0.00918045
0.0178947
0.0197796
0.0212164
0.0220491
0.0224753
0.0235
0.0251043
0.0285392
0.0302871
0.0307891
0.019965
0.057283
0.00929808
-0.0131446
-0.0251036
-0.124398
0.00635209
0.000260502
-0.0402206
-0.0831045
-0.121845
-0.155153
-0.185532
-0.212612
-0.237555
-0.260321
-0.280855
-0.298816
-0.313996
-0.32696
-0.33797
-0.347016
-0.475904
-0.552764
-0.484387
-0.371854
-0.359254
-0.338158
-0.310352
-0.278505
-0.245122
-0.212024
-0.180288
-0.150409
-0.122518
-0.0965538
-0.0723771
-0.0498252
-0.0286747
-0.00888486
0.0223256
0.0231695
0.0231624
0.0219717
0.0196083
0.0169442
0.0137049
0.0110395
0.0058495
-0.00100329
-0.00142927
0.0113218
-0.0704183
-0.053366
-0.20523
-0.189184
-0.0161192
-0.0335626
-0.0642468
-0.0988163
-0.130954
-0.158906
-0.185292
-0.209621
-0.232243
-0.253442
-0.273151
-0.291255
-0.307517
-0.322306
-0.335647
-0.364268
-0.492412
-0.552282
-0.485661
-0.371109
-0.356048
-0.332693
-0.303546
-0.271165
-0.237867
-0.205275
-0.17428
-0.14525
-0.118237
-0.0931413
-0.0698026
-0.0480424
-0.0276349
-0.00856725
0.0262827
0.0260024
0.0244569
0.0212017
0.0160637
0.00976972
0.0018685
-0.00663305
-0.0184407
-0.0320758
-0.049178
-0.0803171
-0.125481
-0.110492
-0.264899
-0.139008
-0.0487403
-0.0652926
-0.0874853
-0.114579
-0.140716
-0.163589
-0.185842
-0.207196
-0.227625
-0.247239
-0.266096
-0.284262
-0.301624
-0.318267
-0.335262
-0.398681
-0.48152
-0.548264
-0.461915
-0.368503
-0.350958
-0.325467
-0.295168
-0.262475
-0.229512
-0.197661
-0.167615
-0.13961
-0.11362
-0.0895052
-0.0670926
-0.0461931
-0.0265768
-0.00824129
0.0299533
0.0285152
0.0253972
0.0200923
0.0122435
0.00243083
-0.00992563
-0.0240038
-0.0422367
-0.0622673
-0.128477
-0.164351
-0.170213
-0.243149
-0.319151
-0.119236
-0.0821943
-0.0939864
-0.109507
-0.129611
-0.150047
-0.168351
-0.186609
-0.204819
-0.222847
-0.240734
-0.25853
-0.276393
-0.294317
-0.312343
-0.34162
-0.415204
-0.416666
-0.49147
-0.408529
-0.360438
-0.340355
-0.313541
-0.282976
-0.250811
-0.218899
-0.188356
-0.159696
-0.133046
-0.10833
-0.0853865
-0.0640437
-0.0441194
-0.0253973
-0.00788101
0.0335187
0.0309304
0.0262617
0.01897
0.00853039
-0.00463232
-0.0212143
-0.0405569
-0.0650053
-0.094173
-0.165376
-0.148042
-0.224615
-0.361617
-0.364078
-0.135319
-0.113448
-0.120466
-0.12989
-0.143593
-0.158644
-0.172559
-0.186892
-0.201865
-0.217306
-0.23319
-0.24951
-0.26634
-0.283888
-0.302094
-0.348486
-0.400947
-0.366368
-0.358042
-0.355868
-0.341669
-0.321466
-0.295251
-0.265911
-0.235469
-0.20552
-0.176973
-0.150213
-0.125306
-0.102157
-0.0806143
-0.0605252
-0.0417298
-0.0240411
-0.00747104
0.0371512
0.0334592
0.0273115
0.018144
0.00528497
-0.0110171
-0.0315743
-0.0558851
-0.0862353
-0.121384
-0.203598
-0.171311
-0.306298
-0.410814
-0.408927
-0.153373
-0.143431
-0.145149
-0.148107
-0.155822
-0.166518
-0.176125
-0.18631
-0.197877
-0.2105
-0.22403
-0.238366
-0.253447
-0.269276
-0.28574
-0.341961
-0.380402
-0.359938
-0.33186
-0.327684
-0.315694
-0.29642
-0.272045
-0.245012
-0.217187
-0.189898
-0.163874
-0.139412
-0.116552
-0.0952086
-0.0752595
-0.0565861
-0.0390604
-0.0225306
-0.00701849
0.0410094
0.0362959
0.02879
0.0179048
0.00283447
-0.0163605
-0.0406141
-0.0696318
-0.105653
-0.14845
-0.198569
-0.215794
-0.358809
-0.460652
-0.375137
-0.18352
-0.171862
-0.409621
-0.533046
-0.176355
-0.174357
-0.178877
-0.184695
-0.192559
-0.202061
-0.212913
-0.224824
-0.237593
-0.25108
-0.265054
-0.327678
-0.35555
-0.358513
-0.303859
-0.298441
-0.286544
-0.268547
-0.246477
-0.222252
-0.197463
-0.17316
-0.149907
-0.127931
-0.107262
-0.0878421
-0.0695858
-0.0524148
-0.0362373
-0.0209386
-0.00654773
0.0452365
0.0396154
0.0309196
0.0185155
0.00148054
-0.0203124
-0.0479332
-0.0813945
-0.122969
-0.174741
-0.224256
-0.259886
-0.368887
-0.511138
-0.358859
-0.219912
-0.347723
-0.912018
-0.902437
-0.596863
-0.194752
-0.180826
-0.182153
-0.185728
-0.191784
-0.199694
-0.208898
-0.219032
-0.229822
-0.241014
-0.299597
-0.325975
-0.316225
-0.271985
-0.266694
-0.255713
-0.23962
-0.220264
-0.199173
-0.177605
-0.156378
-0.135932
-0.116451
-0.0979758
-0.0804801
-0.0639215
-0.0482582
-0.0334323
-0.0193626
-0.00609041
0.0499555
0.0435746
0.03389
0.0202102
0.00150387
-0.0225306
-0.0530985
-0.0905825
-0.137355
-0.196497
-0.254448
-0.300205
-0.353435
-0.567555
-0.362387
-0.267125
-0.926667
-0.941209
-0.918994
-0.895501
-0.329026
-0.182652
-0.178323
-0.177077
-0.179557
-0.184423
-0.190846
-0.198274
-0.206279
-0.214556
-0.262942
-0.293062
-0.252995
-0.239369
-0.234606
-0.22501
-0.21129
-0.194919
-0.177074
-0.15872
-0.140494
-0.122749
-0.105651
-0.089267
-0.0736152
-0.0587001
-0.0445182
-0.0310433
-0.0181915
-0.0059067
0.0552815
0.0483137
0.0378658
0.0231856
0.00315226
-0.0227008
-0.055694
-0.0965709
-0.147851
-0.211837
-0.281411
-0.37256
-0.396619
-0.583548
-0.41268
-0.347726
-1.00423
-0.964511
-0.937207
-0.906106
-0.304147
-0.179179
-0.17104
-0.16623
-0.165416
-0.167388
-0.171254
-0.176233
-0.181863
-0.18777
-0.231962
-0.261153
-0.21114
-0.207552
-0.203896
-0.19625
-0.185226
-0.171899
-0.157201
-0.14188
-0.126433
-0.111148
-0.0961794
-0.0816066
-0.0674772
-0.0538314
-0.0407113
-0.0281876
-0.0163696
-0.00533221
0.0613117
0.0539496
0.042981
0.0275987
0.00662392
-0.0205658
-0.0553838
-0.0988856
-0.153727
-0.221887
-0.307485
-0.423522
-0.545447
-0.662758
-0.525049
-0.759588
-1.04452
-0.991806
-0.956188
-0.495326
-0.196318
-0.173111
-0.16104
-0.153359
-0.149714
-0.149169
-0.15096
-0.155669
-0.158552
-0.166449
-0.218471
-0.226042
-0.175674
-0.177511
-0.176103
-0.170946
-0.162758
-0.152388
-0.140639
-0.128118
-0.115228
-0.102215
-0.0892242
-0.0763455
-0.063645
-0.0511869
-0.0390308
-0.0272261
-0.0158773
-0.00506007
0.0681266
0.0605725
0.0493373
0.0335696
0.0120677
-0.0159358
-0.0519215
-0.0971869
-0.154416
-0.225987
-0.333883
-0.415895
-0.664047
-0.691341
-0.571634
-1.10126
-1.06058
-0.996582
-0.492226
-0.198222
-0.181969
-0.164746
-0.149501
-0.13915
-0.133039
-0.130422
-0.130923
-0.134374
-0.136512
-0.149296
-0.193483
-0.201447
-0.150804
-0.153541
-0.153776
-0.150754
-0.145011
-0.137261
-0.128156
-0.118182
-0.107662
-0.0967901
-0.0856789
-0.0743968
-0.0629936
-0.0515169
-0.0400124
-0.0284953
-0.0169344
-0.00530157
0.0757853
0.0682492
0.057009
0.0411921
0.0195926
-0.0086836
-0.0451533
-0.091276
-0.149671
-0.222536
-0.319205
-0.388175
-0.675092
-0.708564
-0.589773
-1.09483
-0.976339
-0.36853
-0.22909
-0.199264
-0.176305
-0.155253
-0.137116
-0.124155
-0.115853
-0.111607
-0.110789
-0.11358
-0.115505
-0.125299
-0.172988
-0.180171
-0.134613
-0.136842
-0.13786
-0.136259
-0.132409
-0.126848
-0.120066
-0.112422
-0.104149
-0.0953633
-0.086102
-0.0763504
-0.0660677
-0.0552083
-0.0437411
-0.0316736
-0.0191584
-0.00625262
0.0843282
0.0770251
0.0660491
0.0505317
0.029268
0.00125645
-0.0350298
-0.0811427
-0.139604
-0.212507
-0.297327
-0.378021
-0.532957
-0.676707
-0.62349
-0.809542
-0.475224
-0.285279
-0.236059
-0.198844
-0.169141
-0.144401
-0.123688
-0.108361
-0.0983238
-0.0930105
-0.0917791
-0.0935025
-0.0973047
-0.103757
-0.139193
-0.154517
-0.1221
-0.125358
-0.127081
-0.126654
-0.124414
-0.120793
-0.116173
-0.110836
-0.104962
-0.0986437
-0.0919018
-0.0846878
-0.076874
-0.0682164
-0.0582797
-0.0463233
-0.031153
-0.0122739
0.0937775
0.0869253
0.0764898
0.0616211
0.0411168
0.0138874
-0.0215911
-0.0669181
-0.12453
-0.196591
-0.281385
-0.364817
-0.510739
-0.564343
-0.636387
-0.592486
-0.387719
-0.293079
-0.239769
-0.195634
-0.160227
-0.131953
-0.108862
-0.0917293
-0.0805696
-0.0748597
-0.0747753
-0.0766316
-0.0818209
-0.0891185
-0.098015
-0.108512
-0.112328
-0.117089
-0.119863
-0.120718
-0.120039
-0.118244
-0.115682
-0.112624
-0.10927
-0.105787
-0.102342
-0.0991283
-0.0963853
-0.0944336
-0.0937266
-0.0948946
-0.0989939
-0.1087
0.104134
0.0979533
0.0883374
0.0744558
0.0551122
0.0291534
-0.00493648
-0.0487608
-0.10468
-0.174926
-0.259303
-0.367435
-0.537253
-0.522566
-0.634993
-0.582175
-0.381555
-0.29779
-0.24074
-0.190509
-0.149909
-0.118088
-0.0928273
-0.0744913
-0.0628942
-0.0574634
-0.0598631
-0.120063
-0.0703019
-0.0774888
-0.0876646
-0.0974837
-0.105637
-0.11168
-0.115572
-0.117685
-0.11844
-0.118251
-0.117445
-0.116271
-0.114921
-0.113562
-0.112352
-0.11146
-0.111054
-0.111293
-0.112313
-0.114181
-0.116922
-0.121444
0.115377
0.110089
0.101565
0.0889888
0.0711783
0.0469428
0.0147805
-0.0268686
-0.0802737
-0.147506
-0.229725
-0.364777
-0.508033
-0.463792
-0.62307
-0.598115
-0.399403
-0.299813
-0.239569
-0.183758
-0.138286
-0.103244
-0.0761766
-0.0572297
-0.0459233
-0.0415429
-0.058196
-0.114878
-0.086948
-0.0688489
-0.0812339
-0.0927401
-0.102167
-0.109199
-0.114046
-0.1172
-0.11912
-0.120199
-0.120727
-0.120916
-0.120928
-0.120903
-0.120963
-0.121208
-0.121714
-0.122544
-0.123723
-0.12516
-0.126761
-0.129349
0.127466
0.123288
0.116109
0.105131
0.0891943
0.0670936
0.0373473
-0.00152547
-0.0516603
-0.114845
-0.192844
-0.297442
-0.410626
-0.420434
-0.60401
-0.585002
-0.380787
-0.29873
-0.235993
-0.175688
-0.126015
-0.0881856
-0.0598357
-0.0408667
-0.0304785
-0.0277826
-0.0673269
-0.108944
-0.114595
-0.0652318
-0.0787813
-0.0915609
-0.101875
-0.109583
-0.115124
-0.119041
-0.121808
-0.123786
-0.125233
-0.126323
-0.127186
-0.127932
-0.128657
-0.129431
-0.130291
-0.131264
-0.132353
-0.133462
-0.134523
-0.136428
0.140346
0.137478
0.131876
0.122762
0.109007
0.0894082
0.0625052
0.0268938
-0.0194149
-0.0781715
-0.151195
-0.231804
-0.306677
-0.387141
-0.590125
-0.52937
-0.359044
-0.29492
-0.230734
-0.167226
-0.114247
-0.074246
-0.0451896
-0.0266946
-0.0175833
-0.0167659
-0.05246
-0.105377
-0.0959934
-0.0659855
-0.0809799
-0.0942521
-0.104822
-0.11279
-0.118688
-0.123063
-0.126362
-0.128905
-0.130911
-0.132534
-0.133886
-0.135064
-0.136141
-0.137163
-0.138164
-0.139181
-0.140212
-0.141141
-0.141936
-0.14356
0.153946
0.152571
0.148751
0.141739
0.130447
0.113675
0.089981
0.0580003
0.0158543
-0.0384942
-0.107259
-0.187681
-0.265824
-0.386948
-0.57132
-0.486306
-0.345358
-0.289248
-0.22509
-0.15982
-0.104695
-0.0633514
-0.0342288
-0.0166296
-0.00904554
-0.0103915
-0.0260503
-0.1038
-0.0663357
-0.0706428
-0.0867252
-0.100187
-0.110711
-0.118655
-0.124628
-0.129175
-0.132715
-0.135532
-0.137817
-0.139697
-0.141276
-0.142641
-0.143862
-0.14498
-0.146023
-0.147027
-0.147996
-0.148809
-0.14945
-0.150953
0.168184
0.168463
0.16661
0.161919
0.153341
0.139687
0.119521
0.0914832
0.0537655
0.00393953
-0.0608062
-0.140587
-0.221707
-0.43994
-0.541842
-0.454123
-0.334405
-0.2828
-0.220544
-0.155372
-0.0996882
-0.0579898
-0.0294693
-0.0131473
-0.00733097
-0.0108709
-0.0840364
-0.109061
-0.0606767
-0.0785368
-0.0954166
-0.108974
-0.119291
-0.127008
-0.132826
-0.137304
-0.140831
-0.143668
-0.145986
-0.147906
-0.149523
-0.150915
-0.152143
-0.153242
-0.154245
-0.155196
-0.156096
-0.156806
-0.157321
-0.15875
0.182963
0.185041
0.185323
0.183149
0.177518
0.167239
0.150887
0.127094
0.0940847
0.0490803
-0.011583
-0.0902094
-0.17359
-0.446684
-0.509379
-0.406902
-0.325413
-0.285452
-0.236562
-0.162513
-0.10168
-0.0608578
-0.0335897
-0.0187616
-0.0147485
-0.0256472
-0.117253
-0.0821438
-0.0709324
-0.0912164
-0.108079
-0.121118
-0.13079
-0.13793
-0.143293
-0.147426
-0.150689
-0.153317
-0.155463
-0.157239
-0.158729
-0.160008
-0.161129
-0.162126
-0.163029
-0.163884
-0.164685
-0.165274
-0.165658
-0.167021
0.198177
0.202182
0.20475
0.205273
0.202791
0.196116
0.183831
0.164564
0.136516
0.0966002
0.0396336
-0.0376228
-0.206562
-0.405065
-0.475086
-0.356847
-0.314548
-0.292304
-0.242105
-0.182595
-0.114764
-0.0745023
-0.0488346
-0.035232
-0.0322742
-0.0641012
-0.136215
-0.0968117
-0.0918152
-0.110662
-0.125853
-0.137231
-0.145503
-0.151546
-0.156065
-0.159536
-0.162267
-0.164455
-0.166235
-0.167703
-0.168935
-0.169992
-0.170915
-0.171732
-0.17247
-0.173179
-0.173846
-0.17429
-0.174525
-0.175809
0.213703
0.21975
0.22474
0.228116
0.228955
0.226076
0.218073
0.203581
0.180718
0.146117
0.0930632
0.0174704
-0.22916
-0.354578
-0.374907
-0.324153
-0.325786
-0.300345
-0.252673
-0.192308
-0.137787
-0.101099
-0.0769061
-0.0637772
-0.0608397
-0.0949944
-0.169355
-0.158798
-0.120444
-0.136069
-0.148287
-0.15707
-0.163266
-0.167708
-0.170989
-0.173485
-0.175429
-0.176971
-0.178216
-0.17924
-0.180097
-0.180834
-0.18148
-0.182053
-0.182577
-0.1831
-0.183602
-0.183876
-0.183945
-0.185135
0.22941
0.237599
0.245125
0.25148
0.255779
0.256852
0.253308
0.243809
0.226358
0.197298
0.148612
0.0751918
-0.0700385
-0.211064
-0.240036
-0.296995
-0.317335
-0.299446
-0.25842
-0.216089
-0.176163
-0.142424
-0.118639
-0.104926
-0.10105
-0.125842
-0.210369
-0.202021
-0.153879
-0.165631
-0.174125
-0.179745
-0.183442
-0.18594
-0.1877
-0.188982
-0.189939
-0.190671
-0.191246
-0.191712
-0.192105
-0.192451
-0.192765
-0.19305
-0.193324
-0.193631
-0.193942
-0.194025
-0.193912
-0.194995
0.245156
0.255566
0.265716
0.275145
0.283006
0.288146
0.289206
0.284879
0.27304
0.249536
0.205473
0.121916
0.0203527
-0.0894209
-0.188467
-0.264156
-0.300784
-0.305049
-0.291244
-0.263781
-0.22935
-0.198027
-0.173882
-0.158417
-0.153084
-0.228934
-0.258736
-0.209126
-0.191002
-0.198116
-0.202289
-0.204377
-0.205306
-0.20564
-0.205686
-0.205592
-0.20543
-0.205244
-0.205063
-0.204905
-0.204781
-0.204695
-0.204642
-0.204614
-0.204618
-0.204695
-0.204804
-0.20469
-0.204394
-0.205368
0.260795
0.273478
0.28631
0.298873
0.310356
0.31964
0.32541
0.326378
0.32028
0.302137
0.258165
0.171198
0.0701549
-0.0522214
-0.169002
-0.24621
-0.304147
-0.33575
-0.341972
-0.326803
-0.296708
-0.26635
-0.240603
-0.222363
-0.225577
-0.303297
-0.31311
-0.229159
-0.230548
-0.2323
-0.231761
-0.230116
-0.228125
-0.226172
-0.224402
-0.222848
-0.221501
-0.220349
-0.219376
-0.218567
-0.217904
-0.21737
-0.216943
-0.216599
-0.216334
-0.216185
-0.216099
-0.215798
-0.215332
-0.216203
0.276175
0.291155
0.306689
0.322407
0.337538
0.351002
0.361545
0.36787
0.367549
0.354642
0.310789
0.233077
0.0942944
-0.0517166
-0.178409
-0.253364
-0.325918
-0.381334
-0.407097
-0.402737
-0.375252
-0.343859
-0.314997
-0.292848
-0.288859
-0.366888
-0.369062
-0.276397
-0.272091
-0.267313
-0.261649
-0.256117
-0.251145
-0.246872
-0.243266
-0.240239
-0.237705
-0.235592
-0.233838
-0.232391
-0.231206
-0.230244
-0.229464
-0.228826
-0.228318
-0.227967
-0.22771
-0.227246
-0.226637
-0.227425
0.291136
0.308404
0.326629
0.345481
0.364255
0.381889
0.397217
0.40888
0.414175
0.406046
0.370953
0.299227
0.125883
-0.0197337
-0.160574
-0.257938
-0.360793
-0.439326
-0.482892
-0.486798
-0.459787
-0.425832
-0.393128
-0.366677
-0.387823
-0.431475
-0.379619
-0.323758
-0.312719
-0.301337
-0.29066
-0.281362
-0.27352
-0.267018
-0.261648
-0.257217
-0.253563
-0.250552
-0.248077
-0.24605
-0.244397
-0.243055
-0.241967
-0.24108
-0.240369
-0.239859
-0.239473
-0.23889
-0.238184
-0.238925
0.305516
0.325032
0.345899
0.367842
0.390185
0.411951
0.432015
0.448873
0.459339
0.454614
0.421384
0.313738
0.158546
0.00487181
-0.121898
-0.273584
-0.406371
-0.505677
-0.563245
-0.57884
-0.545302
-0.508045
-0.471368
-0.440612
-0.506309
-0.494623
-0.388132
-0.367682
-0.349507
-0.332321
-0.317313
-0.304717
-0.294338
-0.285848
-0.278908
-0.273233
-0.268594
-0.264806
-0.261716
-0.259204
-0.257167
-0.255523
-0.254199
-0.253128
-0.252279
-0.251667
-0.251208
-0.250565
-0.249822
-0.250563
0.319147
0.340838
0.364264
0.389202
0.415031
0.440826
0.465513
0.487371
0.5024
0.499495
0.464467
0.320012
0.183241
0.0436873
-0.125025
-0.305351
-0.458167
-0.592272
-0.824773
-0.68131
-0.625063
-0.585778
-0.546019
-0.52556
-0.57089
-0.54841
-0.433105
-0.406392
-0.381354
-0.359205
-0.340589
-0.325278
-0.312812
-0.302683
-0.294453
-0.287766
-0.282335
-0.277931
-0.274368
-0.271493
-0.269184
-0.267341
-0.265875
-0.264708
-0.263801
-0.263166
-0.262707
-0.262079
-0.261373
-0.262168
0.33186
0.355622
0.381489
0.409289
0.438468
0.468163
0.497344
0.523731
0.54305
0.540511
0.453386
0.347163
0.197646
0.0513248
-0.147419
-0.345115
-0.509212
-0.817375
-1.00778
-0.748847
-0.697063
-0.655806
-0.614212
-0.653004
-0.627922
-0.530642
-0.471401
-0.437731
-0.407179
-0.381168
-0.359762
-0.342376
-0.328322
-0.316961
-0.307777
-0.300355
-0.294366
-0.289546
-0.28568
-0.282593
-0.280145
-0.278221
-0.276721
-0.275559
-0.274689
-0.274118
-0.273743
-0.273216
-0.272631
-0.273546
0.343484
0.369181
0.397332
0.427821
0.460169
0.49359
0.527077
0.558217
0.580147
0.567958
0.474921
0.366043
0.236579
0.0373268
-0.17948
-0.38805
-0.581638
-0.994747
-1.08104
-0.827638
-0.759562
-0.716138
-0.680422
-0.713601
-0.674779
-0.543082
-0.500068
-0.460531
-0.426045
-0.39744
-0.374188
-0.355443
-0.34036
-0.32822
-0.318455
-0.310611
-0.304327
-0.299313
-0.295334
-0.292201
-0.28976
-0.287887
-0.286474
-0.285428
-0.284698
-0.284285
-0.284084
-0.283749
-0.283376
-0.284477
0.35385
0.381314
0.411551
0.444505
0.479782
0.516684
0.554126
0.589436
0.613695
0.604534
0.54427
0.416256
0.246907
0.0184633
-0.214076
-0.427829
-0.811915
-1.05681
-1.13887
-1.10203
-0.811849
-0.764743
-0.794748
-0.753683
-0.67199
-0.56758
-0.518172
-0.474423
-0.437595
-0.407605
-0.38345
-0.364081
-0.348556
-0.336116
-0.326164
-0.318225
-0.31192
-0.306944
-0.303052
-0.300046
-0.297766
-0.29608
-0.294879
-0.294063
-0.29358
-0.293425
-0.293493
-0.293445
-0.293376
-0.29473
0.362797
0.391822
0.423905
0.459045
0.496932
0.53696
0.5779
0.616515
0.640529
0.63349
0.516915
0.423347
0.234346
-0.00300078
-0.244635
-0.461927
-0.944955
-1.09688
-1.17688
-1.19398
-0.870137
-0.803947
-0.83022
-0.775608
-0.63743
-0.577779
-0.524674
-0.479105
-0.441655
-0.411497
-0.387361
-0.368085
-0.352695
-0.340428
-0.33068
-0.322971
-0.316918
-0.312214
-0.30861
-0.305907
-0.303941
-0.302583
-0.301718
-0.301248
-0.301117
-0.301317
-0.301742
-0.302073
-0.302397
-0.304064
0.370173
0.400516
0.434154
0.471139
0.511232
0.553903
0.597729
0.638649
0.661138
0.603874
0.521241
0.409761
0.213027
-0.0275378
-0.270176
-0.485704
-0.898508
-1.11701
-1.19358
-1.2048
-1.13183
-0.882272
-0.828914
-0.726746
-0.635461
-0.573892
-0.519839
-0.474777
-0.438316
-0.409149
-0.385904
-0.367403
-0.3527
-0.341056
-0.331882
-0.324713
-0.319173
-0.314964
-0.311842
-0.30961
-0.30811
-0.307212
-0.306804
-0.30679
-0.30711
-0.307755
-0.308622
-0.309416
-0.310213
-0.312247
0.375841
0.407218
0.44207
0.480492
0.522297
0.566992
0.612931
0.654888
0.679684
0.600835
0.515332
0.401864
0.19184
-0.0473607
-0.28619
-0.500024
-0.768333
-1.11487
-1.18825
-1.11842
-1.01204
-0.902459
-0.759239
-0.684867
-0.617727
-0.556818
-0.504745
-0.462183
-0.428049
-0.400861
-0.379267
-0.36215
-0.348632
-0.338018
-0.329757
-0.323411
-0.318625
-0.315116
-0.312652
-0.311048
-0.310149
-0.309833
-0.309991
-0.31053
-0.311391
-0.312559
-0.313941
-0.315271
-0.316611
-0.319056
0.379679
0.411769
0.447446
0.486833
0.529767
0.575735
0.622884
0.664593
0.663488
0.59878
0.546476
0.38638
0.175466
-0.0597431
-0.290556
-0.501583
-0.683195
-0.913729
-0.955402
-0.877116
-0.83902
-0.811574
-0.719121
-0.651065
-0.585929
-0.528729
-0.480971
-0.442395
-0.411611
-0.387174
-0.36784
-0.352608
-0.340685
-0.331445
-0.324386
-0.319107
-0.315283
-0.312653
-0.311004
-0.310162
-0.309984
-0.310354
-0.311172
-0.312348
-0.313825
-0.315583
-0.31754
-0.319466
-0.321405
-0.324292
0.381588
0.414034
0.4501
0.489918
0.533329
0.579764
0.627304
0.662114
0.627011
0.591227
0.540728
0.368406
0.162168
-0.0597988
-0.280767
-0.482749
-0.646195
-0.762965
-0.819889
-0.81948
-0.784117
-0.731372
-0.667383
-0.602806
-0.543156
-0.492188
-0.450268
-0.416644
-0.389911
-0.368772
-0.352147
-0.339172
-0.32916
-0.32156
-0.31593
-0.311912
-0.30922
-0.307616
-0.30691
-0.306943
-0.307585
-0.30873
-0.310283
-0.312164
-0.314317
-0.316717
-0.319294
-0.321861
-0.324439
-0.32779
0.381492
0.413908
0.449888
0.489551
0.532722
0.578824
0.625929
0.663114
0.62004
0.577068
0.52216
0.352829
0.156936
-0.0502468
-0.256927
-0.445023
-0.59715
-0.703043
-0.753394
-0.750192
-0.713026
-0.661866
-0.602336
-0.544429
-0.492802
-0.449739
-0.414347
-0.386192
-0.363914
-0.346407
-0.33278
-0.322312
-0.314426
-0.308653
-0.304615
-0.302004
-0.30057
-0.300105
-0.300441
-0.301436
-0.302974
-0.304959
-0.307307
-0.309944
-0.312815
-0.315892
-0.319118
-0.322355
-0.325597
-0.329419
0.379345
0.411319
0.446708
0.485585
0.527725
0.572665
0.618024
0.625477
0.605897
0.604223
0.500035
0.338043
0.15746
-0.0320379
-0.220864
-0.392216
-0.529963
-0.623868
-0.667233
-0.661794
-0.625649
-0.579541
-0.528436
-0.480085
-0.437846
-0.40265
-0.374658
-0.352258
-0.334597
-0.320865
-0.31037
-0.302538
-0.296897
-0.293063
-0.29072
-0.289609
-0.289517
-0.290267
-0.291712
-0.293728
-0.296215
-0.299084
-0.302264
-0.305687
-0.309302
-0.313075
-0.316966
-0.320886
-0.324804
-0.329095
0.375129
0.406236
0.440503
0.477929
0.518203
0.561125
0.602723
0.582933
0.586076
0.58997
0.476194
0.325417
0.162257
-0.00768408
-0.176019
-0.328008
-0.449353
-0.530803
-0.567654
-0.562003
-0.530527
-0.492387
-0.451551
-0.413828
-0.381331
-0.354535
-0.333073
-0.316111
-0.302938
-0.292932
-0.285562
-0.280382
-0.277018
-0.275161
-0.274556
-0.27499
-0.276283
-0.278287
-0.280877
-0.283946
-0.287407
-0.291183
-0.295211
-0.299433
-0.303799
-0.308273
-0.312829
-0.317432
-0.322023
-0.326777
0.368863
0.398671
0.431272
0.46655
0.504104
0.544128
0.577421
0.561545
0.560718
0.561767
0.452043
0.314846
0.169211
0.0196019
-0.126981
-0.258305
-0.362425
-0.431748
-0.463252
-0.459428
-0.435138
-0.406479
-0.376241
-0.348726
-0.325209
-0.305956
-0.290634
-0.278742
-0.26979
-0.263329
-0.258965
-0.256361
-0.255229
-0.255326
-0.256448
-0.258424
-0.261105
-0.264369
-0.268109
-0.272237
-0.276676
-0.281361
-0.286236
-0.291254
-0.296366
-0.301533
-0.306746
-0.312019
-0.31727
-0.322469
0.360603
0.388688
0.419078
0.451504
0.485491
0.521539
0.527837
0.533576
0.553935
0.530008
0.426714
0.303493
0.175656
0.0464497
-0.0784467
-0.189248
-0.276533
-0.334652
-0.362036
-0.361351
-0.345023
-0.325667
-0.305174
-0.286654
-0.270916
-0.2582
-0.248322
-0.240989
-0.23588
-0.232688
-0.231131
-0.230958
-0.231953
-0.233927
-0.236721
-0.240197
-0.244234
-0.248732
-0.253602
-0.258769
-0.264168
-0.269744
-0.27545
-0.281247
-0.287089
-0.292932
-0.298781
-0.304704
-0.310593
-0.31622
0.350445
0.376403
0.404058
0.432955
0.462557
0.494367
0.499476
0.499623
0.550791
0.495521
0.3989
0.289315
0.179762
0.0700121
-0.0343312
-0.125869
-0.19761
-0.245758
-0.269867
-0.272565
-0.26355
-0.252159
-0.239786
-0.228663
-0.219354
-0.212118
-0.206893
-0.203524
-0.201813
-0.201553
-0.202546
-0.204609
-0.207579
-0.211314