/*--------------------------------*- C++ -*----------------------------------*\
  =========                 |
  \\      /  F ield         | OpenFOAM: The Open Source CFD Toolbox
   \\    /   O peration     | Website:  https://openfoam.org
    \\  /    A nd           | Version:  9
     \\/     M anipulation  |
\*---------------------------------------------------------------------------*/
FoamFile
{
    format      ascii;
    class       surfaceScalarField;
    location    "0.12";
    object      phi;
}
// * * * * * * * * * * * * * * * * * * * * * * * * * * * * * * * * * * * * * //

dimensions      [0 3 -1 0 0 0 0];

internalField   nonuniform List<scalar> 
9850
(
8.73358e-07
1.34314e-05
7.95904e-07
1.3862e-05
7.15788e-07
1.43672e-05
6.37176e-07
1.49421e-05
5.74542e-07
1.55543e-05
5.49518e-07
1.61177e-05
5.70368e-07
1.65578e-05
6.18175e-07
1.69476e-05
7.17877e-07
1.73878e-05
1.0412e-06
1.73171e-05
1.66805e-06
1.51606e-05
2.34576e-06
9.80758e-06
2.14711e-06
4.50964e-06
1.99145e-06
1.83148e-06
1.86472e-06
1.20344e-06
1.79064e-06
1.09114e-06
1.76876e-06
1.06879e-06
1.78072e-06
1.00326e-06
1.80827e-06
9.26253e-07
1.84613e-06
8.53145e-07
1.88535e-06
6.48777e-07
1.92836e-06
5.93886e-07
1.96892e-06
5.72106e-07
1.99967e-06
5.85335e-07
2.01598e-06
6.25084e-07
2.01595e-06
6.77991e-07
1.9994e-06
7.28961e-07
1.96764e-06
7.72525e-07
1.92242e-06
8.40418e-07
1.87689e-06
9.91299e-07
1.90564e-06
1.22516e-06
2.20415e-06
1.67637e-06
2.67628e-06
2.65952e-06
3.17368e-06
3.70537e-06
3.62198e-06
4.61658e-06
3.96349e-06
5.25343e-06
4.18029e-06
5.56173e-06
4.28986e-06
5.58562e-06
4.32631e-06
5.4169e-06
4.32283e-06
5.14747e-06
4.30267e-06
4.8443e-06
4.27825e-06
4.54495e-06
4.25434e-06
4.26491e-06
4.2318e-06
4.00731e-06
4.21015e-06
3.77035e-06
4.18881e-06
3.55121e-06
4.16751e-06
3.3475e-06
4.14622e-06
3.15747e-06
4.12508e-06
2.97969e-06
2.81177e-06
9.28162e-07
1.34971e-05
8.61658e-07
1.39285e-05
7.95736e-07
1.44331e-05
7.36775e-07
1.50011e-05
7.00366e-07
1.55907e-05
7.05597e-07
1.61125e-05
7.56999e-07
1.65064e-05
8.3896e-07
1.68656e-05
9.73613e-07
1.72531e-05
1.29993e-06
1.69908e-05
1.91024e-06
1.45503e-05
2.34195e-06
9.37586e-06
2.29797e-06
4.55362e-06
2.00595e-06
2.1235e-06
1.84572e-06
1.36367e-06
1.77969e-06
1.15717e-06
1.77223e-06
1.07624e-06
1.78969e-06
9.85803e-07
1.81292e-06
9.03023e-07
1.84061e-06
8.25454e-07
1.87015e-06
6.19242e-07
1.90523e-06
5.588e-07
1.93999e-06
5.37349e-07
1.96615e-06
5.5918e-07
1.97969e-06
6.11538e-07
1.98116e-06
6.76522e-07
1.96896e-06
7.41162e-07
1.93654e-06
8.04944e-07
1.87436e-06
9.02598e-07
1.79833e-06
1.06733e-06
1.83258e-06
1.19091e-06
2.061e-06
1.44795e-06
2.45238e-06
2.26813e-06
2.88588e-06
3.27188e-06
3.29474e-06
4.20772e-06
3.62792e-06
4.92025e-06
3.85975e-06
5.32989e-06
3.99478e-06
5.45059e-06
4.05596e-06
5.35571e-06
4.07118e-06
5.13226e-06
4.06321e-06
4.85227e-06
4.04637e-06
4.56179e-06
4.02761e-06
4.28367e-06
4.00927e-06
4.02565e-06
3.99153e-06
3.78809e-06
3.97392e-06
3.56883e-06
3.95593e-06
3.36548e-06
3.93727e-06
3.17613e-06
3.91828e-06
2.99868e-06
2.83415e-06
9.84289e-07
1.35538e-05
9.28685e-07
1.39841e-05
8.76788e-07
1.4485e-05
8.36397e-07
1.50415e-05
8.23288e-07
1.56038e-05
8.54137e-07
1.60816e-05
9.31141e-07
1.64294e-05
1.04369e-06
1.67531e-05
1.21031e-06
1.70865e-05
1.51883e-06
1.66823e-05
2.01717e-06
1.4052e-05
2.37838e-06
9.01465e-06
2.53336e-06
4.39864e-06
2.01654e-06
2.64033e-06
1.83309e-06
1.54711e-06
1.78314e-06
1.20712e-06
1.79535e-06
1.06404e-06
1.81783e-06
9.63318e-07
1.83362e-06
8.87237e-07
1.84665e-06
8.1242e-07
1.86101e-06
6.04888e-07
1.88177e-06
5.38039e-07
1.90478e-06
5.1434e-07
1.91909e-06
5.44865e-07
1.91881e-06
6.11819e-07
1.90781e-06
6.87524e-07
1.88771e-06
7.6126e-07
1.85113e-06
8.41531e-07
1.78495e-06
9.68772e-07
1.71827e-06
1.13401e-06
1.78159e-06
1.12759e-06
1.9992e-06
1.23035e-06
2.31577e-06
1.95157e-06
2.66971e-06
2.91793e-06
3.02514e-06
3.85229e-06
3.33381e-06
4.61157e-06
3.56564e-06
5.09806e-06
3.71471e-06
5.30153e-06
3.79442e-06
5.276e-06
3.82616e-06
5.10051e-06
3.83032e-06
4.84811e-06
3.82157e-06
4.57054e-06
3.80833e-06
4.29691e-06
3.79437e-06
4.03961e-06
3.78084e-06
3.80162e-06
3.76782e-06
3.58185e-06
3.75519e-06
3.37811e-06
3.74295e-06
3.18837e-06
3.7306e-06
3.01102e-06
2.84654e-06
1.04122e-06
1.36018e-05
9.96103e-07
1.40292e-05
9.57454e-07
1.45237e-05
9.34128e-07
1.50648e-05
9.41517e-07
1.55964e-05
9.93826e-07
1.60293e-05
1.09214e-06
1.63311e-05
1.23216e-06
1.6613e-05
1.43286e-06
1.68858e-05
1.73737e-06
1.63778e-05
2.17058e-06
1.36188e-05
2.52341e-06
8.66182e-06
2.83206e-06
4.08999e-06
2.1305e-06
3.34189e-06
1.88047e-06
1.79714e-06
1.83453e-06
1.25306e-06
1.85557e-06
1.043e-06
1.87201e-06
9.4688e-07
1.87407e-06
8.85176e-07
1.86843e-06
8.18053e-07
1.86273e-06
6.10587e-07
1.86244e-06
5.38332e-07
1.86827e-06
5.08513e-07
1.86678e-06
5.46348e-07
1.84178e-06
6.36826e-07
1.79857e-06
7.30734e-07
1.7539e-06
8.05923e-07
1.71554e-06
8.79898e-07
1.7128e-06
9.71509e-07
1.73996e-06
1.10686e-06
1.87679e-06
9.90758e-07
2.06583e-06
1.04131e-06
2.27468e-06
1.74271e-06
2.53511e-06
2.65751e-06
2.82222e-06
3.56518e-06
3.09059e-06
4.3432e-06
3.30673e-06
4.88192e-06
3.4573e-06
5.15096e-06
3.54694e-06
5.18635e-06
3.59043e-06
5.05702e-06
3.60459e-06
4.83395e-06
3.60315e-06
4.57198e-06
3.59502e-06
4.30504e-06
3.58485e-06
4.04978e-06
3.57452e-06
3.81195e-06
3.56446e-06
3.5919e-06
3.5546e-06
3.38797e-06
3.54472e-06
3.19825e-06
3.53452e-06
3.02123e-06
2.85756e-06
1.09837e-06
1.36416e-05
1.0632e-06
1.40644e-05
1.0369e-06
1.455e-05
1.02886e-06
1.50728e-05
1.05354e-06
1.55717e-05
1.12283e-06
1.596e-05
1.23755e-06
1.62164e-05
1.39889e-06
1.64517e-05
1.62889e-06
1.66558e-05
1.94311e-06
1.60636e-05
2.30706e-06
1.32548e-05
2.61765e-06
8.35123e-06
2.72897e-06
3.97867e-06
2.33756e-06
3.7333e-06
2.08471e-06
2.04998e-06
1.99257e-06
1.3452e-06
1.97258e-06
1.06299e-06
1.9547e-06
9.64758e-07
1.93267e-06
9.07208e-07
1.90677e-06
8.43952e-07
1.8788e-06
6.38558e-07
1.85237e-06
5.64766e-07
1.83764e-06
5.23244e-07
1.82554e-06
5.58446e-07
1.78445e-06
6.77913e-07
1.71576e-06
7.99424e-07
1.65953e-06
8.62156e-07
1.66703e-06
8.72396e-07
1.77175e-06
8.6679e-07
1.93861e-06
9.39997e-07
2.13331e-06
7.96056e-07
2.15467e-06
1.01995e-06
2.21707e-06
1.6803e-06
2.41616e-06
2.45842e-06
2.65256e-06
3.32878e-06
2.88272e-06
4.11304e-06
3.07718e-06
4.68746e-06
3.22098e-06
5.00716e-06
3.31354e-06
5.09379e-06
3.36412e-06
5.00644e-06
3.38575e-06
4.81232e-06
3.39041e-06
4.56733e-06
3.38671e-06
4.30874e-06
3.37968e-06
4.0568e-06
3.37171e-06
3.81992e-06
3.3636e-06
3.6e-06
3.35547e-06
3.39611e-06
3.34717e-06
3.20655e-06
3.33841e-06
3.02999e-06
2.86651e-06
1.15537e-06
1.36733e-05
1.12955e-06
1.40902e-05
1.11454e-06
1.4565e-05
1.11974e-06
1.50676e-05
1.15826e-06
1.55332e-05
1.23971e-06
1.58786e-05
1.36433e-06
1.60918e-05
1.53586e-06
1.62802e-05
1.77706e-06
1.64146e-05
2.08786e-06
1.57528e-05
2.40076e-06
1.29419e-05
2.65961e-06
8.09238e-06
2.84115e-06
3.79713e-06
2.73911e-06
3.83535e-06
2.40715e-06
2.38194e-06
2.23054e-06
1.52181e-06
2.13127e-06
1.16226e-06
2.05527e-06
1.04076e-06
2.00184e-06
9.60642e-07
1.95757e-06
8.88223e-07
1.91004e-06
6.86082e-07
1.85481e-06
6.19998e-07
1.81566e-06
5.62395e-07
1.80353e-06
5.70574e-07
1.77767e-06
7.03771e-07
1.72379e-06
8.53311e-07
1.7064e-06
8.79541e-07
1.76328e-06
8.15522e-07
1.86585e-06
7.64219e-07
1.89631e-06
9.09532e-07
1.95091e-06
7.41457e-07
2.06845e-06
9.02408e-07
2.18247e-06
1.56628e-06
2.32716e-06
2.31373e-06
2.51164e-06
3.1443e-06
2.70212e-06
3.92255e-06
2.87066e-06
4.51893e-06
3.0019e-06
4.87592e-06
3.09193e-06
5.00376e-06
3.14569e-06
4.95269e-06
3.17256e-06
4.78545e-06
3.18235e-06
4.55753e-06
3.18282e-06
4.30828e-06
3.17894e-06
4.06068e-06
3.17339e-06
3.82548e-06
3.16728e-06
3.60611e-06
3.16093e-06
3.40246e-06
3.15428e-06
3.2132e-06
3.14691e-06
3.03735e-06
2.87423e-06
1.21189e-06
1.36977e-05
1.19475e-06
1.41073e-05
1.18986e-06
1.45699e-05
1.20623e-06
1.50513e-05
1.25524e-06
1.54842e-05
1.34395e-06
1.57899e-05
1.47106e-06
1.59647e-05
1.63948e-06
1.61118e-05
1.86863e-06
1.61854e-05
2.16009e-06
1.54613e-05
2.42429e-06
1.26777e-05
2.6642e-06
7.85247e-06
2.85584e-06
3.60548e-06
3.05825e-06
3.63294e-06
2.59766e-06
2.84253e-06
2.41048e-06
1.709e-06
2.26537e-06
1.30737e-06
2.14765e-06
1.15848e-06
2.07358e-06
1.03471e-06
2.01739e-06
9.44409e-07
1.95507e-06
7.48408e-07
1.87482e-06
7.00245e-07
1.80338e-06
6.33839e-07
1.78088e-06
5.9307e-07
1.78157e-06
7.0308e-07
1.75462e-06
8.80259e-07
1.76901e-06
8.65155e-07
1.86621e-06
7.18321e-07
1.85948e-06
7.70945e-07
1.79995e-06
9.6906e-07
1.82669e-06
7.14717e-07
1.94089e-06
7.88212e-07
2.14749e-06
1.35969e-06
2.27006e-06
2.19116e-06
2.4016e-06
3.01277e-06
2.54628e-06
3.77788e-06
2.68426e-06
4.38094e-06
2.79817e-06
4.76202e-06
2.88117e-06
4.92076e-06
2.93461e-06
4.89924e-06
2.96459e-06
4.75548e-06
2.9785e-06
4.54361e-06
2.98284e-06
4.30395e-06
2.98213e-06
4.06138e-06
2.97904e-06
3.82857e-06
2.97483e-06
3.61032e-06
2.96994e-06
3.40735e-06
2.96433e-06
3.21881e-06
2.95766e-06
3.04403e-06
2.88089e-06
1.26772e-06
1.37149e-05
1.25857e-06
1.41165e-05
1.26262e-06
1.45658e-05
1.28819e-06
1.50257e-05
1.34468e-06
1.54277e-05
1.4364e-06
1.56981e-05
1.55967e-06
1.58414e-05
1.71469e-06
1.59567e-05
1.91784e-06
1.59823e-05
2.16803e-06
1.52111e-05
2.37378e-06
1.2472e-05
2.52255e-06
7.7037e-06
2.62541e-06
3.50263e-06
2.87814e-06
3.3802e-06
2.55786e-06
3.16281e-06
2.48966e-06
1.7772e-06
2.34939e-06
1.44765e-06
2.22249e-06
1.28537e-06
2.14908e-06
1.10812e-06
2.08545e-06
1.00804e-06
2.0161e-06
8.1776e-07
1.92863e-06
7.87712e-07
1.83074e-06
7.31738e-07
1.76413e-06
6.59678e-07
1.72772e-06
7.39492e-07
1.72693e-06
8.81047e-07
1.79388e-06
7.98202e-07
1.82855e-06
6.83649e-07
1.88681e-06
7.12688e-07
1.99322e-06
8.62647e-07
1.95855e-06
7.49386e-07
1.88218e-06
8.64583e-07
2.00799e-06
1.23388e-06
2.17456e-06
2.02459e-06
2.28815e-06
2.89917e-06
2.3993e-06
3.66672e-06
2.50952e-06
4.27072e-06
2.60551e-06
4.66603e-06
2.67954e-06
4.84673e-06
2.7306e-06
4.84818e-06
2.7621e-06
4.72397e-06
2.7793e-06
4.52642e-06
2.78727e-06
4.29598e-06
2.7899e-06
4.05875e-06
2.78969e-06
3.82878e-06
2.78799e-06
3.61202e-06
2.7854e-06
3.40995e-06
2.78204e-06
3.22217e-06
2.77791e-06
3.04815e-06
2.88396e-06
1.32271e-06
1.37256e-05
1.32091e-06
1.41183e-05
1.33284e-06
1.45539e-05
1.36591e-06
1.49926e-05
1.42747e-06
1.53661e-05
1.51908e-06
1.56065e-05
1.6345e-06
1.5726e-05
1.77015e-06
1.58211e-05
1.93739e-06
1.5815e-05
2.13308e-06
1.50154e-05
2.28226e-06
1.23228e-05
2.34971e-06
7.63626e-06
2.29876e-06
3.55358e-06
2.47037e-06
3.20859e-06
2.521e-06
3.11218e-06
2.39268e-06
1.90551e-06
2.4039e-06
1.43643e-06
2.30521e-06
1.38406e-06
2.22974e-06
1.18359e-06
2.15755e-06
1.08022e-06
2.08924e-06
8.86074e-07
2.02455e-06
8.52399e-07
1.96242e-06
7.93868e-07
1.84228e-06
7.79811e-07
1.67459e-06
9.07185e-07
1.47139e-06
1.08425e-06
1.58767e-06
6.8192e-07
1.70559e-06
5.65735e-07
1.85074e-06
5.67537e-07
2.03096e-06
6.82421e-07
2.04492e-06
7.3543e-07
2.01674e-06
8.92759e-07
2.04618e-06
1.20444e-06
2.13338e-06
1.9374e-06
2.19491e-06
2.83764e-06
2.26647e-06
3.59516e-06
2.34692e-06
4.19027e-06
2.42368e-06
4.58927e-06
2.48724e-06
4.78316e-06
2.53433e-06
4.80109e-06
2.56603e-06
4.69227e-06
2.58561e-06
4.50684e-06
2.59679e-06
4.2848e-06
2.6027e-06
4.05284e-06
2.60554e-06
3.82594e-06
2.60662e-06
3.61094e-06
2.60659e-06
3.40997e-06
2.60568e-06
3.22309e-06
2.60409e-06
3.04974e-06
2.88486e-06
1.37676e-06
1.37301e-05
1.38175e-06
1.41133e-05
1.40066e-06
1.4535e-05
1.43991e-06
1.49534e-05
1.50486e-06
1.53012e-05
1.59461e-06
1.55168e-05
1.70079e-06
1.56198e-05
1.81659e-06
1.57053e-05
1.94818e-06
1.56834e-05
2.0915e-06
1.48721e-05
2.2035e-06
1.22108e-05
2.21787e-06
7.62188e-06
2.07169e-06
3.69976e-06
2.17982e-06
3.10046e-06
2.34359e-06
2.94841e-06
2.40966e-06
1.83944e-06
2.47586e-06
1.37024e-06
2.36477e-06
1.49515e-06
2.27455e-06
1.27381e-06
2.19521e-06
1.15957e-06
2.15779e-06
9.23488e-07
2.12814e-06
8.82047e-07
2.08743e-06
8.34579e-07
1.945e-06
9.22245e-07
1.81358e-06
1.0386e-06
1.75583e-06
1.142e-06
1.74664e-06
6.91119e-07
1.81895e-06
4.93424e-07
1.92962e-06
4.5686e-07
2.06224e-06
5.49807e-07
2.10454e-06
6.93131e-07
2.07204e-06
9.25257e-07
2.01031e-06
1.26616e-06
2.01431e-06
1.9334e-06
2.06843e-06
2.78352e-06
2.12695e-06
3.53665e-06
2.18966e-06
4.12756e-06
2.25109e-06
4.52785e-06
2.30462e-06
4.72963e-06
2.34682e-06
4.75889e-06
2.37745e-06
4.66165e-06
2.39826e-06
4.48602e-06
2.41176e-06
4.2713e-06
2.4203e-06
4.0443e-06
2.42568e-06
3.82056e-06
2.42908e-06
3.60754e-06
2.43114e-06
3.4079e-06
2.43221e-06
3.22202e-06
2.43267e-06
3.04928e-06
2.88424e-06
1.42982e-06
1.37287e-05
1.4411e-06
1.4102e-05
1.46627e-06
1.45098e-05
1.51075e-06
1.49089e-05
1.57809e-06
1.52338e-05
1.66554e-06
1.54293e-05
1.76343e-06
1.55219e-05
1.86347e-06
1.56053e-05
1.96852e-06
1.55784e-05
2.07339e-06
1.47672e-05
2.15602e-06
1.21281e-05
2.12462e-06
7.65328e-06
1.90532e-06
3.91906e-06
1.90692e-06
3.09887e-06
2.0782e-06
2.77712e-06
2.16531e-06
1.75234e-06
2.24283e-06
1.29272e-06
2.32604e-06
1.41194e-06
2.28654e-06
1.31331e-06
2.2168e-06
1.22931e-06
2.17052e-06
9.69774e-07
2.14345e-06
9.09114e-07
2.10035e-06
8.7768e-07
2.07631e-06
9.46282e-07
2.05865e-06
1.05626e-06
2.11524e-06
1.08541e-06
2.09133e-06
7.15031e-07
2.0852e-06
4.99549e-07
2.09631e-06
4.45751e-07
2.13771e-06
5.08413e-07
2.1527e-06
6.78133e-07
2.11652e-06
9.6144e-07
2.01188e-06
1.3708e-06
1.95427e-06
1.99101e-06
1.96673e-06
2.77106e-06
2.00459e-06
3.49879e-06
2.04838e-06
4.08377e-06
2.09345e-06
4.48278e-06
2.13527e-06
4.6878e-06
2.17057e-06
4.7236e-06
2.19815e-06
4.63406e-06
2.21851e-06
4.46567e-06
2.233e-06
4.25682e-06
2.24316e-06
4.03413e-06
2.25036e-06
3.81337e-06
2.25554e-06
3.60236e-06
2.25929e-06
3.40415e-06
2.26196e-06
3.21935e-06
2.26386e-06
3.04738e-06
2.88293e-06
1.48182e-06
1.37218e-05
1.49897e-06
1.40849e-05
1.52987e-06
1.44789e-05
1.57893e-06
1.48598e-05
1.64821e-06
1.51646e-05
1.73373e-06
1.53438e-05
1.82568e-06
1.54299e-05
1.91616e-06
1.55148e-05
2.00516e-06
1.54894e-05
2.08826e-06
1.46841e-05
2.14767e-06
1.20687e-05
2.07271e-06
7.72824e-06
1.81869e-06
4.17308e-06
1.72584e-06
3.19171e-06
1.85864e-06
2.64432e-06
1.89415e-06
1.71683e-06
1.95274e-06
1.23413e-06
2.07396e-06
1.29073e-06
2.1211e-06
1.26617e-06
2.11441e-06
1.23599e-06
2.0985e-06
9.85685e-07
2.0953e-06
9.12317e-07
2.10287e-06
8.70107e-07
2.13831e-06
9.10843e-07
2.22037e-06
9.74202e-07
2.35189e-06
9.53887e-07
2.35178e-06
7.1514e-07
2.30182e-06
5.49512e-07
2.25517e-06
4.92401e-07
2.22275e-06
5.40831e-07
2.19381e-06
7.07073e-07
2.14027e-06
1.01498e-06
2.03715e-06
1.47392e-06
1.95524e-06
2.07292e-06
1.92187e-06
2.80443e-06
1.92011e-06
3.50055e-06
1.93418e-06
4.0697e-06
1.95657e-06
4.46039e-06
1.98227e-06
4.6621e-06
2.00728e-06
4.69859e-06
2.02915e-06
4.61219e-06
2.04695e-06
4.44786e-06
2.06082e-06
4.24294e-06
2.07143e-06
4.02353e-06
2.07955e-06
3.80526e-06
2.08581e-06
3.5961e-06
2.09065e-06
3.39931e-06
2.0943e-06
3.2157e-06
2.09717e-06
3.04452e-06
2.88083e-06
1.53272e-06
1.37096e-05
1.55537e-06
1.40622e-05
1.59157e-06
1.44427e-05
1.64479e-06
1.48066e-05
1.71589e-06
1.50935e-05
1.80024e-06
1.52595e-05
1.88882e-06
1.53414e-05
1.97522e-06
1.54284e-05
2.05842e-06
1.54062e-05
2.13282e-06
1.46097e-05
2.17548e-06
1.20261e-05
2.08532e-06
7.8184e-06
1.84807e-06
4.41033e-06
1.68187e-06
3.3579e-06
1.78751e-06
2.53868e-06
1.82553e-06
1.67881e-06
1.82928e-06
1.23037e-06
1.91888e-06
1.20113e-06
2.00217e-06
1.18287e-06
2.0551e-06
1.18307e-06
2.08839e-06
9.52393e-07
2.11628e-06
8.84421e-07
2.14464e-06
8.41755e-07
2.20458e-06
8.50894e-07
2.31452e-06
8.64267e-07
2.44257e-06
8.2584e-07
2.45813e-06
6.99575e-07
2.4122e-06
5.95442e-07
2.34585e-06
5.58751e-07
2.27792e-06
6.08761e-07
2.21263e-06
7.72369e-07
2.14079e-06
1.08682e-06
2.03411e-06
1.5806e-06
1.94594e-06
2.1611e-06
1.88666e-06
2.8637e-06
1.85e-06
3.53721e-06
1.83339e-06
4.08631e-06
1.83167e-06
4.46211e-06
1.83974e-06
4.65403e-06
1.85293e-06
4.6854e-06
1.8676e-06
4.59752e-06
1.88153e-06
4.43394e-06
1.89365e-06
4.23082e-06
1.90374e-06
4.01344e-06
1.91196e-06
3.79703e-06
1.91858e-06
3.58948e-06
1.92379e-06
3.3941e-06
1.92784e-06
3.21165e-06
1.93141e-06
3.04095e-06
2.87777e-06
1.58241e-06
1.36924e-05
1.61026e-06
1.40344e-05
1.6514e-06
1.44016e-05
1.70848e-06
1.47495e-05
1.78141e-06
1.50205e-05
1.86528e-06
1.51756e-05
1.9525e-06
1.52541e-05
2.03867e-06
1.53422e-05
2.12252e-06
1.53223e-05
2.19541e-06
1.45369e-05
2.21911e-06
1.20024e-05
2.11716e-06
7.92036e-06
1.89858e-06
4.62891e-06
1.78105e-06
3.47543e-06
1.82925e-06
2.49048e-06
1.83799e-06
1.67008e-06
1.82125e-06
1.2471e-06
1.90388e-06
1.11851e-06
2.00647e-06
1.08028e-06
2.09586e-06
1.09368e-06
2.1525e-06
8.95755e-07
2.19244e-06
8.44475e-07
2.22776e-06
8.06432e-07
2.28573e-06
7.92926e-07
2.36878e-06
7.81215e-07
2.44801e-06
7.46614e-07
2.46653e-06
6.81056e-07
2.4354e-06
6.26567e-07
2.37531e-06
6.1885e-07
2.29808e-06
6.85987e-07
2.20874e-06
8.61703e-07
2.10997e-06
1.18559e-06
2.00566e-06
1.68491e-06
1.91203e-06
2.25472e-06
1.83529e-06
2.94043e-06
1.77232e-06
3.60018e-06
1.72958e-06
4.12905e-06
1.70633e-06
4.48536e-06
1.69833e-06
4.66203e-06
1.70053e-06
4.6832e-06
1.70836e-06
4.58968e-06
1.71843e-06
4.42387e-06
1.72863e-06
4.22062e-06
1.73792e-06
4.00415e-06
1.74589e-06
3.78906e-06
1.75248e-06
3.58289e-06
1.75772e-06
3.38886e-06
1.76195e-06
3.20741e-06
1.7659e-06
3.03701e-06
2.87466e-06
1.6308e-06
1.36704e-05
1.66355e-06
1.40016e-05
1.70933e-06
1.43558e-05
1.77004e-06
1.46888e-05
1.84483e-06
1.49457e-05
1.92885e-06
1.50916e-05
2.01576e-06
1.51672e-05
2.10317e-06
1.52548e-05
2.18942e-06
1.52361e-05
2.25941e-06
1.44669e-05
2.26055e-06
1.20012e-05
2.13425e-06
8.04666e-06
1.92821e-06
4.83494e-06
1.86444e-06
3.53921e-06
1.85327e-06
2.50165e-06
1.81769e-06
1.70566e-06
1.83993e-06
1.22486e-06
1.94017e-06
1.01827e-06
2.04911e-06
9.71345e-07
2.14518e-06
9.9761e-07
2.20667e-06
8.34266e-07
2.25067e-06
8.00474e-07
2.28822e-06
7.68883e-07
2.33379e-06
7.47352e-07
2.38701e-06
7.27999e-07
2.43206e-06
7.01568e-07
2.44533e-06
6.67784e-07
2.4244e-06
6.47493e-07
2.37621e-06
6.67042e-07
2.30489e-06
7.57303e-07
2.21253e-06
9.54067e-07
2.10619e-06
1.29192e-06
2.00327e-06
1.78784e-06
1.88707e-06
2.37093e-06
1.77893e-06
3.04857e-06
1.68654e-06
3.69257e-06
1.618e-06
4.19759e-06
1.57469e-06
4.52867e-06
1.55246e-06
4.68427e-06
1.54537e-06
4.69029e-06
1.54766e-06
4.58739e-06
1.55476e-06
4.41678e-06
1.56357e-06
4.2118e-06
1.57234e-06
3.99539e-06
1.58019e-06
3.78121e-06
1.58678e-06
3.5763e-06
1.59211e-06
3.38352e-06
1.59656e-06
3.20297e-06
1.60049e-06
3.03308e-06
2.87222e-06
1.67778e-06
1.3644e-05
1.71516e-06
1.39642e-05
1.76529e-06
1.43057e-05
1.82941e-06
1.46247e-05
1.90604e-06
1.48691e-05
1.99045e-06
1.50072e-05
2.07738e-06
1.50803e-05
2.16552e-06
1.51667e-05
2.25188e-06
1.51497e-05
2.31407e-06
1.44047e-05
2.29588e-06
1.20194e-05
2.14381e-06
8.19873e-06
1.9313e-06
5.04746e-06
1.86383e-06
3.60669e-06
1.8306e-06
2.53487e-06
1.79917e-06
1.73709e-06
1.8809e-06
1.14313e-06
1.99302e-06
9.06156e-07
2.09518e-06
8.69185e-07
2.17934e-06
9.1345e-07
2.23339e-06
7.80209e-07
2.27412e-06
7.59748e-07
2.30922e-06
7.33783e-07
2.34542e-06
7.11147e-07
2.38181e-06
6.91612e-07
2.40994e-06
6.73437e-07
2.41819e-06
6.59537e-07
2.4026e-06
6.63081e-07
2.36393e-06
7.05715e-07
2.30171e-06
8.19521e-07
2.21509e-06
1.04068e-06
2.1096e-06
1.39741e-06
1.98899e-06
1.90845e-06
1.84661e-06
2.51331e-06
1.70509e-06
3.19009e-06
1.58389e-06
3.81378e-06
1.49234e-06
4.28913e-06
1.43217e-06
4.58885e-06
1.39873e-06
4.7177e-06
1.38493e-06
4.7041e-06
1.38367e-06
4.58865e-06
1.3892e-06
4.41124e-06
1.39756e-06
4.20344e-06
1.40636e-06
3.98659e-06
1.41437e-06
3.77319e-06
1.42111e-06
3.56957e-06
1.42657e-06
3.37806e-06
1.43107e-06
3.19847e-06
1.43463e-06
3.02951e-06
2.87043e-06
1.72324e-06
1.36132e-05
1.76498e-06
1.39225e-05
1.81918e-06
1.42515e-05
1.88645e-06
1.45574e-05
1.96497e-06
1.47906e-05
2.0499e-06
1.49222e-05
2.13673e-06
1.49935e-05
2.22456e-06
1.50788e-05
2.30846e-06
1.50658e-05
2.36113e-06
1.4352e-05
2.32878e-06
1.20518e-05
2.1588e-06
8.36871e-06
1.92746e-06
5.27879e-06
1.83546e-06
3.69869e-06
1.83198e-06
2.53836e-06
1.87784e-06
1.69122e-06
1.96353e-06
1.05744e-06
2.0601e-06
8.09589e-07
2.14146e-06
7.87822e-07
2.20423e-06
8.50678e-07
2.24399e-06
7.40449e-07
2.27609e-06
7.27651e-07
2.30567e-06
7.04208e-07
2.33554e-06
6.81276e-07
2.36332e-06
6.63827e-07
2.38304e-06
6.53714e-07
2.38779e-06
6.54795e-07
2.37364e-06
6.77227e-07
2.33853e-06
7.40827e-07
2.27931e-06
8.78742e-07
2.19273e-06
1.12726e-06
2.07985e-06
1.51029e-06
1.93411e-06
2.05418e-06
1.75881e-06
2.68861e-06
1.59368e-06
3.35521e-06
1.45178e-06
3.95568e-06
1.34485e-06
4.39606e-06
1.27428e-06
4.65942e-06
1.23479e-06
4.75719e-06
1.21816e-06
4.72073e-06
1.21611e-06
4.5907e-06
1.22194e-06
4.40541e-06
1.23101e-06
4.19437e-06
1.24053e-06
3.97706e-06
1.24907e-06
3.76465e-06
1.25609e-06
3.56255e-06
1.26162e-06
3.37252e-06
1.26596e-06
3.19414e-06
1.26904e-06
3.02643e-06
2.86909e-06
1.76704e-06
1.35785e-05
1.81291e-06
1.38766e-05
1.87096e-06
1.41934e-05
1.94133e-06
1.44871e-05
2.02165e-06
1.47103e-05
2.10722e-06
1.48367e-05
2.1939e-06
1.49068e-05
2.28086e-06
1.49919e-05
2.36155e-06
1.49851e-05
2.40717e-06
1.43064e-05
2.36367e-06
1.20953e-05
2.18478e-06
8.5476e-06
1.95229e-06
5.51129e-06
1.87255e-06
3.77842e-06
1.86138e-06
2.54953e-06
1.95394e-06
1.59865e-06
2.04816e-06
9.63223e-07
2.12566e-06
7.32087e-07
2.18323e-06
7.30252e-07
2.22116e-06
8.12746e-07
2.24359e-06
7.18026e-07
2.26486e-06
7.06375e-07
2.2887e-06
6.80369e-07
2.31433e-06
6.55646e-07
2.33758e-06
6.40577e-07
2.35256e-06
6.38732e-07
2.35371e-06
6.53647e-07
2.3369e-06
6.94039e-07
2.29841e-06
7.79318e-07
2.23347e-06
9.43682e-07
2.13554e-06
1.22519e-06
2.00617e-06
1.63966e-06
1.83526e-06
2.2251e-06
1.63371e-06
2.89016e-06
1.44644e-06
3.54249e-06
1.29115e-06
4.11096e-06
1.17664e-06
4.51057e-06
1.10262e-06
4.73344e-06
1.06263e-06
4.79718e-06
1.04726e-06
4.7361e-06
1.04724e-06
4.59072e-06
1.0552e-06
4.39746e-06
1.06611e-06
4.18346e-06
1.07702e-06
3.96615e-06
1.08645e-06
3.75522e-06
1.09392e-06
3.55508e-06
1.09957e-06
3.36686e-06
1.10375e-06
3.18997e-06
1.1065e-06
3.02367e-06
2.86798e-06
1.80908e-06
1.35399e-05
1.85884e-06
1.38269e-05
1.92054e-06
1.41317e-05
1.99386e-06
1.44138e-05
2.07614e-06
1.4628e-05
2.1626e-06
1.47502e-05
2.2493e-06
1.48201e-05
2.33523e-06
1.4906e-05
2.41281e-06
1.49075e-05
2.45185e-06
1.42674e-05
2.39768e-06
1.21494e-05
2.2087e-06
8.73658e-06
1.98337e-06
5.73662e-06
1.9086e-06
3.85319e-06
1.9278e-06
2.53033e-06
2.02514e-06
1.50131e-06
2.11409e-06
8.74274e-07
2.17102e-06
6.75151e-07
2.20389e-06
6.97388e-07
2.21748e-06
7.99156e-07
2.2241e-06
7.11403e-07
2.23743e-06
6.93044e-07
2.25917e-06
6.58636e-07
2.28462e-06
6.30194e-07
2.30683e-06
6.18364e-07
2.31901e-06
6.26551e-07
2.31557e-06
6.57092e-07
2.29204e-06
7.17569e-07
2.2439e-06
8.27453e-07
2.16554e-06
1.02204e-06
2.04902e-06
1.34171e-06
1.88361e-06
1.80507e-06
1.68233e-06
2.42638e-06
1.46226e-06
3.11023e-06
1.26582e-06
3.73893e-06
1.10885e-06
4.26794e-06
9.95389e-07
4.62403e-06
9.24485e-07
4.80434e-06
8.88744e-07
4.83292e-06
8.77845e-07
4.747e-06
8.81875e-07
4.58669e-06
8.93143e-07
4.38619e-06
9.06548e-07
4.17006e-06
9.19169e-07
3.95353e-06
9.29656e-07
3.74474e-06
9.377e-07
3.54704e-06
9.43597e-07
3.36097e-06
9.47772e-07
3.18579e-06
9.5038e-07
3.02106e-06
2.86698e-06
1.84924e-06
1.34977e-05
1.90268e-06
1.37734e-05
1.96787e-06
1.40665e-05
2.04414e-06
1.43375e-05
2.12855e-06
1.45436e-05
2.21628e-06
1.46625e-05
2.3034e-06
1.4733e-05
2.38843e-06
1.48209e-05
2.4635e-06
1.48325e-05
2.49717e-06
1.42337e-05
2.42679e-06
1.22198e-05
2.22533e-06
8.93805e-06
2.02079e-06
5.94116e-06
1.94614e-06
3.92785e-06
1.96639e-06
2.51007e-06
2.06759e-06
1.40012e-06
2.14717e-06
7.94691e-07
2.17372e-06
6.48597e-07
2.17677e-06
6.94346e-07
2.17133e-06
8.04596e-07
2.17065e-06
7.12084e-07
2.18638e-06
6.77311e-07
2.21519e-06
6.29825e-07
2.24706e-06
5.9832e-07
2.27222e-06
5.93203e-07
2.28305e-06
6.1573e-07
2.27387e-06
6.66268e-07
2.23989e-06
7.51554e-07
2.17578e-06
8.91559e-07
2.07494e-06
1.12288e-06
1.92816e-06
1.48849e-06
1.72777e-06
2.00546e-06
1.50911e-06
2.64504e-06
1.28649e-06
3.33286e-06
1.08252e-06
3.9429e-06
9.24878e-07
4.42558e-06
8.15795e-07
4.73312e-06
7.51322e-07
4.86881e-06
7.22267e-07
4.86197e-06
7.17259e-07
4.752e-06
7.25974e-07
4.57798e-06
7.4068e-07
4.37149e-06
7.56428e-07
4.15431e-06
7.70527e-07
3.93943e-06
7.81881e-07
3.73338e-06
7.90416e-07
3.5385e-06
7.96569e-07
3.35481e-06
8.00795e-07
3.18157e-06
8.03298e-07
3.01856e-06
2.86607e-06
1.88739e-06
1.34522e-05
1.94434e-06
1.37165e-05
2.01291e-06
1.39979e-05
2.09217e-06
1.42582e-05
2.17901e-06
1.44567e-05
2.2685e-06
1.4573e-05
2.35669e-06
1.46448e-05
2.44129e-06
1.47363e-05
2.51413e-06
1.47596e-05
2.5402e-06
1.42076e-05
2.46182e-06
1.22982e-05
2.25609e-06
9.14378e-06
2.04987e-06
6.14738e-06
1.95883e-06
4.01888e-06
1.97017e-06
2.49873e-06
2.07399e-06
1.29631e-06
2.13178e-06
7.36898e-07
2.11416e-06
6.66217e-07
2.08338e-06
7.25123e-07
2.06889e-06
8.19091e-07
2.07755e-06
7.03416e-07
2.11286e-06
6.42005e-07
2.16087e-06
5.8182e-07
2.20592e-06
5.53265e-07
2.23701e-06
5.62116e-07
2.24705e-06
6.05683e-07
2.23107e-06
6.82248e-07
2.18438e-06
7.98251e-07
2.10125e-06
9.74686e-07
1.97481e-06
1.24932e-06
1.79926e-06
1.66404e-06
1.58013e-06
2.22459e-06
1.34095e-06
2.88422e-06
1.10892e-06
3.56489e-06
9.05288e-07
4.14652e-06
7.5132e-07
4.57954e-06
6.4922e-07
4.83522e-06
5.92781e-07
4.92525e-06
5.71044e-07
4.88371e-06
5.71818e-07
4.75123e-06
5.84625e-07
4.56517e-06
6.01954e-07
4.35416e-06
6.19208e-07
4.13705e-06
6.34065e-07
3.92458e-06
6.45756e-07
3.72169e-06
6.54439e-07
3.52982e-06
6.60632e-07
3.34862e-06
6.64771e-07
3.17743e-06
6.6711e-07
3.01622e-06
2.86525e-06
1.92341e-06
1.34034e-05
1.9837e-06
1.36562e-05
2.05559e-06
1.39261e-05
2.13796e-06
1.41759e-05
2.22761e-06
1.43671e-05
2.31953e-06
1.44811e-05
2.40975e-06
1.45545e-05
2.49518e-06
1.46509e-05
2.56725e-06
1.46876e-05
2.5902e-06
1.41847e-05
2.50721e-06
1.23812e-05
2.30525e-06
9.34575e-06
2.08948e-06
6.36315e-06
1.97859e-06
4.12977e-06
2.00117e-06
2.47615e-06
2.03858e-06
1.2589e-06
2.05139e-06
7.24083e-07
2.02034e-06
6.97271e-07
1.9469e-06
7.98554e-07
1.93539e-06
8.30606e-07
1.97004e-06
6.68767e-07
2.03941e-06
5.72637e-07
2.1127e-06
5.08526e-07
2.17191e-06
4.94056e-07
2.20776e-06
5.26269e-07
2.2153e-06
5.98137e-07
2.1908e-06
7.06754e-07
2.13001e-06
8.59035e-07
2.02766e-06
1.07704e-06
1.87826e-06
1.39872e-06
1.67965e-06
1.86265e-06
1.44075e-06
2.46349e-06
1.18198e-06
3.14299e-06
9.42876e-07
3.80399e-06
7.41721e-07
4.34768e-06
5.94716e-07
4.72655e-06
5.01734e-07
4.9282e-06
4.54145e-07
4.97284e-06
4.39479e-07
4.89838e-06
4.45101e-07
4.74561e-06
4.60749e-07
4.54952e-06
4.79408e-07
4.3355e-06
4.97008e-07
4.11945e-06
5.11692e-07
3.90989e-06
5.23037e-07
3.71035e-06
5.31383e-07
3.52148e-06
5.3727e-07
3.34273e-06
5.41106e-07
3.17359e-06
5.43198e-07
3.01413e-06
2.86454e-06
1.95714e-06
1.33515e-05
2.02063e-06
1.35927e-05
2.09581e-06
1.38509e-05
2.18145e-06
1.40902e-05
2.27437e-06
1.42742e-05
2.36956e-06
1.43859e-05
2.46312e-06
1.4461e-05
2.5516e-06
1.45624e-05
2.62634e-06
1.46128e-05
2.65143e-06
1.41596e-05
2.56923e-06
1.24634e-05
2.36821e-06
9.54677e-06
2.14875e-06
6.58261e-06
1.99231e-06
4.28621e-06
1.95011e-06
2.51834e-06
1.92393e-06
1.28509e-06
1.90841e-06
7.39597e-07
1.88945e-06
7.16231e-07
1.8447e-06
8.43306e-07
1.84077e-06
8.34534e-07
1.90962e-06
5.99922e-07
2.00911e-06
4.73143e-07
2.09713e-06
4.20509e-07
2.16017e-06
4.31016e-07
2.19295e-06
4.93492e-07
2.19275e-06
5.98334e-07
2.1563e-06
7.43201e-07
2.07906e-06
9.36283e-07
1.95559e-06
1.20051e-06
1.7817e-06
1.5726e-06
1.55914e-06
2.08521e-06
1.30332e-06
2.71931e-06
1.03369e-06
3.41262e-06
7.91966e-07
4.04572e-06
5.9723e-07
4.54241e-06
4.59783e-07
4.864e-06
3.76925e-07
5.01106e-06
3.37934e-07
5.01183e-06
3.29274e-07
4.90704e-06
3.38276e-07
4.73661e-06
3.55221e-07
4.53258e-06
3.73796e-07
4.31692e-06
3.90577e-07
4.10267e-06
4.04196e-07
3.89627e-06
4.14534e-07
3.70001e-06
4.22032e-07
3.51398e-06
4.272e-07
3.33757e-06
4.30415e-07
3.17037e-06
4.32039e-07
3.01251e-06
2.86401e-06
1.98844e-06
1.32969e-05
2.05499e-06
1.35261e-05
2.13344e-06
1.37724e-05
2.22253e-06
1.40011e-05
2.31921e-06
1.41775e-05
2.4186e-06
1.42865e-05
2.517e-06
1.43626e-05
2.61113e-06
1.44683e-05
2.69267e-06
1.45313e-05
2.72598e-06
1.41263e-05
2.65202e-06
1.25373e-05
2.45409e-06
9.7447e-06
2.23051e-06
6.80619e-06
2.07247e-06
4.44426e-06
1.95485e-06
2.63596e-06
1.89495e-06
1.34499e-06
1.88214e-06
7.52405e-07
1.86448e-06
7.33895e-07
1.83321e-06
8.74574e-07
1.85588e-06
8.11857e-07
1.96618e-06
4.89626e-07
2.06361e-06
3.7571e-07
2.13804e-06
3.46083e-07
2.18375e-06
3.85307e-07
2.19975e-06
4.77494e-07
2.18359e-06
6.1449e-07
2.13041e-06
7.96379e-07
2.03388e-06
1.03281e-06
1.88757e-06
1.34682e-06
1.68807e-06
1.7721e-06
1.44393e-06
2.32935e-06
1.16938e-06
2.99386e-06
8.9752e-07
3.68447e-06
6.5925e-07
4.28399e-06
4.74026e-07
4.72764e-06
3.47917e-07
4.9901e-06
2.75394e-07
5.08358e-06
2.44068e-07
5.04316e-06
2.39895e-07
4.91121e-06
2.50614e-07
4.72589e-06
2.67324e-07
4.51587e-06
2.8455e-07
4.2997e-06
2.99541e-07
4.08768e-06
3.11374e-07
3.88444e-06
3.20124e-07
3.69126e-06
3.26228e-07
3.50787e-06
3.30099e-07
3.33369e-06
3.3205e-07
3.16842e-06
3.32469e-07
3.01209e-06
2.86426e-06
2.01711e-06
1.32395e-05
2.08659e-06
1.34567e-05
2.16827e-06
1.36907e-05
2.26098e-06
1.39084e-05
2.36187e-06
1.40766e-05
2.46636e-06
1.4182e-05
2.57105e-06
1.42579e-05
2.67331e-06
1.4366e-05
2.76586e-06
1.44388e-05
2.81512e-06
1.4077e-05
2.76229e-06
1.25902e-05
2.57502e-06
9.93196e-06
2.34974e-06
7.03147e-06
2.18612e-06
4.60787e-06
1.96938e-06
2.85269e-06
1.92077e-06
1.3936e-06
1.97583e-06
6.97353e-07
2.02438e-06
6.85338e-07
2.04575e-06
8.53204e-07
2.10518e-06
7.5243e-07
2.16877e-06
4.26033e-07
2.21353e-06
3.30957e-07
2.23917e-06
3.20445e-07
2.24519e-06
3.79282e-07
2.2301e-06
4.92581e-07
2.18939e-06
6.55201e-07
2.11467e-06
8.71098e-07
1.99626e-06
1.15123e-06
1.82653e-06
1.51654e-06
1.60132e-06
1.99731e-06
1.33682e-06
2.59385e-06
1.0486e-06
3.28208e-06
7.77624e-07
3.95545e-06
5.46589e-07
4.51502e-06
3.72566e-07
4.90166e-06
2.58204e-07
5.10447e-06
1.95326e-07
5.14646e-06
1.70267e-07
5.06822e-06
1.68951e-07
4.91253e-06
1.79871e-07
4.71497e-06
1.95121e-07
4.50062e-06
2.10113e-07
4.28471e-06
2.22724e-07
4.07507e-06
2.32357e-07
3.87481e-06