/*--------------------------------*- C++ -*----------------------------------*\
  =========                 |
  \\      /  F ield         | OpenFOAM: The Open Source CFD Toolbox
   \\    /   O peration     | Website:  https://openfoam.org
    \\  /    A nd           | Version:  9
     \\/     M anipulation  |
\*---------------------------------------------------------------------------*/
FoamFile
{
    format      ascii;
    class       volScalarField;
    location    "0.12";
    object      rAU;
}
// * * * * * * * * * * * * * * * * * * * * * * * * * * * * * * * * * * * * * //

dimensions      [-1 3 1 0 0 0 0];

internalField   nonuniform List<scalar> 
5000
(
1.31015e-05
1.30505e-05
1.29897e-05
1.29195e-05
1.28427e-05
1.27685e-05
1.27052e-05
1.26442e-05
1.25687e-05
1.25246e-05
1.24419e-05
1.27851e-05
1.91748e-06
2.17001e-08
1.51688e-08
1.52e-08
1.52086e-08
1.52191e-08
1.52287e-08
1.52352e-08
1.51557e-08
1.51284e-08
1.50923e-08
1.50477e-08
1.49973e-08
1.4945e-08
1.48955e-08
1.48504e-08
1.48019e-08
1.78416e-08
1.34574e-07
8.52315e-06
1.01721e-05
1.1943e-05
1.20066e-05
1.16686e-05
1.13881e-05
1.11973e-05
1.10734e-05
1.09866e-05
1.09136e-05
1.08405e-05
1.07608e-05
1.06729e-05
1.05769e-05
1.04734e-05
1.03626e-05
1.02448e-05
1.01199e-05
1.04076e-05
1.30842e-05
1.30317e-05
1.29692e-05
1.28974e-05
1.28205e-05
1.27481e-05
1.26871e-05
1.26256e-05
1.2553e-05
1.25322e-05
1.2269e-05
1.29147e-05
3.03003e-06
2.4606e-08
1.51443e-08
1.51897e-08
1.52067e-08
1.52208e-08
1.52323e-08
1.52417e-08
1.51663e-08
1.51427e-08
1.51086e-08
1.50636e-08
1.50111e-08
1.49554e-08
1.49009e-08
1.48498e-08
1.47983e-08
1.94517e-08
2.61726e-07
9.57132e-06
1.02785e-05
1.18012e-05
1.2206e-05
1.18596e-05
1.15449e-05
1.13205e-05
1.11707e-05
1.10678e-05
1.09868e-05
1.09111e-05
1.08315e-05
1.07445e-05
1.06494e-05
1.05465e-05
1.04363e-05
1.0319e-05
1.01949e-05
1.04902e-05
1.30681e-05
1.30143e-05
1.29506e-05
1.28781e-05
1.28021e-05
1.27326e-05
1.26744e-05
1.26138e-05
1.25447e-05
1.25402e-05
1.24008e-05
1.31391e-05
6.08718e-06
3.26968e-08
1.51554e-08
1.51799e-08
1.52046e-08
1.52196e-08
1.52313e-08
1.5243e-08
1.51719e-08
1.51537e-08
1.51236e-08
1.508e-08
1.5028e-08
1.49736e-08
1.49194e-08
1.48654e-08
1.48163e-08
2.61708e-08
1.76741e-06
1.04976e-05
1.10302e-05
1.19129e-05
1.2377e-05
1.20352e-05
1.1699e-05
1.14466e-05
1.12729e-05
1.11532e-05
1.10627e-05
1.09829e-05
1.09025e-05
1.08161e-05
1.07218e-05
1.06194e-05
1.0509e-05
1.0391e-05
1.02652e-05
1.05623e-05
1.30532e-05
1.29985e-05
1.2934e-05
1.28616e-05
1.27873e-05
1.27213e-05
1.26668e-05
1.26086e-05
1.25436e-05
1.25331e-05
1.27942e-05
1.3366e-05
1.04247e-05
5.43114e-08
1.5489e-08
1.5162e-08
1.5197e-08
1.52122e-08
1.52238e-08
1.52377e-08
1.51702e-08
1.51585e-08
1.51346e-08
1.50936e-08
1.50424e-08
1.49929e-08
1.49467e-08
1.48967e-08
1.5623e-08
5.42882e-08
8.4072e-06
1.16897e-05
1.18173e-05
1.21782e-05
1.25193e-05
1.21872e-05
1.18418e-05
1.15693e-05
1.13757e-05
1.12407e-05
1.11406e-05
1.1056e-05
1.09742e-05
1.08881e-05
1.07949e-05
1.06937e-05
1.05846e-05
1.04678e-05
1.03435e-05
1.06493e-05
1.30395e-05
1.29842e-05
1.29195e-05
1.28478e-05
1.27759e-05
1.27139e-05
1.26637e-05
1.26095e-05
1.25503e-05
1.25495e-05
1.29012e-05
1.31616e-05
1.23853e-05
1.74898e-07
1.68349e-08
1.51161e-08
1.51706e-08
1.51926e-08
1.52081e-08
1.52252e-08
1.51599e-08
1.51546e-08
1.51388e-08
1.51013e-08
1.50466e-08
1.49967e-08
1.49583e-08
1.49192e-08
2.15269e-08
3.07962e-07
1.0181e-05
1.10494e-05
1.10754e-05
1.2516e-05
1.26486e-05
1.23237e-05
1.19717e-05
1.16864e-05
1.14772e-05
1.13289e-05
1.12197e-05
1.11301e-05
1.10465e-05
1.09606e-05
1.08685e-05
1.07687e-05
1.06609e-05
1.05454e-05
1.04222e-05
1.07358e-05
1.3027e-05
1.29715e-05
1.29069e-05
1.28364e-05
1.27675e-05
1.27099e-05
1.26645e-05
1.2616e-05
1.25651e-05
1.2604e-05
1.29467e-05
1.28911e-05
1.34535e-05
2.07579e-06
2.44716e-08
1.50594e-08
1.51219e-08
1.51589e-08
1.51847e-08
1.52069e-08
1.51414e-08
1.51405e-08
1.51346e-08
1.5104e-08
1.50407e-08
1.49782e-08
1.49414e-08
1.71879e-08
7.34062e-08
7.77498e-06
8.80056e-06
8.6905e-06
1.07949e-05
1.29918e-05
1.27685e-05
1.24381e-05
1.20903e-05
1.17966e-05
1.15763e-05
1.14173e-05
1.12999e-05
1.12055e-05
1.11197e-05
1.10336e-05
1.09422e-05
1.08437e-05
1.07372e-05
1.06229e-05
1.05006e-05
1.08225e-05
1.30157e-05
1.29601e-05
1.2896e-05
1.28272e-05
1.27616e-05
1.27087e-05
1.26684e-05
1.26263e-05
1.25859e-05
1.264e-05
1.2583e-05
1.28438e-05
1.40434e-05
9.16918e-06
9.68528e-08
1.74178e-08
1.50786e-08
1.51193e-08
1.51569e-08
1.51847e-08
1.51164e-08
1.51162e-08
1.51202e-08
1.51044e-08
1.50398e-08
1.49632e-08
1.64629e-08
5.00537e-08
6.64522e-06
1.22242e-05
8.95482e-06
8.63029e-06
1.03951e-05
1.33285e-05
1.29305e-05
1.25224e-05
1.21943e-05
1.18987e-05
1.16716e-05
1.15047e-05
1.13807e-05
1.12819e-05
1.11939e-05
1.11072e-05
1.10164e-05
1.09189e-05
1.08137e-05
1.07007e-05
1.05796e-05
1.09102e-05
1.30056e-05
1.29501e-05
1.28868e-05
1.28199e-05
1.27577e-05
1.27093e-05
1.2674e-05
1.26382e-05
1.26091e-05
1.26571e-05
1.23792e-05
1.30734e-05
1.4295e-05
1.34021e-05
4.35146e-06
4.51623e-08
1.62259e-08
1.50947e-08
1.51292e-08
1.51595e-08
1.50858e-08
1.50814e-08
1.50879e-08
1.50919e-08
1.50479e-08
1.78645e-08
5.25535e-08
4.26979e-06
1.32011e-05
1.39985e-05
1.33913e-05
1.03041e-05
1.0176e-05
1.23179e-05
1.30356e-05
1.26268e-05
1.22876e-05
1.19938e-05
1.17626e-05
1.15904e-05
1.14614e-05
1.13588e-05
1.12687e-05
1.11813e-05
1.10906e-05
1.09937e-05
1.08894e-05
1.0777e-05
1.06562e-05
1.09945e-05
1.29965e-05
1.29414e-05
1.28791e-05
1.28143e-05
1.27554e-05
1.27112e-05
1.26802e-05
1.26498e-05
1.26302e-05
1.26631e-05
1.24234e-05
1.36306e-05
1.43906e-05
1.42792e-05
1.31113e-05
2.86102e-06
4.44711e-08
1.79927e-08
1.51341e-08
1.51351e-08
1.50541e-08
1.50435e-08
1.51957e-08
1.71165e-08
2.48373e-08
8.78606e-08
4.84965e-06
1.27974e-05
1.42991e-05
1.43473e-05
1.42577e-05
1.37366e-05
1.04413e-05
1.06895e-05
1.30443e-05
1.27244e-05
1.23683e-05
1.20804e-05
1.18488e-05
1.16736e-05
1.15412e-05
1.14357e-05
1.13438e-05
1.12556e-05
1.1165e-05
1.10686e-05
1.09649e-05
1.08531e-05
1.07329e-05
1.10798e-05
1.29885e-05
1.29339e-05
1.28727e-05
1.281e-05
1.27543e-05
1.27137e-05
1.26861e-05
1.26596e-05
1.26468e-05
1.26574e-05
1.25301e-05
1.37375e-05
1.44053e-05
1.44697e-05
1.42665e-05
1.12759e-05
3.86364e-06
9.76944e-08
3.55112e-08
2.45892e-08
2.36945e-08
2.62491e-08
3.90303e-08
7.72267e-08
4.63046e-07
5.6707e-06
1.12241e-05
1.43214e-05
1.45206e-05
1.44171e-05
1.42715e-05
1.40594e-05
1.15157e-05
1.091e-05
1.29532e-05
1.27968e-05
1.24446e-05
1.21599e-05
1.19294e-05
1.17532e-05
1.16189e-05
1.15118e-05
1.14188e-05
1.13302e-05
1.12397e-05
1.11439e-05
1.1041e-05
1.09301e-05
1.08108e-05
1.11663e-05
1.29814e-05
1.29275e-05
1.28674e-05
1.28068e-05
1.27539e-05
1.27164e-05
1.26913e-05
1.26671e-05
1.26577e-05
1.2671e-05
1.30398e-05
1.37542e-05
1.43572e-05
1.44724e-05
1.43064e-05
1.40582e-05
1.15617e-05
6.55358e-06
2.96093e-06
6.51829e-07
5.59644e-07
8.91794e-07
3.85858e-06
5.9718e-06
9.35034e-06
1.21387e-05
1.39374e-05
1.45081e-05
1.45025e-05
1.44107e-05
1.4279e-05
1.40841e-05
1.30992e-05
1.28515e-05
1.28779e-05
1.28577e-05
1.25158e-05
1.2229e-05
1.20023e-05
1.18274e-05
1.16933e-05
1.15859e-05
1.14927e-05
1.14042e-05
1.13142e-05
1.12192e-05
1.11173e-05
1.10074e-05
1.08891e-05
1.12535e-05
1.29753e-05
1.29221e-05
1.28632e-05
1.28045e-05
1.27542e-05
1.27192e-05
1.26957e-05
1.26725e-05
1.26645e-05
1.27414e-05
1.30991e-05
1.37051e-05
1.40769e-05
1.32374e-05
1.41653e-05
1.46833e-05
1.43641e-05
1.31563e-05
1.16038e-05
1.06076e-05
1.04086e-05
1.08687e-05
1.18072e-05
1.2821e-05
1.37492e-05
1.42029e-05
1.44284e-05
1.44701e-05
1.44421e-05
1.43743e-05
1.42578e-05
1.40679e-05
1.28721e-05
1.29875e-05
1.30149e-05
1.28898e-05
1.2563e-05
1.22842e-05
1.20648e-05
1.18944e-05
1.17628e-05
1.16569e-05
1.15648e-05
1.14772e-05
1.13883e-05
1.12945e-05
1.11937e-05
1.10851e-05
1.09681e-05
1.13412e-05
1.29701e-05
1.29176e-05
1.28601e-05
1.28032e-05
1.27551e-05
1.2722e-05
1.26995e-05
1.26765e-05
1.26688e-05
1.27698e-05
1.30376e-05
1.34256e-05
1.39411e-05
1.31705e-05
1.42132e-05
1.47547e-05
1.47748e-05
1.47166e-05
1.44944e-05
1.4306e-05
1.4178e-05
1.42259e-05
1.43488e-05
1.44331e-05
1.44779e-05
1.4449e-05
1.44426e-05
1.44301e-05
1.4397e-05
1.43356e-05
1.42311e-05
1.39606e-05
1.2596e-05
1.23475e-05
1.2996e-05
1.29032e-05
1.25936e-05
1.23292e-05
1.21184e-05
1.19549e-05
1.1828e-05
1.17252e-05
1.16352e-05
1.15495e-05
1.14621e-05
1.13698e-05
1.12706e-05
1.11636e-05
1.10483e-05
1.14304e-05
1.29658e-05
1.29141e-05
1.28578e-05
1.28026e-05
1.27565e-05
1.27249e-05
1.2703e-05
1.26799e-05
1.26724e-05
1.27673e-05
1.29191e-05
1.35108e-05
1.40004e-05
1.31353e-05
1.43955e-05
1.47514e-05
1.48011e-05
1.49225e-05
1.48916e-05
1.48485e-05
1.47195e-05
1.46797e-05
1.46534e-05
1.4612e-05
1.45552e-05
1.44934e-05
1.44505e-05
1.44143e-05
1.43703e-05
1.43052e-05
1.42034e-05
1.40065e-05
1.25886e-05
1.23103e-05
1.28903e-05
1.29091e-05
1.2616e-05
1.23668e-05
1.21666e-05
1.20116e-05
1.18908e-05
1.17921e-05
1.17051e-05
1.16216e-05
1.15362e-05
1.14457e-05
1.13483e-05
1.1243e-05
1.11296e-05
1.15214e-05
1.29623e-05
1.29115e-05
1.28564e-05
1.28028e-05
1.27583e-05
1.27279e-05
1.27065e-05
1.26833e-05
1.26756e-05
1.27595e-05
1.2925e-05
1.36626e-05
1.40408e-05
1.31148e-05
1.43717e-05
1.41541e-05
1.47412e-05
1.49584e-05
1.49447e-05
1.49153e-05
1.47806e-05
1.47265e-05
1.4682e-05
1.46311e-05
1.45722e-05
1.45126e-05
1.44604e-05
1.44111e-05
1.4355e-05
1.428e-05
1.41714e-05
1.40054e-05
1.29628e-05
1.22898e-05
1.2731e-05
1.29073e-05
1.26324e-05
1.23991e-05
1.2212e-05
1.20667e-05
1.19528e-05
1.1859e-05
1.17754e-05
1.16944e-05
1.16111e-05
1.15225e-05
1.14268e-05
1.13233e-05
1.1212e-05
1.16136e-05
1.29596e-05
1.29098e-05
1.28559e-05
1.28037e-05
1.27607e-05
1.27313e-05
1.27102e-05
1.26871e-05
1.26791e-05
1.27594e-05
1.3005e-05
1.36607e-05
1.37414e-05
1.37836e-05
1.39148e-05
1.35115e-05
1.47566e-05
1.49724e-05
1.49589e-05
1.493e-05
1.47924e-05
1.47383e-05
1.4689e-05
1.46396e-05
1.4584e-05
1.45266e-05
1.44703e-05
1.44124e-05
1.43466e-05
1.4261e-05
1.41419e-05
1.39528e-05
1.30026e-05
1.22654e-05
1.2566e-05
1.29014e-05
1.26461e-05
1.24299e-05
1.22568e-05
1.2122e-05
1.20156e-05
1.19269e-05
1.18467e-05
1.17683e-05
1.16871e-05
1.16003e-05
1.15065e-05
1.14049e-05
1.12957e-05
1.17072e-05
1.29578e-05
1.29089e-05
1.28562e-05
1.28054e-05
1.27636e-05
1.2735e-05
1.27141e-05
1.26912e-05
1.2683e-05
1.27654e-05
1.30926e-05
1.36611e-05
1.35683e-05
1.38682e-05
1.31055e-05
1.34796e-05
1.49078e-05
1.49777e-05
1.49653e-05
1.49372e-05
1.47996e-05
1.47482e-05
1.46997e-05
1.46497e-05
1.45963e-05
1.45393e-05
1.44801e-05
1.44162e-05
1.43434e-05
1.42492e-05
1.41209e-05
1.3797e-05
1.28842e-05
1.22437e-05
1.25553e-05
1.28998e-05
1.26619e-05
1.24627e-05
1.23035e-05
1.21791e-05
1.208e-05
1.19963e-05
1.19194e-05
1.18433e-05
1.1764e-05
1.16789e-05
1.15869e-05
1.14873e-05
1.13802e-05
1.18016e-05
1.29567e-05
1.29088e-05
1.28572e-05
1.28078e-05
1.27671e-05
1.2739e-05
1.27183e-05
1.26955e-05
1.26868e-05
1.27719e-05
1.30192e-05
1.33417e-05
1.35303e-05
1.3842e-05
1.30776e-05
1.41497e-05
1.49522e-05
1.49794e-05
1.49677e-05
1.49399e-05
1.48028e-05
1.47558e-05
1.47108e-05
1.46622e-05
1.4609e-05
1.45517e-05
1.44901e-05
1.44219e-05
1.43432e-05
1.4243e-05
1.40908e-05
1.35655e-05
1.29466e-05
1.22319e-05
1.2677e-05
1.29044e-05
1.26821e-05
1.24992e-05
1.23532e-05
1.22386e-05
1.21464e-05
1.2067e-05
1.1993e-05
1.19187e-05
1.18409e-05
1.17573e-05
1.16669e-05
1.15691e-05
1.14638e-05
1.18953e-05
1.29564e-05
1.29096e-05
1.28591e-05
1.28108e-05
1.2771e-05
1.27434e-05
1.27226e-05
1.26998e-05
1.26904e-05
1.27711e-05
1.27587e-05
1.30932e-05
1.35016e-05
1.33031e-05
1.30668e-05
1.45473e-05
1.49564e-05
1.49811e-05
1.49696e-05
1.49427e-05
1.48082e-05
1.47648e-05
1.47231e-05
1.4676e-05
1.46228e-05
1.45639e-05
1.44997e-05
1.44281e-05
1.43448e-05
1.4239e-05
1.40026e-05
1.34645e-05
1.33695e-05
1.26667e-05
1.29473e-05
1.29152e-05
1.27072e-05
1.25391e-05
1.24052e-05
1.22996e-05
1.22134e-05
1.21378e-05
1.20659e-05
1.19932e-05
1.19164e-05
1.18339e-05
1.17449e-05
1.16488e-05
1.15451e-05
1.19862e-05
1.29568e-05
1.29111e-05
1.28618e-05
1.28146e-05
1.27755e-05
1.27481e-05
1.27272e-05
1.27042e-05
1.26937e-05
1.27604e-05
1.27409e-05
1.34412e-05
1.34142e-05
1.28466e-05
1.30625e-05
1.47005e-05
1.49647e-05
1.49852e-05
1.49753e-05
1.49506e-05
1.48214e-05
1.47808e-05
1.47407e-05
1.46934e-05
1.46383e-05
1.45764e-05
1.45086e-05
1.44337e-05
1.43459e-05
1.42352e-05
1.38942e-05
1.34515e-05
1.35598e-05
1.33753e-05
1.31373e-05
1.29253e-05
1.27332e-05
1.25793e-05
1.24569e-05
1.23597e-05
1.22789e-05
1.22065e-05
1.21365e-05
1.20648e-05
1.1989e-05
1.19074e-05
1.18195e-05
1.17248e-05
1.16226e-05
1.2073e-05
1.2958e-05
1.29134e-05
1.28652e-05
1.2819e-05
1.27806e-05
1.27533e-05
1.2732e-05
1.27085e-05
1.26966e-05
1.27576e-05
1.27512e-05
1.35056e-05
1.31986e-05
1.28323e-05
1.30865e-05
1.48358e-05
1.49772e-05
1.49931e-05
1.49876e-05
1.49692e-05
1.48457e-05
1.48062e-05
1.47653e-05
1.47149e-05
1.46553e-05
1.45885e-05
1.45156e-05
1.44356e-05
1.43429e-05
1.42255e-05
1.38005e-05
1.34236e-05
1.34382e-05
1.33819e-05
1.31478e-05
1.29346e-05
1.27577e-05
1.2617e-05
1.25058e-05
1.24165e-05
1.23406e-05
1.22712e-05
1.22028e-05
1.21321e-05
1.2057e-05
1.19763e-05
1.18895e-05
1.1796e-05
1.16951e-05
1.21543e-05
1.296e-05
1.29164e-05
1.28694e-05
1.28242e-05
1.27863e-05
1.27589e-05
1.27371e-05
1.27127e-05
1.2699e-05
1.2754e-05
1.29705e-05
1.34779e-05
1.31679e-05
1.2817e-05
1.36046e-05
1.48767e-05
1.49914e-05
1.33399e-05
1.2661e-05
1.4903e-05
1.48772e-05
1.48395e-05
1.47946e-05
1.4738e-05
1.46719e-05
1.45986e-05
1.45194e-05
1.44328e-05
1.43331e-05
1.4206e-05
1.37197e-05
1.33892e-05
1.32352e-05
1.33561e-05
1.31355e-05
1.29389e-05
1.27781e-05
1.26507e-05
1.25501e-05
1.24681e-05
1.23969e-05
1.23301e-05
1.22632e-05
1.21935e-05
1.21192e-05
1.20394e-05
1.19537e-05
1.18614e-05
1.17618e-05
1.22291e-05
1.29626e-05
1.29203e-05
1.28743e-05
1.28301e-05
1.27927e-05
1.27651e-05
1.27425e-05
1.2717e-05
1.27009e-05
1.27422e-05
1.29981e-05
1.34468e-05
1.3393e-05
1.28011e-05
1.39774e-05
1.48767e-05
1.39318e-05
1.0967e-05
1.09537e-05
1.2403e-05
1.48093e-05
1.48695e-05
1.48193e-05
1.47564e-05
1.46838e-05
1.4604e-05
1.4518e-05
1.44241e-05
1.43162e-05
1.41803e-05
1.36968e-05
1.33502e-05
1.32802e-05
1.33286e-05
1.31186e-05
1.29382e-05
1.27935e-05
1.26793e-05
1.25887e-05
1.25135e-05
1.24466e-05
1.23823e-05
1.23169e-05
1.22482e-05
1.21748e-05
1.2096e-05
1.20114e-05
1.19203e-05
1.1822e-05
1.22969e-05
1.2966e-05
1.29249e-05
1.28801e-05
1.28368e-05
1.27999e-05
1.2772e-05
1.27486e-05
1.27216e-05
1.27028e-05
1.27371e-05
1.29817e-05
1.34046e-05
1.36933e-05
1.27856e-05
1.41802e-05
1.47503e-05
1.11165e-05
1.09498e-05
1.09428e-05
1.0964e-05
1.39415e-05
1.48778e-05
1.48268e-05
1.47614e-05
1.46856e-05
1.46014e-05
1.45093e-05
1.44079e-05
1.42911e-05
1.41469e-05
1.37022e-05
1.33061e-05
1.34393e-05
1.32952e-05
1.30978e-05
1.29336e-05
1.28042e-05
1.27026e-05
1.26213e-05
1.25523e-05
1.24892e-05
1.24273e-05
1.23634e-05
1.22957e-05
1.22234e-05
1.21457e-05
1.20623e-05
1.19727e-05
1.18759e-05
1.23582e-05
1.29702e-05
1.29303e-05
1.28867e-05
1.28443e-05
1.2808e-05
1.27798e-05
1.27555e-05
1.2727e-05
1.27054e-05
1.27436e-05
1.29596e-05
1.31324e-05
1.35992e-05
1.29197e-05
1.41164e-05
1.43872e-05
1.09526e-05
1.09347e-05
1.09133e-05
1.09272e-05
1.40968e-05
1.48526e-05
1.48077e-05
1.47468e-05
1.4673e-05
1.45879e-05
1.44915e-05
1.4383e-05
1.42568e-05
1.41024e-05
1.36558e-05
1.32565e-05
1.34487e-05
1.32562e-05
1.30736e-05
1.29258e-05
1.28108e-05
1.27209e-05
1.26481e-05
1.25848e-05
1.25252e-05
1.24653e-05
1.24028e-05
1.23362e-05
1.22648e-05
1.21882e-05
1.21061e-05
1.20179e-05
1.19231e-05
1.24134e-05
1.2975e-05
1.29365e-05
1.28942e-05
1.28528e-05
1.2817e-05
1.27886e-05
1.27635e-05
1.27337e-05
1.27093e-05
1.27455e-05
1.28722e-05
1.29596e-05
1.28075e-05
1.26311e-05
1.36938e-05
1.21889e-05
1.08842e-05
1.09008e-05
1.08918e-05
1.30376e-05
1.47669e-05
1.48038e-05
1.47669e-05
1.47136e-05
1.46457e-05
1.4563e-05
1.4464e-05
1.43376e-05
1.42116e-05
1.40286e-05
1.34752e-05
1.32642e-05
1.34067e-05
1.3213e-05
1.30467e-05
1.29154e-05
1.28142e-05
1.27352e-05
1.267e-05
1.26117e-05
1.25552e-05
1.24972e-05
1.24359e-05
1.237e-05
1.2299e-05
1.22224e-05
1.21395e-05
1.20496e-05
1.19519e-05
1.2442e-05
1.29807e-05
1.29435e-05
1.29025e-05
1.28623e-05
1.28271e-05
1.27987e-05
1.27729e-05
1.27419e-05
1.27153e-05
1.27446e-05
1.27585e-05
1.30731e-05
1.22385e-05
1.25796e-05
1.35144e-05
1.07781e-05
1.08626e-05
1.09819e-05
1.31854e-05
1.48874e-05
1.47826e-05
1.47543e-05
1.47182e-05
1.46695e-05
1.46072e-05
1.45285e-05
1.4427e-05
1.42936e-05
1.41573e-05
1.39303e-05
1.34039e-05
1.31944e-05
1.33468e-05
1.31687e-05
1.30193e-05
1.29038e-05
1.28157e-05
1.27465e-05
1.26882e-05
1.26344e-05
1.25808e-05
1.25247e-05
1.24648e-05
1.24002e-05
1.23303e-05
1.22546e-05
1.21728e-05
1.20841e-05
1.1988e-05
1.24832e-05
1.2987e-05
1.29513e-05
1.29118e-05
1.28728e-05
1.28384e-05
1.28102e-05
1.2784e-05
1.27523e-05
1.27239e-05
1.27474e-05
1.2844e-05
1.32064e-05
1.22558e-05
1.2545e-05
1.34525e-05
1.08568e-05
1.13268e-05
1.42622e-05
1.48999e-05
1.48928e-05
1.47539e-05
1.47132e-05
1.46717e-05
1.46219e-05
1.45621e-05
1.44868e-05
1.43875e-05
1.42517e-05
1.41025e-05
1.38825e-05
1.33356e-05
1.31266e-05
1.32882e-05
1.3127e-05
1.29938e-05
1.28931e-05
1.2817e-05
1.27565e-05
1.27041e-05
1.26542e-05
1.26032e-05
1.25492e-05
1.24909e-05
1.24278e-05
1.23594e-05
1.22854e-05
1.22051e-05
1.21179e-05
1.20234e-05
1.25236e-05
1.29941e-05
1.29599e-05
1.2922e-05
1.28844e-05
1.28511e-05
1.28232e-05
1.2797e-05
1.27649e-05
1.27354e-05
1.27542e-05
1.29053e-05
1.3213e-05
1.30385e-05
1.27475e-05
1.32621e-05
1.23605e-05
1.40642e-05
1.49154e-05
1.49104e-05
1.4891e-05
1.47341e-05
1.46793e-05
1.46276e-05
1.45729e-05
1.45126e-05
1.44393e-05
1.43407e-05
1.42092e-05
1.40433e-05
1.38403e-05
1.34313e-05
1.31646e-05
1.32402e-05
1.30895e-05
1.2972e-05
1.28848e-05
1.28186e-05
1.27606e-05
1.27082e-05
1.26624e-05
1.26167e-05
1.25678e-05
1.25138e-05
1.24533e-05
1.23864e-05
1.23138e-05
1.22348e-05
1.21489e-05
1.20556e-05
1.25602e-05
1.30019e-05
1.29694e-05
1.29332e-05
1.28971e-05
1.2865e-05
1.28379e-05
1.28119e-05
1.27799e-05
1.27498e-05
1.27645e-05
1.29021e-05
1.31924e-05
1.30389e-05
1.33645e-05
1.31409e-05
1.3556e-05
1.4632e-05
1.4896e-05
1.4899e-05
1.48797e-05
1.47116e-05
1.46453e-05
1.45824e-05
1.4521e-05
1.44585e-05
1.43861e-05
1.42812e-05
1.41525e-05
1.39801e-05
1.37804e-05
1.35656e-05
1.33504e-05
1.31941e-05
1.30569e-05
1.29543e-05
1.28752e-05
1.28042e-05
1.27424e-05
1.2693e-05
1.26472e-05
1.26001e-05
1.25492e-05
1.24937e-05
1.2433e-05
1.23669e-05
1.22948e-05
1.22163e-05
1.21306e-05
1.20371e-05
1.07526e-05
1.30103e-05
1.29797e-05
1.29453e-05
1.2911e-05
1.28804e-05
1.28543e-05
1.28289e-05
1.27975e-05
1.27675e-05
1.27787e-05
1.2903e-05
1.30064e-05
1.27492e-05
1.3503e-05
1.30994e-05
1.35615e-05
1.46356e-05
1.48588e-05
1.48743e-05
1.48574e-05
1.46785e-05
1.46036e-05
1.45316e-05
1.44638e-05
1.4399e-05
1.43272e-05
1.42037e-05
1.36382e-05
1.38968e-05
1.37111e-05
1.35043e-05
1.33126e-05
1.31517e-05
1.30294e-05
1.2939e-05
1.2856e-05
1.27801e-05
1.27242e-05
1.26767e-05
1.26305e-05
1.2582e-05
1.25295e-05
1.24724e-05
1.24103e-05
1.23429e-05
1.22695e-05
1.21897e-05
1.21029e-05
1.20083e-05
1.07121e-05
1.30195e-05
1.29907e-05
1.29583e-05
1.2926e-05
1.28971e-05
1.28723e-05
1.2848e-05
1.28178e-05
1.27886e-05
1.27975e-05
1.29108e-05
1.28249e-05
1.27289e-05
1.36133e-05
1.30598e-05
1.33258e-05
1.44857e-05
1.48173e-05
1.48406e-05
1.48244e-05
1.46344e-05
1.45515e-05
1.44723e-05
1.43995e-05
1.43335e-05
1.42625e-05
1.4052e-05
1.34936e-05
1.36251e-05
1.36376e-05
1.34372e-05
1.3258e-05
1.31137e-05
1.30071e-05
1.29126e-05
1.28235e-05
1.27569e-05
1.27053e-05
1.26589e-05
1.26122e-05
1.25624e-05
1.25086e-05
1.24502e-05
1.2387e-05
1.23184e-05
1.2244e-05
1.21632e-05
1.20752e-05
1.19796e-05
1.06722e-05
1.30293e-05
1.30025e-05
1.29723e-05
1.29421e-05
1.29152e-05
1.28921e-05
1.28692e-05
1.28407e-05
1.28131e-05
1.28212e-05
1.29259e-05
1.30206e-05
1.31211e-05
1.36443e-05
1.30153e-05
1.33333e-05
1.45469e-05
1.47718e-05
1.4799e-05
1.47813e-05
1.45787e-05
1.44884e-05
1.44031e-05
1.43273e-05
1.42621e-05
1.41938e-05
1.38479e-05
1.34207e-05
1.33321e-05
1.35591e-05
1.33721e-05
1.32081e-05
1.3081e-05
1.29762e-05
1.28759e-05
1.27931e-05
1.2734e-05
1.26855e-05
1.26396e-05
1.25921e-05
1.25412e-05
1.24863e-05
1.2427e-05
1.23629e-05
1.22934e-05
1.2218e-05
1.21362e-05
1.20473e-05
1.19507e-05
1.06322e-05
1.30396e-05
1.3015e-05
1.2987e-05
1.29593e-05
1.29347e-05
1.29136e-05
1.28925e-05
1.28662e-05
1.28409e-05
1.28492e-05
1.29473e-05
1.31679e-05
1.34692e-05
1.36466e-05
1.29332e-05
1.35962e-05
1.45968e-05
1.47225e-05
1.47506e-05
1.47286e-05
1.45116e-05
1.44142e-05
1.43241e-05
1.42472e-05
1.41848e-05
1.41215e-05
1.38257e-05
1.33497e-05
1.3393e-05
1.34897e-05
1.33117e-05
1.31642e-05
1.30524e-05
1.29417e-05
1.28357e-05
1.27642e-05
1.27108e-05
1.26643e-05
1.26185e-05
1.25703e-05
1.25186e-05
1.24629e-05
1.24028e-05
1.23379e-05
1.22676e-05
1.21913e-05
1.21086e-05
1.20187e-05
1.19213e-05
1.05916e-05
1.30505e-05
1.30281e-05
1.30026e-05
1.29774e-05
1.29554e-05
1.29366e-05
1.29178e-05
1.28941e-05
1.28718e-05
1.28811e-05
1.29738e-05
1.318e-05
1.34701e-05
1.33894e-05
1.2889e-05
1.37361e-05
1.45755e-05
1.4672e-05
1.4697e-05
1.46674e-05
1.44343e-05
1.43298e-05
1.4236e-05
1.41597e-05
1.41017e-05
1.40443e-05
1.38925e-05
1.3281e-05
1.35334e-05
1.34225e-05
1.32569e-05
1.31268e-05
1.30072e-05
1.28886e-05
1.27986e-05
1.27363e-05
1.26871e-05
1.26418e-05
1.25958e-05
1.2547e-05
1.24946e-05
1.24383e-05
1.23776e-05
1.2312e-05
1.22408e-05
1.21638e-05
1.20801e-05
1.19894e-05
1.18911e-05
1.05502e-05
1.30618e-05
1.30417e-05
1.30189e-05
1.29965e-05
1.29772e-05
1.29611e-05
1.29449e-05
1.29243e-05
1.29055e-05
1.29168e-05
1.30055e-05
1.31985e-05
1.34773e-05
1.28243e-05
1.28524e-05
1.37947e-05
1.45304e-05
1.46223e-05
1.46401e-05
1.45992e-05
1.43481e-05
1.42372e-05
1.41409e-05
1.40663e-05
1.40129e-05
1.39545e-05
1.34145e-05
1.32473e-05
1.35261e-05
1.33571e-05
1.32078e-05
1.30844e-05
1.29565e-05
1.28404e-05
1.27639e-05
1.27088e-05
1.26626e-05
1.2618e-05
1.25717e-05
1.25224e-05
1.24695e-05
1.24127e-05
1.23514e-05
1.22851e-05
1.22132e-05
1.21353e-05
1.20508e-05
1.19593e-05
1.18601e-05
1.05077e-05
1.30735e-05
1.30558e-05
1.30358e-05
1.30164e-05
1.30001e-05
1.2987e-05
1.29737e-05
1.29565e-05
1.29418e-05
1.29562e-05
1.30422e-05
1.32244e-05
1.34921e-05
1.25897e-05
1.28333e-05
1.39179e-05
1.44659e-05
1.45148e-05
1.44526e-05
1.44796e-05
1.4257e-05
1.41396e-05
1.40418e-05
1.39702e-05
1.39222e-05
1.38265e-05
1.31527e-05
1.34249e-05
1.34573e-05
1.32952e-05
1.31647e-05
1.30312e-05
1.28939e-05
1.27965e-05
1.27311e-05
1.26814e-05
1.26371e-05
1.25928e-05
1.25463e-05
1.24966e-05
1.24434e-05
1.23861e-05
1.23243e-05
1.22573e-05
1.21847e-05
1.21059e-05
1.20206e-05
1.19282e-05
1.18282e-05
1.04642e-05
1.30854e-05
1.30703e-05
1.30531e-05
1.30369e-05
1.30239e-05
1.3014e-05
1.3004e-05
1.29907e-05
1.29807e-05
1.29992e-05
1.30832e-05
1.32585e-05
1.292e-05
1.26061e-05
1.28488e-05
1.40498e-05
1.44157e-05
1.44003e-05
1.43697e-05
1.4311e-05
1.41529e-05
1.404e-05
1.39427e-05
1.38758e-05
1.38339e-05
1.36124e-05
1.30623e-05
1.33767e-05
1.33845e-05
1.32396e-05
1.31073e-05
1.29632e-05
1.28372e-05
1.27559e-05
1.26993e-05
1.26535e-05
1.26105e-05
1.25664e-05
1.25198e-05
1.24699e-05
1.24164e-05
1.23587e-05
1.22963e-05
1.22286e-05
1.21552e-05
1.20757e-05
1.19895e-05
1.18962e-05
1.17953e-05
1.04195e-05
1.30975e-05
1.3085e-05
1.30709e-05
1.3058e-05
1.30485e-05
1.30422e-05
1.30357e-05
1.30267e-05
1.30221e-05
1.3046e-05
1.31315e-05
1.33025e-05
1.25177e-05
1.26472e-05
1.33183e-05
1.41013e-05
1.42492e-05
1.43081e-05
1.43193e-05
1.43037e-05
1.40641e-05
1.39422e-05
1.38474e-05
1.37869e-05
1.37518e-05
1.35162e-05
1.29773e-05
1.30871e-05
1.3317e-05
1.31921e-05
1.30458e-05
1.28897e-05
1.27857e-05
1.27177e-05
1.26681e-05
1.26252e-05
1.2583e-05
1.25391e-05
1.24924e-05
1.24425e-05
1.23887e-05
1.23305e-05
1.22675e-05
1.21991e-05
1.21249e-05
1.20446e-05
1.19576e-05
1.18634e-05
1.17616e-05
1.03738e-05
1.31097e-05
1.30999e-05
1.30888e-05
1.30795e-05
1.30737e-05
1.30711e-05
1.30687e-05
1.30644e-05
1.30659e-05
1.30967e-05
1.3187e-05
1.33567e-05
1.33084e-05
1.33208e-05
1.39504e-05
1.41337e-05
1.42459e-05
1.43396e-05
1.43657e-05
1.42773e-05
1.39705e-05
1.38475e-05
1.37595e-05
1.3706e-05
1.3677e-05
1.34832e-05
1.29001e-05
1.29869e-05
1.3259e-05
1.31189e-05
1.29571e-05
1.28233e-05
1.27385e-05
1.26815e-05
1.2637e-05
1.25962e-05
1.25548e-05
1.25111e-05
1.24645e-05
1.24144e-05
1.23603e-05
1.23017e-05
1.22381e-05
1.21689e-05
1.2094e-05
1.20128e-05
1.19249e-05
1.18299e-05
1.17272e-05
1.03272e-05
1.31218e-05
1.31147e-05
1.31069e-05
1.31012e-05
1.30994e-05
1.31008e-05
1.31026e-05
1.31037e-05
1.31123e-05
1.31513e-05
1.32489e-05
1.33389e-05
1.35685e-05
1.38314e-05
1.40656e-05
1.42375e-05
1.43487e-05
1.43857e-05
1.4318e-05
1.41939e-05
1.3888e-05
1.37638e-05
1.36815e-05
1.36353e-05
1.35976e-05
1.30545e-05
1.28257e-05
1.31636e-05
1.32048e-05
1.30425e-05
1.28719e-05
1.27637e-05
1.2695e-05
1.26465e-05
1.2606e-05
1.25667e-05
1.2526e-05
1.24826e-05
1.24361e-05
1.23859e-05
1.23315e-05
1.22724e-05
1.22081e-05
1.21383e-05
1.20625e-05
1.19805e-05
1.18917e-05
1.17958e-05
1.16922e-05
1.02799e-05
1.31336e-05
1.31293e-05
1.31248e-05
1.31229e-05
1.31253e-05
1.3131e-05
1.31374e-05
1.31443e-05
1.31611e-05
1.32101e-05
1.32868e-05
1.3352e-05
1.36053e-05
1.3822e-05
1.40343e-05
1.42893e-05
1.43743e-05
1.43501e-05
1.42541e-05
1.41156e-05
1.38163e-05
1.36939e-05
1.36171e-05
1.35768e-05
1.34675e-05
1.28634e-05
1.27655e-05
1.32554e-05
1.31189e-05
1.29343e-05
1.27961e-05
1.27103e-05
1.26546e-05
1.26128e-05
1.25751e-05
1.25371e-05
1.2497e-05
1.24539e-05
1.24075e-05
1.23572e-05
1.23024e-05
1.22428e-05
1.21779e-05
1.21073e-05
1.20308e-05
1.19479e-05
1.18582e-05
1.17613e-05
1.16568e-05
1.02324e-05
1.31451e-05
1.31436e-05
1.31425e-05
1.31445e-05
1.31511e-05
1.31613e-05
1.31728e-05
1.31862e-05
1.32127e-05
1.32738e-05
1.33362e-05
1.34716e-05
1.34842e-05
1.36441e-05
1.38422e-05
1.4253e-05
1.43679e-05
1.43145e-05
1.41971e-05
1.40467e-05
1.37569e-05
1.36399e-05
1.35689e-05
1.35325e-05
1.34304e-05
1.28101e-05
1.27172e-05
1.31952e-05
1.3012e-05
1.28381e-05
1.27293e-05
1.26623e-05
1.2617e-05
1.258e-05
1.25446e-05
1.25077e-05
1.24682e-05
1.24255e-05
1.23791e-05
1.23286e-05
1.22734e-05
1.22132e-05
1.21476e-05
1.20763e-05
1.1999e-05
1.19152e-05
1.18247e-05
1.17269e-05
1.16214e-05
1.01848e-05
1.3156e-05
1.31573e-05
1.31597e-05
1.31657e-05
1.31767e-05
1.31916e-05
1.32085e-05
1.32294e-05
1.3267e-05
1.3343e-05
1.34667e-05
1.36486e-05
1.35021e-05
1.3714e-05
1.39603e-05
1.43184e-05
1.43638e-05
1.42853e-05
1.41503e-05
1.399e-05
1.37134e-05
1.36029e-05
1.35362e-05
1.34995e-05
1.31683e-05
1.27636e-05
1.3019e-05
1.31049e-05
1.28917e-05
1.27543e-05
1.26712e-05
1.26193e-05
1.25818e-05
1.25485e-05
1.25149e-05
1.24789e-05
1.244e-05
1.23975e-05
1.23512e-05
1.23004e-05
1.22448e-05
1.2184e-05
1.21178e-05
1.20457e-05
1.19676e-05
1.1883e-05
1.17915e-05
1.16927e-05
1.15863e-05
1.01378e-05
1.31663e-05
1.31704e-05
1.31762e-05
1.31863e-05
1.32018e-05
1.32216e-05
1.32442e-05
1.32735e-05
1.33241e-05
1.34173e-05
1.35715e-05
1.3556e-05
1.3598e-05
1.38594e-05
1.42834e-05
1.43866e-05
1.4362e-05
1.42594e-05
1.4115e-05
1.3897e-05
1.36823e-05
1.35793e-05
1.35167e-05
1.34716e-05
1.28245e-05
1.27284e-05
1.31716e-05
1.29584e-05
1.27877e-05
1.26831e-05
1.26211e-05
1.2581e-05
1.25492e-05
1.25186e-05
1.24864e-05
1.24513e-05
1.24128e-05
1.23705e-05
1.23241e-05
1.2273e-05
1.2217e-05
1.21556e-05
1.20887e-05
1.20158e-05
1.19369e-05
1.18514e-05
1.1759e-05
1.16593e-05
1.15519e-05
1.00918e-05
1.31757e-05
1.31825e-05
1.31917e-05
1.32059e-05
1.32259e-05
1.32507e-05
1.32797e-05
1.33187e-05
1.33842e-05
1.34977e-05
1.36565e-05
1.34917e-05
1.37009e-05
1.41489e-05
1.43904e-05
1.44167e-05
1.4367e-05
1.40764e-05
1.28169e-05
1.37371e-05
1.3671e-05
1.35686e-05
1.35074e-05
1.33314e-05
1.28092e-05
1.2705e-05
1.30366e-05
1.28315e-05
1.27006e-05
1.26239e-05
1.25785e-05
1.2547e-05
1.25193e-05
1.24908e-05
1.24597e-05
1.24253e-05
1.23872e-05
1.2345e-05
1.22984e-05
1.22469e-05
1.21904e-05
1.21284e-05
1.20607e-05
1.19872e-05
1.19074e-05
1.1821e-05
1.17277e-05
1.16271e-05
1.15187e-05
1.00475e-05
1.3184e-05
1.31934e-05
1.3206e-05
1.32242e-05
1.32488e-05
1.32786e-05
1.33147e-05
1.33653e-05
1.34481e-05
1.35834e-05
1.34426e-05
1.36048e-05
1.38369e-05
1.43068e-05
1.44509e-05
1.44462e-05
1.43761e-05
1.29519e-05
1.21696e-05
1.37586e-05
1.36676e-05
1.35687e-05
1.3497e-05
1.29008e-05
1.27592e-05
1.29904e-05
1.28868e-05
1.27259e-05
1.263e-05
1.25759e-05
1.25429e-05
1.25175e-05
1.24926e-05
1.24656e-05
1.24353e-05
1.24015e-05
1.23636e-05
1.23213e-05
1.22744e-05
1.22226e-05
1.21655e-05
1.21028e-05
1.20345e-05
1.19601e-05
1.18795e-05
1.17923e-05
1.1698e-05
1.15964e-05
1.14871e-05
1.00054e-05
1.31911e-05
1.3203e-05
1.32188e-05
1.32409e-05
1.32698e-05
1.33049e-05
1.33489e-05
1.34133e-05
1.35172e-05
1.3605e-05
1.35052e-05
1.37229e-05
1.42029e-05
1.44036e-05
1.45003e-05
1.44739e-05
1.41613e-05
1.22972e-05
1.21482e-05
1.35894e-05
1.36725e-05
1.35774e-05
1.34331e-05
1.28408e-05
1.26462e-05
1.2949e-05
1.27612e-05
1.26418e-05
1.25751e-05
1.25382e-05
1.25139e-05
1.24925e-05
1.24695e-05
1.24436e-05
1.2414e-05
1.23804e-05
1.23425e-05
1.23001e-05
1.22528e-05
1.22004e-05
1.21427e-05
1.20794e-05
1.20103e-05
1.19352e-05
1.18537e-05
1.17656e-05
1.16705e-05
1.15679e-05
1.14577e-05
9.96617e-06
1.31968e-05
1.3211e-05
1.32299e-05
1.32557e-05
1.32887e-05
1.33291e-05
1.33822e-05
1.34632e-05
1.35929e-05
1.37367e-05
1.392e-05
1.41339e-05
1.44213e-05
1.45073e-05
1.45502e-05
1.45017e-05
1.29764e-05
1.22787e-05
1.21432e-05
1.22957e-05
1.3674e-05
1.3585e-05
1.2991e-05
1.27375e-05
1.27255e-05
1.28055e-05
1.26616e-05
1.25784e-05
1.25345e-05
1.25098e-05
1.24912e-05
1.24723e-05
1.24506e-05
1.24253e-05
1.2396e-05
1.23625e-05
1.23244e-05
1.22816e-05
1.22339e-05
1.21809e-05
1.21226e-05
1.20586e-05
1.19887e-05
1.19128e-05
1.18305e-05
1.17415e-05
1.16455e-05
1.1542e-05
1.14308e-05
9.93042e-06
1.32009e-05
1.32171e-05
1.32388e-05
1.32679e-05
1.33048e-05
1.33508e-05
1.34146e-05
1.35158e-05
1.36675e-05
1.38579e-05
1.37671e-05
1.43022e-05
1.45394e-05
1.46149e-05
1.46126e-05
1.45149e-05
1.24622e-05