/*--------------------------------*- C++ -*----------------------------------*\
  =========                 |
  \\      /  F ield         | OpenFOAM: The Open Source CFD Toolbox
   \\    /   O peration     | Website:  https://openfoam.org
    \\  /    A nd           | Version:  9
     \\/     M anipulation  |
\*---------------------------------------------------------------------------*/
FoamFile
{
    format      ascii;
    class       volVectorField;
    location    "0.12";
    object      U;
}
// * * * * * * * * * * * * * * * * * * * * * * * * * * * * * * * * * * * * * //

dimensions      [0 1 -1 0 0 0 0];

internalField   nonuniform List<vector> 
5000
(
(-0.251078 0 -0.0999135)
(-0.270084 0 -0.0282718)
(-0.289769 0 0.0558554)
(-0.310065 0 0.152018)
(-0.329014 0 0.255682)
(-0.341387 0 0.353031)
(-0.341711 0 0.430411)
(-0.331221 0 0.497849)
(-0.315265 0 0.576093)
(-0.281563 0 0.584275)
(-0.189624 0 0.250412)
(0.103637 0 -0.645428)
(0.0841422 0 -1.56957)
(0.0331878 0 -2.04315)
(0.00273875 0 -2.14421)
(-0.0271782 0 -2.15674)
(-0.0366484 0 -2.15588)
(-0.0365787 0 -2.16428)
(-0.0310305 0 -2.17617)
(-0.0227586 0 -2.1877)
(-0.0130702 0 -2.19675)
(-0.00255175 0 -2.20133)
(0.00830373 0 -2.19997)
(0.0176078 0 -2.19143)
(0.0237386 0 -2.17632)
(0.025963 0 -2.1568)
(0.0240225 0 -2.13637)
(0.0180922 0 -2.11676)
(0.00783107 0 -2.08934)
(-0.00478007 0 -2.0312)
(-0.0115441 0 -1.9273)
(0.00549007 0 -1.71042)
(0.126866 0 -1.29101)
(0.250208 0 -0.837808)
(0.373454 0 -0.408451)
(0.476602 0 -0.06661)
(0.546762 0 0.154865)
(0.585665 0 0.264001)
(0.601546 0 0.291731)
(0.603779 0 0.272814)
(0.599706 0 0.234098)
(0.593641 0 0.191301)
(0.587465 0 0.151183)
(0.581672 0 0.115332)
(0.576193 0 0.083221)
(0.570849 0 0.0539213)
(0.56554 0 0.0267428)
(0.560162 0 0.00129897)
(0.555259 0 -0.0227545)
(0.547348 0 -0.0469427)
(-0.238613 0 -0.0882202)
(-0.255165 0 -0.0162942)
(-0.271851 0 0.0680121)
(-0.288112 0 0.163463)
(-0.301362 0 0.263845)
(-0.306349 0 0.354471)
(-0.298758 0 0.42413)
(-0.281385 0 0.486824)
(-0.256987 0 0.555703)
(-0.208811 0 0.526798)
(-0.134693 0 0.142777)
(0.116847 0 -0.748159)
(0.127581 0 -1.56958)
(0.0438561 0 -2.0086)
(-0.00116553 0 -2.12076)
(-0.0324713 0 -2.14464)
(-0.0369956 0 -2.15321)
(-0.0343354 0 -2.16674)
(-0.0288565 0 -2.18054)
(-0.0226396 0 -2.19338)
(-0.0156517 0 -2.20405)
(-0.00746164 0 -2.21002)
(0.00171311 0 -2.20879)
(0.00978425 0 -2.19865)
(0.0148126 0 -2.18077)
(0.0166899 0 -2.15788)
(0.01573 0 -2.13339)
(0.010909 0 -2.10872)
(-0.000977517 0 -2.07417)
(-0.0183922 0 -2.01125)
(-0.0321858 0 -1.93287)
(-0.01299 0 -1.79281)
(0.0792979 0 -1.44601)
(0.185145 0 -1.01273)
(0.294686 0 -0.578848)
(0.391737 0 -0.208523)
(0.463597 0 0.0551359)
(0.508475 0 0.206639)
(0.531185 0 0.267596)
(0.539003 0 0.269708)
(0.538692 0 0.241632)
(0.534933 0 0.202873)
(0.530222 0 0.163664)
(0.525532 0 0.127806)
(0.521047 0 0.0957958)
(0.51666 0 0.0669731)
(0.512241 0 0.0405857)
(0.507638 0 0.0161138)
(0.503235 0 -0.00682819)
(0.49558 0 -0.0291119)
(-0.225819 0 -0.0780285)
(-0.239944 0 -0.00614486)
(-0.25361 0 0.0777991)
(-0.265892 0 0.171736)
(-0.273901 0 0.267972)
(-0.272595 0 0.351362)
(-0.258347 0 0.41318)
(-0.234625 0 0.470436)
(-0.203252 0 0.530492)
(-0.144836 0 0.472377)
(-0.0765615 0 0.0467317)
(0.125912 0 -0.811664)
(0.184984 0 -1.58249)
(0.0573386 0 -1.9457)
(-0.00619269 0 -2.09324)
(-0.0348066 0 -2.13522)
(-0.0326579 0 -2.15385)
(-0.0270552 0 -2.17039)
(-0.0222346 0 -2.18403)
(-0.0189776 0 -2.19699)
(-0.0159027 0 -2.20882)
(-0.0116315 0 -2.21634)
(-0.00575074 0 -2.21555)
(-0.000296246 0 -2.20376)
(0.00153751 0 -2.18316)
(-0.000296039 0 -2.15778)
(-0.00405793 0 -2.1302)
(-0.0103632 0 -2.09922)
(-0.0227052 0 -2.05262)
(-0.0387076 0 -1.98487)
(-0.0478404 0 -1.94831)
(-0.0212342 0 -1.8737)
(0.0539889 0 -1.5765)
(0.139904 0 -1.16447)
(0.232283 0 -0.73274)
(0.319315 0 -0.344227)
(0.388688 0 -0.0481192)
(0.436109 0 0.13994)
(0.46349 0 0.232673)
(0.475963 0 0.257322)
(0.47926 0 0.242443)
(0.477939 0 0.209945)
(0.474826 0 0.172991)
(0.471299 0 0.137671)
(0.467848 0 0.1058)
(0.464548 0 0.0772642)
(0.461365 0 0.0514138)
(0.458248 0 0.0276518)
(0.455644 0 0.00552176)
(0.450616 0 -0.0141331)
(-0.212788 0 -0.0693053)
(-0.224562 0 0.00224728)
(-0.235339 0 0.0853217)
(-0.243882 0 0.17694)
(-0.247125 0 0.268234)
(-0.240461 0 0.344172)
(-0.220823 0 0.39833)
(-0.191258 0 0.449124)
(-0.153113 0 0.499885)
(-0.0855262 0 0.421914)
(-0.0152184 0 -0.0295445)
(0.130651 0 -0.861248)
(0.267395 0 -1.6292)
(0.101045 0 -1.84559)
(0.0032982 0 -2.05863)
(-0.0221813 0 -2.12956)
(-0.0175569 0 -2.15796)
(-0.0122524 0 -2.17444)
(-0.0101572 0 -2.18584)
(-0.0108894 0 -2.19768)
(-0.0126511 0 -2.20984)
(-0.0138729 0 -2.21878)
(-0.0130888 0 -2.21883)
(-0.0111769 0 -2.20486)
(-0.01374 0 -2.17963)
(-0.0233755 0 -2.15062)
(-0.0359631 0 -2.12039)
(-0.0464121 0 -2.08472)
(-0.0504537 0 -2.03325)
(-0.0499763 0 -1.97252)
(-0.037536 0 -1.9727)
(0.0183873 0 -1.9476)
(0.0585046 0 -1.67624)
(0.117076 0 -1.28472)
(0.188594 0 -0.863027)
(0.261688 0 -0.466881)
(0.32445 0 -0.148127)
(0.370748 0 0.0695176)
(0.4001 0 0.190713)
(0.415614 0 0.237598)
(0.421755 0 0.237226)
(0.42259 0 0.212622)
(0.420968 0 0.179151)
(0.418492 0 0.144985)
(0.415873 0 0.113363)
(0.413322 0 0.0849018)
(0.410843 0 0.0591962)
(0.408359 0 0.0356382)
(0.40633 0 0.0137557)
(0.401933 0 -0.00509206)
(-0.19964 0 -0.0620095)
(-0.209171 0 0.00891196)
(-0.217226 0 0.0906821)
(-0.222333 0 0.179448)
(-0.221378 0 0.265383)
(-0.210323 0 0.333804)
(-0.186653 0 0.380286)
(-0.152436 0 0.42356)
(-0.108564 0 0.463629)
(-0.034896 0 0.371287)
(0.0423563 0 -0.0947579)
(0.138865 0 -0.910576)
(0.246952 0 -1.66433)
(0.151072 0 -1.7518)
(0.0503084 0 -2.01517)
(0.0261272 0 -2.12164)
(0.0166534 0 -2.1599)
(0.0117094 0 -2.17515)
(0.00689317 0 -2.18436)
(0.00135637 0 -2.19487)
(-0.00535428 0 -2.20628)
(-0.0129997 0 -2.21608)
(-0.0189557 0 -2.21798)
(-0.0204317 0 -2.20257)
(-0.0247966 0 -2.16994)
(-0.0409427 0 -2.1344)
(-0.0600737 0 -2.10472)
(-0.0669618 0 -2.07766)
(-0.0548521 0 -2.04365)
(-0.0247719 0 -2.00221)
(0.0346547 0 -2.04375)
(0.0674335 0 -1.98959)
(0.0595504 0 -1.7236)
(0.0929205 0 -1.36794)
(0.151718 0 -0.965264)
(0.213534 0 -0.570775)
(0.268622 0 -0.238781)
(0.31166 0 0.000859783)
(0.340948 0 0.14586)
(0.358037 0 0.213132)
(0.366172 0 0.227324)
(0.368753 0 0.211518)
(0.368428 0 0.182507)
(0.366862 0 0.150183)
(0.364901 0 0.119161)
(0.362873 0 0.0909019)
(0.36085 0 0.0653954)
(0.358794 0 0.0421683)
(0.357078 0 0.020886)
(0.353349 0 0.00267433)
(-0.18647 0 -0.0560714)
(-0.193871 0 0.0139638)
(-0.199389 0 0.0940748)
(-0.201413 0 0.179602)
(-0.196913 0 0.259982)
(-0.182481 0 0.321037)
(-0.156236 0 0.360027)
(-0.119425 0 0.395255)
(-0.0728023 0 0.423487)
(0.00185272 0 0.318759)
(0.0838717 0 -0.151444)
(0.153242 0 -0.962775)
(0.250151 0 -1.69193)
(0.234704 0 -1.69336)
(0.135801 0 -1.94784)
(0.0974468 0 -2.09519)
(0.0664098 0 -2.15036)
(0.0420034 0 -2.16764)
(0.0264859 0 -2.17801)
(0.0163516 0 -2.18876)
(0.00559364 0 -2.19825)
(-0.00829002 0 -2.20727)
(-0.0223689 0 -2.21241)
(-0.0276443 0 -2.20036)
(-0.0283734 0 -2.16156)
(-0.041018 0 -2.11722)
(-0.0546387 0 -2.0937)
(-0.0508371 0 -2.0888)
(-0.0279716 0 -2.08612)
(0.00112456 0 -2.05438)
(-0.00843907 0 -2.09273)
(0.0235846 0 -1.99793)
(0.0490904 0 -1.74492)
(0.0787175 0 -1.43066)
(0.122868 0 -1.04879)
(0.172561 0 -0.658352)
(0.219303 0 -0.318411)
(0.257685 0 -0.0627907)
(0.28537 0 0.101291)
(0.302812 0 0.186281)
(0.312183 0 0.214153)
(0.316146 0 0.20734)
(0.317001 0 0.183391)
(0.316333 0 0.153499)
(0.315045 0 0.123487)
(0.313552 0 0.0956613)
(0.311991 0 0.0704719)
(0.310375 0 0.0476577)
(0.308971 0 0.0270929)
(0.305794 0 0.00933509)
(-0.173348 0 -0.0514169)
(-0.178749 0 0.0175116)
(-0.181938 0 0.095677)
(-0.181257 0 0.17771)
(-0.173872 0 0.252538)
(-0.157041 0 0.306639)
(-0.129672 0 0.338722)
(-0.0927201 0 0.36633)
(-0.0472133 0 0.383207)
(0.0226988 0 0.267267)
(0.101159 0 -0.199986)
(0.158453 0 -1.00575)
(0.208185 0 -1.71496)
(0.30891 0 -1.67374)
(0.203049 0 -1.88442)
(0.146088 0 -2.05586)
(0.104664 0 -2.12736)
(0.0690274 0 -2.1507)
(0.0458616 0 -2.16732)
(0.0327804 0 -2.18051)
(0.019353 0 -2.18685)
(0.000890067 0 -2.19222)
(-0.021468 0 -2.19999)
(-0.0339235 0 -2.19759)
(-0.0327442 0 -2.15913)
(-0.0368113 0 -2.1059)
(-0.0420398 0 -2.09157)
(-0.0303573 0 -2.10746)
(-0.00222997 0 -2.10158)
(-0.0198779 0 -2.04903)
(-0.0334779 0 -2.09676)
(-0.0149159 0 -2.03411)
(0.029782 0 -1.79502)
(0.0734149 0 -1.47818)
(0.10284 0 -1.11097)
(0.138348 0 -0.728726)
(0.175637 0 -0.38589)
(0.208189 0 -0.119457)
(0.233032 0 0.0592169)
(0.249784 0 0.158851)
(0.259687 0 0.198848)
(0.264661 0 0.200625)
(0.266559 0 0.181958)
(0.266777 0 0.154913)
(0.266183 0 0.126289)
(0.265225 0 0.0991555)
(0.264076 0 0.0744442)
(0.262788 0 0.0521752)
(0.261574 0 0.0325699)
(0.258712 0 0.0155462)
(-0.160332 0 -0.0479726)
(-0.163864 0 0.0196693)
(-0.164933 0 0.095691)
(-0.161915 0 0.174125)
(-0.152264 0 0.24361)
(-0.133899 0 0.291413)
(-0.106623 0 0.317586)
(-0.0715213 0 0.338935)
(-0.0306184 0 0.346455)
(0.0304387 0 0.221124)
(0.0954567 0 -0.239741)
(0.145966 0 -1.04022)
(0.13336 0 -1.74204)
(0.245982 0 -1.75959)
(0.194196 0 -1.82806)
(0.156878 0 -2.02047)
(0.12645 0 -2.0976)
(0.0889632 0 -2.12798)
(0.0652318 0 -2.15408)
(0.0508512 0 -2.17046)
(0.0352785 0 -2.17307)
(0.0155087 0 -2.173)
(-0.00947761 0 -2.17955)
(-0.0310664 0 -2.18563)
(-0.0454362 0 -2.15269)
(-0.0489396 0 -2.10213)
(-0.0464502 0 -2.1)
(-0.0225228 0 -2.12447)
(-0.0146334 0 -2.11394)
(0.00444124 0 -2.03133)
(0.0259904 0 -2.08877)
(-0.00864663 0 -2.05587)
(-0.00194533 0 -1.86596)
(0.0456914 0 -1.53394)
(0.0782541 0 -1.15812)
(0.10583 0 -0.781475)
(0.134783 0 -0.440157)
(0.161623 0 -0.167807)
(0.183241 0 0.0211555)
(0.198751 0 0.132195)
(0.208709 0 0.182352)
(0.214397 0 0.191851)
(0.217216 0 0.178322)
(0.218326 0 0.154333)
(0.21851 0 0.127399)
(0.218219 0 0.101225)
(0.217661 0 0.0772001)
(0.216925 0 0.0556647)
(0.216267 0 0.0370189)
(0.214609 0 0.0196057)
(-0.147462 0 -0.0456629)
(-0.149251 0 0.0205516)
(-0.148394 0 0.0943118)
(-0.143367 0 0.169166)
(-0.131969 0 0.233673)
(-0.112748 0 0.276014)
(-0.0864047 0 0.297552)
(-0.0543531 0 0.314545)
(-0.0198976 0 0.315373)
(0.0298592 0 0.183533)
(0.0768193 0 -0.269433)
(0.120329 0 -1.05928)
(0.0751273 0 -1.75163)
(0.134076 0 -1.80675)
(0.144137 0 -1.79254)
(0.133517 0 -2.00064)
(0.130726 0 -2.08229)
(0.107329 0 -2.10564)
(0.0879748 0 -2.13762)
(0.0697382 0 -2.15647)
(0.0517428 0 -2.15724)
(0.0345586 0 -2.15456)
(0.0216375 0 -2.15773)
(0.00288 0 -2.16249)
(-0.0408707 0 -2.13593)
(-0.0788355 0 -2.09808)
(-0.107133 0 -2.13475)
(-0.0796619 0 -2.1619)
(-0.0390756 0 -2.14018)
(0.0103563 0 -2.08362)
(0.0419806 0 -2.08708)
(0.0275256 0 -2.03466)
(0.0195899 0 -1.89872)
(0.0419375 0 -1.58166)
(0.0624852 0 -1.19374)
(0.0776422 0 -0.818683)
(0.0973044 0 -0.481394)
(0.118018 0 -0.207322)
(0.136015 0 -0.0120336)
(0.149854 0 0.107255)
(0.159476 0 0.165443)
(0.165591 0 0.1815)
(0.169173 0 0.172662)
(0.171122 0 0.151694)
(0.172103 0 0.126569)
(0.172535 0 0.101476)
(0.172637 0 0.0781886)
(0.1725 0 0.057333)
(0.172373 0 0.0393059)
(0.171651 0 0.0210699)
(-0.134766 0 -0.0444184)
(-0.134924 0 0.0202602)
(-0.132315 0 0.0917045)
(-0.125548 0 0.163086)
(-0.112798 0 0.223068)
(-0.0931697 0 0.260846)
(-0.0681555 0 0.27907)
(-0.0394391 0 0.293683)
(-0.0113643 0 0.290683)
(0.0268921 0 0.155696)
(0.058675 0 -0.290354)
(0.0962539 0 -1.06513)
(0.0411981 0 -1.73448)
(0.0401713 0 -1.81043)
(0.0982048 0 -1.8183)
(0.11502 0 -2.05597)
(0.142028 0 -2.09395)
(0.118648 0 -2.09635)
(0.102162 0 -2.12659)
(0.0802727 0 -2.14415)
(0.0635856 0 -2.14538)
(0.0550125 0 -2.14466)
(0.0509511 0 -2.1477)
(0.033502 0 -2.1414)
(-0.0201251 0 -2.10992)
(-0.039569 0 -2.0566)
(-0.0318305 0 -2.15764)
(-0.0443586 0 -2.19412)
(-0.0120439 0 -2.18737)
(0.0207226 0 -2.14711)
(0.0475526 0 -2.09877)
(0.0472362 0 -2.01807)
(0.0275858 0 -1.89306)
(0.0192732 0 -1.60588)
(0.0299398 0 -1.21548)
(0.0443338 0 -0.844017)
(0.0601909 0 -0.511677)
(0.0764426 0 -0.238647)
(0.0912306 0 -0.0401899)
(0.10329 0 0.0845831)
(0.112275 0 0.148755)
(0.1185 0 0.1701)
(0.122588 0 0.165324)
(0.125188 0 0.147164)
(0.126827 0 0.123845)
(0.127869 0 0.0998876)
(0.128526 0 0.0773745)
(0.128893 0 0.0571602)
(0.129221 0 0.0395738)
(0.129138 0 0.0209943)
(-0.122268 0 -0.0441778)
(-0.120896 0 0.0188821)
(-0.116676 0 0.0880011)
(-0.10838 0 0.156072)
(-0.0945451 0 0.21201)
(-0.0747465 0 0.246074)
(-0.0510496 0 0.262135)
(-0.0251639 0 0.275939)
(-0.00187161 0 0.271448)
(0.0276237 0 0.135728)
(0.0486937 0 -0.30594)
(0.0795278 0 -1.0629)
(0.0173677 0 -1.70156)
(-0.0249827 0 -1.81653)
(0.024853 0 -1.86388)
(0.0507941 0 -2.04762)
(0.0697101 0 -2.12068)
(0.0990455 0 -2.08743)
(0.102731 0 -2.11732)
(0.0835546 0 -2.13724)
(0.0674311 0 -2.14129)
(0.0604503 0 -2.14227)
(0.0538202 0 -2.14242)
(0.0428762 0 -2.10873)
(0.0301023 0 -2.04396)
(0.0383406 0 -1.99899)
(0.0590095 0 -2.13899)
(0.0397524 0 -2.19333)
(0.0414197 0 -2.20378)
(0.0493238 0 -2.17404)
(0.0593105 0 -2.11053)
(0.0594736 0 -2.00753)
(0.0373375 0 -1.85808)
(0.0114117 0 -1.59283)
(0.00767094 0 -1.22867)
(0.0161996 0 -0.864754)
(0.027219 0 -0.535131)
(0.0388235 0 -0.263245)
(0.0500358 0 -0.0633949)
(0.0598162 0 0.0647189)
(0.067638 0 0.133041)
(0.0735037 0 0.158395)
(0.0777167 0 0.156945)
(0.0806796 0 0.141262)
(0.0827663 0 0.119663)
(0.0842639 0 0.0968729)
(0.0853574 0 0.0751994)
(0.0861374 0 0.0556479)
(0.0868264 0 0.038464)
(0.0871056 0 0.0199857)
(-0.109988 0 -0.0448859)
(-0.107174 0 0.0164927)
(-0.10146 0 0.0833046)
(-0.0917911 0 0.148252)
(-0.0770387 0 0.200611)
(-0.0571402 0 0.231687)
(-0.0344938 0 0.246429)
(-0.0105494 0 0.260338)
(0.00991859 0 0.255787)
(0.034288 0 0.120805)
(0.049443 0 -0.317491)
(0.0715344 0 -1.05321)
(0.00478855 0 -1.66013)
(-0.0553953 0 -1.81157)
(-0.0309504 0 -1.88557)
(-0.00334294 0 -2.04216)
(-0.00667929 0 -2.12818)
(0.0250327 0 -2.09935)
(0.051406 0 -2.11241)
(0.052873 0 -2.1213)
(0.0469344 0 -2.13118)
(0.045014 0 -2.13627)
(0.0450106 0 -2.13317)
(0.0481421 0 -2.10185)
(0.0617055 0 -2.06933)
(0.0923768 0 -2.06319)
(0.11702 0 -2.13728)
(0.105911 0 -2.18158)
(0.0903356 0 -2.19416)
(0.079634 0 -2.1716)
(0.0730761 0 -2.10846)
(0.0656216 0 -1.99401)
(0.0448457 0 -1.81889)
(0.0167557 0 -1.56324)
(0.00246842 0 -1.22672)
(-0.000167132 0 -0.874754)
(0.00199365 0 -0.549331)
(0.00701313 0 -0.279621)
(0.0134169 0 -0.0802533)
(0.0199696 0 0.0490264)
(0.0258768 0 0.119564)
(0.0307902 0 0.147483)
(0.0346702 0 0.148428)
(0.0376522 0 0.134708)
(0.0399317 0 0.11459)
(0.0416907 0 0.0928845)
(0.0430595 0 0.0720425)
(0.0441034 0 0.0531917)
(0.0450503 0 0.0366343)
(0.0456234 0 0.0188671)
(-0.0979508 0 -0.0464934)
(-0.0937694 0 0.0131578)
(-0.0866581 0 0.0776942)
(-0.0757333 0 0.139712)
(-0.0601614 0 0.188912)
(-0.0401372 0 0.217569)
(-0.0181852 0 0.231498)
(0.00473237 0 0.245824)
(0.0241912 0 0.241826)
(0.0466773 0 0.108221)
(0.0595053 0 -0.325455)
(0.0730199 0 -1.03752)
(0.0158249 0 -1.61633)
(-0.0541969 0 -1.78922)
(-0.051841 0 -1.90106)
(-0.0187687 0 -2.04937)
(-0.0267929 0 -2.12747)
(-0.0137016 0 -2.12539)
(0.0145037 0 -2.12684)
(0.0298723 0 -2.12662)
(0.0391733 0 -2.13183)
(0.046683 0 -2.13853)
(0.0528922 0 -2.13894)
(0.061976 0 -2.12443)
(0.0827182 0 -2.11009)
(0.116966 0 -2.11032)
(0.139307 0 -2.14176)
(0.133787 0 -2.16869)
(0.116779 0 -2.17541)
(0.098884 0 -2.15356)
(0.0820987 0 -2.09146)
(0.0660358 0 -1.97152)
(0.0438048 0 -1.78011)
(0.01709 0 -1.5297)
(-0.00213804 0 -1.20731)
(-0.0136186 0 -0.866669)
(-0.0197787 0 -0.549216)
(-0.021562 0 -0.284772)
(-0.0203524 0 -0.0886949)
(-0.0174455 0 0.0391298)
(-0.0138464 0 0.109668)
(-0.010241 0 0.138478)
(-0.00700135 0 0.140684)
(-0.00425805 0 0.128235)
(-0.00200099 0 0.109219)
(-0.000167438 0 0.0884234)
(0.00129713 0 0.0683742)
(0.00241994 0 0.0502432)
(0.0035075 0 0.0340453)
(0.00439151 0 0.0165986)
(-0.086178 0 -0.0489556)
(-0.080701 0 0.0089341)
(-0.0722761 0 0.0712324)
(-0.0601849 0 0.130506)
(-0.0438556 0 0.176911)
(-0.0236466 0 0.203578)
(-0.00207325 0 0.216925)
(0.0205021 0 0.231576)
(0.0401693 0 0.228127)
(0.0627534 0 0.0962397)
(0.0746152 0 -0.330776)
(0.0788549 0 -1.02063)
(0.0240509 0 -1.57777)
(-0.0355157 0 -1.76117)
(-0.0299951 0 -1.91354)
(-0.0147338 0 -2.05432)
(-0.0261956 0 -2.12523)
(-0.0179592 0 -2.14001)
(0.0111796 0 -2.144)
(0.0350946 0 -2.14249)
(0.0529798 0 -2.14354)
(0.0648698 0 -2.1473)
(0.0731623 0 -2.1479)
(0.0833472 0 -2.14097)
(0.101027 0 -2.13255)
(0.124333 0 -2.13211)
(0.13891 0 -2.14584)
(0.136774 0 -2.15794)
(0.123983 0 -2.15592)
(0.106162 0 -2.12954)
(0.0849647 0 -2.06464)
(0.0612836 0 -1.94156)
(0.0356314 0 -1.74177)
(0.00990766 0 -1.49498)
(-0.011837 0 -1.17869)
(-0.029519 0 -0.844469)
(-0.0426053 0 -0.535451)
(-0.0504577 0 -0.278618)
(-0.05399 0 -0.0884557)
(-0.0544453 0 0.0354017)
(-0.0530145 0 0.103791)
(-0.0506804 0 0.131846)
(-0.0481074 0 0.134174)
(-0.0456642 0 0.122285)
(-0.0435104 0 0.10398)
(-0.0416938 0 0.0839297)
(-0.0402302 0 0.0646448)
(-0.0390876 0 0.047156)
(-0.037911 0 0.0310194)
(-0.0369824 0 0.0138166)
(-0.0746957 0 -0.0522303)
(-0.0679912 0 0.00387218)
(-0.058331 0 0.0639739)
(-0.0451483 0 0.120679)
(-0.0281068 0 0.164598)
(-0.007664 0 0.189603)
(0.0137355 0 0.202443)
(0.0363166 0 0.217143)
(0.0565823 0 0.213979)
(0.0796475 0 0.0842338)
(0.0897284 0 -0.33312)
(0.0848366 0 -1.00263)
(0.0247658 0 -1.54363)
(-0.017853 0 -1.74494)
(-0.0100415 0 -1.91799)
(-0.0202984 0 -2.05174)
(-0.0277642 0 -2.12535)
(-0.00933591 0 -2.15401)
(0.0203441 0 -2.16191)
(0.0465005 0 -2.15889)
(0.0660619 0 -2.15656)
(0.0789342 0 -2.15679)
(0.0882758 0 -2.15599)
(0.0979045 0 -2.15195)
(0.110503 0 -2.14736)
(0.124235 0 -2.14624)
(0.132718 0 -2.14998)
(0.131814 0 -2.15084)
(0.122761 0 -2.13984)
(0.107633 0 -2.10593)
(0.0869226 0 -2.03415)
(0.0615385 0 -1.90604)
(0.0352226 0 -1.70528)
(0.00708285 0 -1.45705)
(-0.021669 0 -1.14297)
(-0.0473288 0 -0.812136)
(-0.0674605 0 -0.510715)
(-0.0811276 0 -0.262884)
(-0.0889677 0 -0.080756)
(-0.0923239 0 0.036985)
(-0.0926859 0 0.101373)
(-0.0913547 0 0.127263)
(-0.0892755 0 0.128752)
(-0.0870338 0 0.116838)
(-0.084938 0 0.0989437)
(-0.0831268 0 0.0795233)
(-0.0816532 0 0.0609415)
(-0.0804568 0 0.0439539)
(-0.0792171 0 0.0279118)
(-0.0784841 0 0.0115354)
(-0.0635317 0 -0.0562759)
(-0.055666 0 -0.00198181)
(-0.0448461 0 0.0559697)
(-0.0306394 0 0.110268)
(-0.0129244 0 0.151977)
(0.00778072 0 0.175577)
(0.0291003 0 0.187953)
(0.0517336 0 0.202471)
(0.0723618 0 0.199469)
(0.0948661 0 0.0729657)
(0.102185 0 -0.331666)
(0.0899001 0 -0.979971)
(0.0234874 0 -1.50959)
(-0.0146506 0 -1.73775)
(-0.0138826 0 -1.91412)
(-0.0304864 0 -2.04522)
(-0.0236972 0 -2.13409)
(0.00538903 0 -2.17228)
(0.0329872 0 -2.17993)
(0.056418 0 -2.17416)
(0.0734781 0 -2.16864)
(0.0849693 0 -2.16613)
(0.0939443 0 -2.16426)
(0.102551 0 -2.16134)
(0.111848 0 -2.15806)
(0.120604 0 -2.15542)
(0.125808 0 -2.15286)
(0.125135 0 -2.14595)
(0.118352 0 -2.12728)
(0.105801 0 -2.08532)
(0.0870904 0 -2.00484)
(0.0626705 0 -1.86978)
(0.0347342 0 -1.66621)
(0.000991898 0 -1.40918)
(-0.0359054 0 -1.09407)
(-0.0696011 0 -0.767728)
(-0.0962201 0 -0.475421)
(-0.11495 0 -0.238702)
(-0.126288 0 -0.0668986)
(-0.131821 0 0.0426672)
(-0.133399 0 0.101424)
(-0.132648 0 0.123991)
(-0.130775 0 0.123909)
(-0.128556 0 0.111569)
(-0.126417 0 0.093913)
(-0.124564 0 0.0750655)
(-0.12306 0 0.0571217)
(-0.12181 0 0.040585)
(-0.120573 0 0.0249359)
(-0.1201 0 0.00984446)
(-0.0527155 0 -0.0610516)
(-0.0437529 0 -0.00858538)
(-0.0318463 0 0.0472657)
(-0.0166747 0 0.0993122)
(0.00167819 0 0.139049)
(0.0226657 0 0.161469)
(0.0439454 0 0.173464)
(0.0665338 0 0.187749)
(0.0871531 0 0.185146)
(0.108244 0 0.0632899)
(0.112706 0 -0.327413)
(0.0954806 0 -0.953137)
(0.0247681 0 -1.47307)
(-0.0182799 0 -1.72587)
(-0.0210418 0 -1.90998)
(-0.020569 0 -2.04546)
(0.000745011 0 -2.14873)
(0.0252055 0 -2.19036)
(0.0472164 0 -2.19553)
(0.0652253 0 -2.18665)
(0.0776439 0 -2.17844)
(0.0862313 0 -2.17414)
(0.093666 0 -2.17168)
(0.101049 0 -2.16911)
(0.10849 0 -2.16576)
(0.114872 0 -2.16129)
(0.118373 0 -2.1545)
(0.117484 0 -2.14193)
(0.111507 0 -2.11671)
(0.0999128 0 -2.06687)
(0.081716 0 -1.977)
(0.0567354 0 -1.83265)
(0.0253572 0 -1.6185)
(-0.016059 0 -1.34857)
(-0.0609897 0 -1.03219)
(-0.100214 0 -0.711939)
(-0.131344 0 -0.431115)
(-0.153385 0 -0.207908)
(-0.166752 0 -0.0486857)
(-0.173334 0 0.0508662)
(-0.175302 0 0.102678)
(-0.174561 0 0.121094)
(-0.172525 0 0.118996)
(-0.170102 0 0.106063)
(-0.167796 0 0.0886488)
(-0.165843 0 0.0704448)
(-0.1643 0 0.0532073)
(-0.163043 0 0.0372651)
(-0.161872 0 0.0223409)
(-0.161603 0 0.00861356)
(-0.0422788 0 -0.0665182)
(-0.0322801 0 -0.0158976)
(-0.0193518 0 0.0379013)
(-0.00327118 0 0.0878384)
(0.0156963 0 0.125815)
(0.0370008 0 0.147266)
(0.0582857 0 0.159004)
(0.080762 0 0.173161)
(0.101125 0 0.171399)
(0.120952 0 0.0552064)
(0.122859 0 -0.320873)
(0.10255 0 -0.923367)
(0.0303829 0 -1.43364)
(-0.00956473 0 -1.70925)
(-0.0155784 0 -1.90767)
(-0.00816602 0 -2.0569)
(0.0236762 0 -2.16421)
(0.0445979 0 -2.20485)
(0.0608328 0 -2.2071)
(0.0725426 0 -2.19511)
(0.0794175 0 -2.18485)
(0.0844038 0 -2.17987)
(0.0899322 0 -2.17762)
(0.0962752 0 -2.17549)
(0.102706 0 -2.17182)
(0.107882 0 -2.16556)
(0.110281 0 -2.15526)
(0.108644 0 -2.13772)
(0.102013 0 -2.1061)
(0.0893725 0 -2.04791)
(0.0692248 0 -1.94742)
(0.0410186 0 -1.79168)
(0.00366612 0 -1.56093)
(-0.0448363 0 -1.27576)
(-0.0954782 0 -0.9606)
(-0.138785 0 -0.648518)
(-0.172645 0 -0.38142)
(-0.196072 0 -0.173711)
(-0.209884 0 -0.0287779)
(-0.216318 0 0.0595054)
(-0.217824 0 0.103605)
(-0.216526 0 0.117506)
(-0.21397 0 0.113317)
(-0.211131 0 0.0998985)
(-0.208536 0 0.0829313)
(-0.20642 0 0.0655977)
(-0.204812 0 0.049278)
(-0.203559 0 0.0341479)
(-0.20246 0 0.0201215)
(-0.202291 0 0.0076507)
(-0.0322541 0 -0.0726376)
(-0.021277 0 -0.0238775)
(-0.00738446 0 0.0279117)
(0.00956389 0 0.0758607)
(0.0291424 0 0.11227)
(0.0508161 0 0.132941)
(0.0721806 0 0.144567)
(0.0945661 0 0.15876)
(0.114493 0 0.158245)
(0.133288 0 0.0482784)
(0.132693 0 -0.312479)
(0.109388 0 -0.892078)
(0.0362599 0 -1.39429)
(-0.000827538 0 -1.69542)
(-0.00367951 0 -1.90834)
(0.011092 0 -2.0735)
(0.0412991 0 -2.17948)
(0.059105 0 -2.21618)
(0.06931 0 -2.21477)
(0.0745745 0 -2.19937)
(0.0761428 0 -2.18762)
(0.0780791 0 -2.18325)
(0.0825571 0 -2.18237)
(0.0888548 0 -2.18118)
(0.0952614 0 -2.17718)
(0.099988 0 -2.16893)
(0.101468 0 -2.15496)
(0.0984576 0 -2.13213)
(0.0898274 0 -2.09345)
(0.074453 0 -2.02586)
(0.050699 0 -1.91254)
(0.0149434 0 -1.74098)
(-0.0313741 0 -1.49282)
(-0.0856613 0 -1.19442)
(-0.139923 0 -0.882847)
(-0.184335 0 -0.582104)
(-0.218281 0 -0.330479)
(-0.241122 0 -0.139607)
(-0.253965 0 -0.00993466)
(-0.259263 0 0.0665497)
(-0.259666 0 0.102792)
(-0.257426 0 0.1123)
(-0.254136 0 0.106293)
(-0.250771 0 0.0927303)
(-0.247835 0 0.0765585)
(-0.245523 0 0.0603988)
(-0.243818 0 0.0452329)
(-0.242537 0 0.0310944)
(-0.241477 0 0.0180659)
(-0.241342 0 0.00679854)
(-0.0226737 0 -0.0793735)
(-0.010772 0 -0.0324866)
(0.0040345 0 0.0173293)
(0.0218262 0 0.0633925)
(0.042034 0 0.098388)
(0.0641528 0 0.118443)
(0.0857037 0 0.130103)
(0.108101 0 0.144528)
(0.127556 0 0.145552)
(0.145716 0 0.0421343)
(0.142309 0 -0.30257)
(0.113881 0 -0.860388)
(0.0424111 0 -1.35911)
(0.0091564 0 -1.68463)
(0.0057631 0 -1.91223)
(0.0224102 0 -2.09075)
(0.0512952 0 -2.19407)
(0.0642215 0 -2.22378)
(0.0659197 0 -2.21841)
(0.0647973 0 -2.19989)
(0.0630781 0 -2.18757)
(0.0645315 0 -2.18555)
(0.0705359 0 -2.18735)
(0.0787932 0 -2.18745)
(0.0864843 0 -2.18276)
(0.0914348 0 -2.1718)
(0.0920385 0 -2.15325)
(0.0870461 0 -2.12404)
(0.0751903 0 -2.07686)
(0.0549891 0 -1.99797)
(0.024846 0 -1.86907)
(-0.0194692 0 -1.67723)
(-0.0734241 0 -1.41589)
(-0.129658 0 -1.10979)
(-0.184965 0 -0.802945)
(-0.230566 0 -0.516042)
(-0.263919 0 -0.281313)
(-0.2853 0 -0.108134)
(-0.296439 0 0.00593166)
(-0.300119 0 0.0706996)
(-0.299178 0 0.0994461)
(-0.295917 0 0.105048)
(-0.291909 0 0.0977287)
(-0.288075 0 0.0844877)
(-0.284858 0 0.0694946)
(-0.282387 0 0.0547844)
(-0.280592 0 0.0409593)
(-0.279272 0 0.0279692)
(-0.278245 0 0.0160705)
(-0.278127 0 0.00601915)
(-0.0135701 0 -0.0866926)
(-0.000792923 0 -0.0416921)
(0.014885 0 0.00617911)
(0.0335091 0 0.0504342)
(0.0543856 0 0.0841295)
(0.0770532 0 0.103696)
(0.0989426 0 0.115523)
(0.121515 0 0.130416)
(0.140615 0 0.133242)
(0.157697 0 0.0371493)
(0.152438 0 -0.290013)
(0.120132 0 -0.826232)
(0.0512002 0 -1.32564)
(0.0154744 0 -1.67162)
(0.00629557 0 -1.91625)
(0.0248499 0 -2.1091)
(0.0506879 0 -2.20671)
(0.0554353 0 -2.22501)
(0.045908 0 -2.21626)
(0.0383628 0 -2.19781)
(0.0377339 0 -2.18716)
(0.0434258 0 -2.18987)
(0.0547563 0 -2.19523)
(0.0672555 0 -2.19615)
(0.0773426 0 -2.18957)
(0.0829011 0 -2.17448)
(0.0825437 0 -2.14987)
(0.0751325 0 -2.11261)
(0.0593777 0 -2.0549)
(0.0336314 0 -1.9623)
(-0.00392981 0 -1.81592)
(-0.054347 0 -1.60439)
(-0.113511 0 -1.33322)
(-0.173383 0 -1.02343)
(-0.229432 0 -0.721428)
(-0.274751 0 -0.450804)
(-0.306626 0 -0.234924)
(-0.325996 0 -0.0802847)
(-0.335134 0 0.0181569)
(-0.337136 0 0.0716738)
(-0.334952 0 0.0935932)
(-0.33086 0 0.0959716)
(-0.326351 0 0.0879388)
(-0.322251 0 0.0754871)
(-0.318913 0 0.0619901)
(-0.316391 0 0.0489105)
(-0.314571 0 0.0365433)
(-0.313258 0 0.024833)
(-0.312292 0 0.0141752)
(-0.312185 0 0.00531708)
(-0.00497716 0 -0.0945636)
(0.00862991 0 -0.051467)
(0.0251451 0 -0.00552535)
(0.0446015 0 0.0369716)
(0.0662062 0 0.0694402)
(0.0895526 0 0.0886079)
(0.111996 0 0.100697)
(0.134997 0 0.116304)
(0.154211 0 0.121234)
(0.170517 0 0.0331856)
(0.164565 0 -0.276306)
(0.130566 0 -0.791995)
(0.0643229 0 -1.29093)
(0.0220835 0 -1.65475)
(0.0127607 0 -1.91884)
(0.0274307 0 -2.12175)
(0.033606 0 -2.21295)
(0.0341164 0 -2.22024)
(0.016698 0 -2.20615)
(0.000927513 0 -2.19479)
(0.00650292 0 -2.19055)
(0.0210635 0 -2.20056)
(0.0402071 0 -2.20883)
(0.0575793 0 -2.20863)
(0.0698955 0 -2.19807)
(0.0756488 0 -2.17694)
(0.0738898 0 -2.1445)
(0.0636684 0 -2.09738)
(0.0437444 0 -2.02722)
(0.012581 0 -1.91902)
(-0.0310961 0 -1.75422)
(-0.0866519 0 -1.52517)
(-0.150978 0 -1.24318)
(-0.214784 0 -0.93403)
(-0.271 0 -0.640402)
(-0.315016 0 -0.387595)
(-0.344739 0 -0.192027)
(-0.361745 0 -0.0563824)
(-0.368827 0 0.026814)
(-0.369322 0 0.0698686)
(-0.366188 0 0.0858298)
(-0.361596 0 0.0857472)
(-0.356901 0 0.0775801)
(-0.352802 0 0.0662952)
(-0.349544 0 0.0544826)
(-0.347112 0 0.0430941)
(-0.345367 0 0.0322172)
(-0.344138 0 0.0218435)
(-0.343273 0 0.012443)
(-0.343174 0 0.00469073)
(0.00306753 0 -0.102956)
(0.017462 0 -0.0617871)
(0.0347873 0 -0.0177792)
(0.0550842 0 0.0229805)
(0.0774921 0 0.0542497)
(0.101668 0 0.0730542)
(0.124946 0 0.0854414)
(0.148744 0 0.101913)
(0.168834 0 0.109157)
(0.185415 0 0.0294523)
(0.180005 0 -0.262314)
(0.145344 0 -0.75842)
(0.0820271 0 -1.25467)
(0.0314206 0 -1.6333)
(0.0117222 0 -1.91909)
(0.00518083 0 -2.12376)
(-0.00217131 0 -2.21129)
(-0.000750261 0 -2.21394)
(-0.0130309 0 -2.19448)
(-0.023369 0 -2.19221)
(-0.0145052 0 -2.20198)
(0.0105823 0 -2.2199)
(0.0353745 0 -2.22829)
(0.054647 0 -2.22404)
(0.0668682 0 -2.20722)
(0.0712177 0 -2.17831)
(0.0670236 0 -2.13646)
(0.0533117 0 -2.07785)
(0.0287203 0 -1.99355)
(-0.00834486 0 -1.86834)
(-0.0583857 0 -1.68486)
(-0.119026 0 -1.43954)
(-0.186993 0 -1.14679)
(-0.252857 0 -0.842195)
(-0.308254 0 -0.561264)
(-0.350104 0 -0.327939)
(-0.377233 0 -0.153425)
(-0.39179 0 -0.0365575)
(-0.397002 0 0.0322678)
(-0.39633 0 0.0659558)
(-0.392639 0 0.0769638)
(-0.387929 0 0.0751883)
(-0.383377 0 0.0673823)
(-0.379536 0 0.0575057)
(-0.37655 0 0.0474248)
(-0.37435 0 0.0376795)
(-0.372794 0 0.028245)
(-0.371741 0 0.0191739)
(-0.371046 0 0.0109551)
(-0.370992 0 0.00417787)
(0.0105231 0 -0.11184)
(0.0256627 0 -0.0726295)
(0.0437749 0 -0.0305801)
(0.0649229 0 0.00842966)
(0.0882172 0 0.0384753)
(0.113381 0 0.0568828)
(0.137805 0 0.069515)
(0.162837 0 0.0868163)
(0.184624 0 0.0963302)
(0.202861 0 0.024884)
(0.19969 0 -0.248914)
(0.165977 0 -0.725112)
(0.104415 0 -1.21728)
(0.0534437 0 -1.60638)
(0.0263332 0 -1.90573)
(-0.00438617 0 -2.11467)
(-0.00711817 0 -2.20732)
(-0.00860839 0 -2.20929)
(-0.0190407 0 -2.18717)
(-0.0224499 0 -2.19474)
(-0.00643095 0 -2.22254)
(0.0261517 0 -2.24372)
(0.0480297 0 -2.24863)
(0.0627164 0 -2.23829)
(0.0705877 0 -2.21416)
(0.0709106 0 -2.17673)
(0.0627626 0 -2.12458)
(0.0446733 0 -2.05325)
(0.0148735 0 -1.95332)
(-0.0283798 0 -1.80981)
(-0.0846825 0 -1.60806)
(-0.150704 0 -1.34782)
(-0.221252 0 -1.04808)
(-0.286923 0 -0.75054)
(-0.340513 0 -0.485357)
(-0.379552 0 -0.272802)
(-0.403845 0 -0.119438)
(-0.41607 0 -0.020558)
(-0.41975 0 0.0351474)
(-0.418331 0 0.060747)
(-0.414498 0 0.0678366)
(-0.410027 0 0.0650636)
(-0.405898 0 0.0579847)
(-0.402523 0 0.0496185)
(-0.399966 0 0.0412102)
(-0.398134 0 0.0330026)
(-0.396903 0 0.0249256)
(-0.396184 0 0.0170823)
(-0.395858 0 0.00991578)
(-0.396021 0 0.00383286)
(0.0173446 0 -0.121186)
(0.0331848 0 -0.0839713)
(0.0520591 0 -0.0439251)
(0.0740649 0 -0.00671224)
(0.0983236 0 0.0220336)
(0.124624 0 0.0399335)
(0.150487 0 0.0526582)
(0.177198 0 0.07056)
(0.201455 0 0.0820095)
(0.222733 0 0.0183331)
(0.224661 0 -0.23781)
(0.195057 0 -0.692831)
(0.134465 0 -1.17957)
(0.0866949 0 -1.57958)
(0.0401362 0 -1.87982)
(-0.0075515 0 -2.10589)
(0.0105561 0 -2.21089)
(0.0227588 0 -2.21211)
(0.026939 0 -2.18616)
(0.0406014 0 -2.20128)
(0.0537903 0 -2.24126)
(0.0703105 0 -2.2605)
(0.0789554 0 -2.26103)
(0.0826157 0 -2.24534)
(0.0816594 0 -2.215)
(0.0751554 0 -2.16985)
(0.0614812 0 -2.1075)
(0.0381619 0 -2.02279)
(0.00274608 0 -1.90612)
(-0.0468346 0 -1.74323)
(-0.10908 0 -1.52442)
(-0.179797 0 -1.25078)
(-0.25206 0 -0.949554)
(-0.316291 0 -0.661239)
(-0.367478 0 -0.413731)
(-0.40343 0 -0.222609)
(-0.424931 0 -0.0899096)
(-0.435118 0 -0.00780257)
(-0.437674 0 0.0362537)
(-0.435919 0 0.0550806)
(-0.432295 0 0.0592075)
(-0.428328 0 0.0559979)
(-0.424805 0 0.0498756)
(-0.422015 0 0.0430361)
(-0.419978 0 0.0362518)
(-0.418624 0 0.0296053)
(-0.417876 0 0.023066)
(-0.417702 0 0.0167939)
(-0.418153 0 0.0110624)
(-0.419091 0 0.0051658)
(0.023482 0 -0.130959)
(0.0399737 0 -0.0957872)
(0.0595784 0 -0.0578063)
(0.0824382 0 -0.0224696)
(0.10772 0 0.00485299)
(0.135275 0 0.0220644)
(0.162822 0 0.0346355)
(0.191587 0 0.0527501)
(0.218963 0 0.0655208)