/*--------------------------------*- C++ -*----------------------------------*\
  =========                 |
  \\      /  F ield         | OpenFOAM: The Open Source CFD Toolbox
   \\    /   O peration     | Website:  https://openfoam.org
    \\  /    A nd           | Version:  9
     \\/     M anipulation  |
\*---------------------------------------------------------------------------*/
FoamFile
{
    format      ascii;
    class       surfaceVectorField;
    location    "0.12";
    object      Uf;
}
// * * * * * * * * * * * * * * * * * * * * * * * * * * * * * * * * * * * * * //

dimensions      [0 1 -1 0 0 0 0];

internalField   nonuniform List<vector> 
9850
(
(-0.260717 0 -0.0640927)
(-0.244846 0 -0.0940865)
(-0.280081 0 0.0137918)
(-0.262624 0 -0.0223215)
(-0.30011 0 0.103937)
(-0.28081 0 0.061883)
(-0.319763 0 0.20385)
(-0.299089 0 0.157698)
(-0.335421 0 0.304356)
(-0.315188 0 0.259722)
(-0.341677 0 0.391721)
(-0.323868 0 0.353633)
(-0.336465 0 0.46413)
(-0.320234 0 0.426984)
(-0.324513 0 0.536971)
(-0.306303 0 0.491943)
(-0.299588 0 0.580184)
(-0.286126 0 0.565306)
(-0.218757 0 0.417344)
(-0.245187 0 0.553531)
(-0.0620438 0 -0.197508)
(-0.162158 0 0.194119)
(0.107384 0 -1.1075)
(0.110242 0 -0.698056)
(0.0577211 0 -1.80636)
(0.105861 0 -1.58105)
(0.0188062 0 -2.09368)
(0.038522 0 -2.02741)
(-0.0128776 0 -2.15047)
(0.000786609 0 -2.13208)
(-0.0313969 0 -2.15631)
(-0.0298248 0 -2.1508)
(-0.0368674 0 -2.16008)
(-0.036822 0 -2.15452)
(-0.0338777 0 -2.17022)
(-0.0354571 0 -2.16544)
(-0.0269901 0 -2.18193)
(-0.0299435 0 -2.17828)
(-0.0175233 0 -2.19268)
(-0.0226991 0 -2.19046)
(-0.00771931 0 -2.1991)
(-0.0143609 0 -2.20032)
(0.00303223 0 -2.20064)
(-0.0050067 0 -2.20559)
(0.0131735 0 -2.1956)
(0.00500842 0 -2.20426)
(0.0208614 0 -2.1837)
(0.013696 0 -2.19485)
(0.0249384 0 -2.16633)
(0.0192756 0 -2.17829)
(0.0249297 0 -2.14634)
(0.0213264 0 -2.15703)
(0.0207942 0 -2.12633)
(0.0198763 0 -2.13458)
(0.0128538 0 -2.10272)
(0.0145006 0 -2.11246)
(0.00154893 0 -2.05958)
(0.00342678 0 -2.08138)
(-0.00983422 0 -1.97801)
(-0.0115861 0 -2.02176)
(-0.00264699 0 -1.81627)
(-0.0218649 0 -1.9296)
(0.0719805 0 -1.4957)
(-0.00374996 0 -1.75416)
(0.190013 0 -1.05899)
(0.103082 0 -1.36996)
(0.314363 0 -0.617999)
(0.217676 0 -0.925702)
(0.426437 0 -0.233446)
(0.33407 0 -0.493881)
(0.511816 0 0.0467739)
(0.434169 0 -0.137769)
(0.566014 0 0.210737)
(0.505179 0 0.104814)
(0.593408 0 0.278197)
(0.54707 0 0.235147)
(0.60252 0 0.282046)
(0.566366 0 0.279515)
(0.60165 0 0.252993)
(0.571391 0 0.271134)
(0.596611 0 0.212188)
(0.569199 0 0.237761)
(0.590506 0 0.170763)
(0.564287 0 0.197007)
(0.584527 0 0.132829)
(0.558844 0 0.157367)
(0.578892 0 0.0988926)
(0.553602 0 0.121529)
(0.57348 0 0.0682211)
(0.54862 0 0.0894731)
(0.568146 0 0.0400073)
(0.543754 0 0.0603976)
(0.56282 0 0.0137169)
(0.53889 0 0.0335724)
(0.557499 0 -0.0110151)
(0.5339 0 0.00853413)
(0.552213 0 -0.0351376)
(0.529247 0 -0.0151089)
(0.521464 0 -0.0386282)
(-0.247016 0 -0.0522572)
(-0.232216 0 -0.0831423)
(-0.263642 0 0.025859)
(-0.247554 0 -0.0112375)
(-0.280123 0 0.115738)
(-0.262731 0 0.0728701)
(-0.294863 0 0.213654)
(-0.277002 0 0.167525)
(-0.303966 0 0.309158)
(-0.287631 0 0.265791)
(-0.302658 0 0.389301)
(-0.289472 0 0.352761)
(-0.289807 0 0.455477)
(-0.278552 0 0.418417)
(-0.269317 0 0.521263)
(-0.258005 0 0.478283)
(-0.235654 0 0.541251)
(-0.23012 0 0.542863)
(-0.154076 0 0.334788)
(-0.176824 0 0.499145)
(-0.00149782 0 -0.302691)
(-0.105627 0 0.0924004)
(0.106431 0 -1.15887)
(0.121379 0 -0.770009)
(0.0954363 0 -1.78909)
(0.156282 0 -1.57372)
(0.0224313 0 -2.06468)
(0.0505974 0 -1.97874)
(-0.0176268 0 -2.1327)
(-0.00367911 0 -2.10538)
(-0.0341344 0 -2.14892)
(-0.033639 0 -2.13979)
(-0.0359986 0 -2.15997)
(-0.0348268 0 -2.15328)
(-0.0316338 0 -2.17364)
(-0.0306953 0 -2.16835)
(-0.0258264 0 -2.18696)
(-0.0255455 0 -2.18215)
(-0.0189038 0 -2.19926)
(-0.0208086 0 -2.19508)
(-0.0115202 0 -2.20711)
(-0.0157772 0 -2.20635)
(-0.00274853 0 -2.20939)
(-0.00954657 0 -2.2131)
(0.00594073 0 -2.2036)
(-0.00201882 0 -2.21206)
(0.0124793 0 -2.18949)
(0.004744 0 -2.20101)
(0.0158659 0 -2.16905)
(0.00817507 0 -2.18164)
(0.0162332 0 -2.14534)
(0.00819691 0 -2.15741)
(0.0131832 0 -2.12076)
(0.00583603 0 -2.13126)
(0.00507842 0 -2.09103)
(0.000272894 0 -2.10322)
(-0.0104668 0 -2.04195)
(-0.0118413 0 -2.06279)
(-0.0294756 0 -1.97112)
(-0.0285499 0 -1.99792)
(-0.0209116 0 -1.86116)
(-0.0400131 0 -1.94087)
(0.0361922 0 -1.61527)
(-0.0171121 0 -1.83299)
(0.134038 0 -1.2242)
(0.0666434 0 -1.51163)
(0.242412 0 -0.790607)
(0.162525 0 -1.0903)
(0.344627 0 -0.389261)
(0.263484 0 -0.656729)
(0.427922 0 -0.0735431)
(0.355526 0 -0.276972)
(0.485881 0 0.132698)
(0.426142 0 0.003211)
(0.519638 0 0.237846)
(0.472292 0 0.173073)
(0.534934 0 0.268677)
(0.497337 0 0.250009)
(0.538738 0 0.255335)
(0.507483 0 0.263437)
(0.536746 0 0.22179)
(0.508976 0 0.241988)
(0.532536 0 0.1828)
(0.506436 0 0.20638)
(0.527846 0 0.145306)
(0.502524 0 0.16832)
(0.523261 0 0.111418)
(0.498416 0 0.13276)
(0.518827 0 0.0810401)
(0.494448 0 0.100868)
(0.514422 0 0.0534641)
(0.490604 0 0.0722701)
(0.509926 0 0.0280573)
(0.486803 0 0.046284)
(0.505261 0 0.0043687)
(0.482943 0 0.0223713)
(0.500513 0 -0.0182363)
(0.47944 0 -0.000337943)
(0.473098 0 -0.020373)
(-0.232985 0 -0.0420867)
(-0.219304 0 -0.0736859)
(-0.246886 0 0.0358271)
(-0.232253 0 -0.00197015)
(-0.25986 0 0.124768)
(-0.244475 0 0.0815197)
(-0.269958 0 0.219854)
(-0.254887 0 0.174257)
(-0.273235 0 0.309667)
(-0.260513 0 0.267976)
(-0.265523 0 0.382271)
(-0.256528 0 0.347619)
(-0.246272 0 0.441808)
(-0.239585 0 0.405583)
(-0.218135 0 0.500464)
(-0.212942 0 0.459525)
(-0.176478 0 0.501435)
(-0.178183 0 0.515092)
(-0.0993503 0 0.259554)
(-0.115181 0 0.447727)
(0.0252357 0 -0.382466)
(-0.0458899 0 0.00934309)
(0.115539 0 -1.19708)
(0.128281 0 -0.830211)
(0.154284 0 -1.7641)
(0.226189 0 -1.59955)
(0.0250777 0 -2.01947)
(0.0791918 0 -1.8926)
(-0.0207833 0 -2.11423)
(-0.00144724 0 -2.0748)
(-0.0332719 0 -2.14454)
(-0.0284939 0 -2.13147)
(-0.0302199 0 -2.16212)
(-0.0251074 0 -2.15531)
(-0.0245988 0 -2.17721)
(-0.0196538 0 -2.1721)
(-0.0206523 0 -2.19051)
(-0.0161959 0 -2.18478)
(-0.0173936 0 -2.2035)
(-0.0149335 0 -2.19725)
(-0.013805 0 -2.21267)
(-0.0142769 0 -2.20928)
(-0.0086147 0 -2.21593)
(-0.0127522 0 -2.21754)
(-0.00286233 0 -2.20951)
(-0.00941978 0 -2.21722)
(0.00071645 0 -2.19321)
(-0.00573655 0 -2.20438)
(0.000646216 0 -2.17017)
(-0.00610126 0 -2.18157)
(-0.00210431 0 -2.14366)
(-0.0118358 0 -2.15456)
(-0.00712891 0 -2.11434)
(-0.0200105 0 -2.1258)
(-0.0162755 0 -2.07537)
(-0.0283876 0 -2.0928)
(-0.0328188 0 -2.01794)
(-0.0365794 0 -2.04301)
(-0.0494889 0 -1.96615)
(-0.0443419 0 -1.977)
(-0.0336586 0 -1.91011)
(-0.0426882 0 -1.9617)
(0.0207435 0 -1.72155)
(-0.00142348 0 -1.90808)
(0.0998844 0 -1.36556)
(0.0562467 0 -1.62622)
(0.188371 0 -0.943449)
(0.12849 0 -1.2247)
(0.277227 0 -0.533841)
(0.210438 0 -0.798295)
(0.354396 0 -0.192635)
(0.290501 0 -0.405937)
(0.412353 0 0.0481573)
(0.356569 0 -0.0983892)
(0.44962 0 0.187415)
(0.403428 0 0.104545)
(0.469548 0 0.245292)
(0.431795 0 0.21157)
(0.477484 0 0.249705)
(0.445789 0 0.24738)
(0.478523 0 0.225806)
(0.450508 0 0.239784)
(0.476335 0 0.191026)
(0.450265 0 0.211251)
(0.473025 0 0.154909)
(0.447897 0 0.17605)
(0.469535 0 0.121355)
(0.444896 0 0.141311)
(0.466152 0 0.0911911)
(0.441861 0 0.10956)
(0.462898 0 0.0640301)
(0.438935 0 0.081042)
(0.45974 0 0.0392489)
(0.436104 0 0.0552136)
(0.456679 0 0.0163224)
(0.433304 0 0.0314473)
(0.453593 0 -0.00454051)
(0.430987 0 0.00926474)
(0.426274 0 -0.0102608)
(-0.218752 0 -0.033529)
(-0.206214 0 -0.0656786)
(-0.230031 0 0.0437845)
(-0.216866 0 0.00554918)
(-0.239693 0 0.131131)
(-0.226282 0 0.0879612)
(-0.245525 0 0.222587)
(-0.233108 0 0.178145)
(-0.243678 0 0.306203)
(-0.234252 0 0.266744)
(-0.2306 0 0.371251)
(-0.225392 0 0.338901)
(-0.206023 0 0.423727)
(-0.203738 0 0.389198)
(-0.171017 0 0.474504)
(-0.171847 0 0.436188)
(-0.120843 0 0.4609)
(-0.130838 0 0.481643)
(-0.0447152 0 0.196185)
(-0.0602111 0 0.396975)
(0.0635883 0 -0.445396)
(0.013569 0 -0.0628592)
(0.151796 0 -1.24523)
(0.134758 0 -0.889016)
(0.228958 0 -1.7374)
(0.257173 0 -1.65099)
(0.053568 0 -1.95211)
(0.126059 0 -1.77567)
(-0.00893967 0 -2.09409)
(0.0268033 0 -2.03313)
(-0.0204237 0 -2.14376)
(0.00197296 0 -2.12381)
(-0.0151651 0 -2.1662)
(-0.000451721 0 -2.15882)
(-0.0110556 0 -2.18014)
(-0.000271485 0 -2.17484)
(-0.0105402 0 -2.19176)
(-0.00163202 0 -2.18512)
(-0.0119486 0 -2.20437)
(-0.00476651 0 -2.19631)
(-0.0133734 0 -2.21442)
(-0.00900271 0 -2.20811)
(-0.0134468 0 -2.21881)
(-0.0134363 0 -2.21748)
(-0.0119902 0 -2.21168)
(-0.0160222 0 -2.21853)
(-0.0123609 0 -2.19194)
(-0.0158043 0 -2.20403)
(-0.0186129 0 -2.16478)
(-0.0192683 0 -2.17539)
(-0.0294153 0 -2.13515)
(-0.0321591 0 -2.14337)
(-0.0405811 0 -2.10213)
(-0.0480184 0 -2.11367)
(-0.0501728 0 -2.05837)
(-0.0566869 0 -2.08186)
(-0.0508571 0 -2.00216)
(-0.0526529 0 -2.04219)
(-0.0440678 0 -1.97261)
(-0.0373741 0 -1.98552)
(-0.00986035 0 -1.95985)
(-0.00144068 0 -2.00672)
(0.0373993 0 -1.80868)
(0.0429104 0 -1.97331)
(0.0896138 0 -1.4758)
(0.0590275 0 -1.70182)
(0.15472 0 -1.06883)
(0.104998 0 -1.32358)
(0.226497 0 -0.66022)
(0.170156 0 -0.91265)
(0.293591 0 -0.303695)
(0.237611 0 -0.518064)
(0.347627 0 -0.0367042)
(0.296536 0 -0.193115)
(0.385267 0 0.131564)
(0.341204 0 0.0353284)
(0.407678 0 0.214716)
(0.370524 0 0.168341)
(0.418551 0 0.237408)
(0.386826 0 0.22538)
(0.422091 0 0.22463)
(0.393963 0 0.23227)
(0.421731 0 0.195487)
(0.395671 0 0.212052)
(0.419698 0 0.16166)
(0.394698 0 0.180799)
(0.417155 0 0.128796)
(0.392677 0 0.147539)
(0.414572 0 0.0987921)
(0.390387 0 0.116198)
(0.412059 0 0.0717419)
(0.388098 0 0.0878148)
(0.409594 0 0.0471357)
(0.385846 0 0.0621835)
(0.407124 0 0.0244355)
(0.383577 0 0.0387739)
(0.404572 0 0.00410662)
(0.381704 0 0.0172048)
(0.377641 0 -0.00127102)
(-0.204464 0 -0.0265488)
(-0.193055 0 -0.0590596)
(-0.213256 0 0.049797)
(-0.201521 0 0.0114111)
(-0.219831 0 0.135065)
(-0.208307 0 0.0923443)
(-0.221842 0 0.222416)
(-0.211873 0 0.179485)
(-0.215673 0 0.299594)
(-0.209145 0 0.262632)
(-0.198348 0 0.357045)
(-0.196402 0 0.327351)
(-0.16967 0 0.401923)
(-0.171445 0 0.370079)
(-0.129335 0 0.443595)
(-0.135931 0 0.409298)
(-0.0718347 0 0.417458)
(-0.0906831 0 0.44331)
(0.00671962 0 0.138265)
(-0.0165216 0 0.344605)
(0.0977074 0 -0.502667)
(0.063114 0 -0.123518)
(0.175354 0 -1.28746)
(0.146054 0 -0.940781)
(0.203186 0 -1.70807)
(0.248552 0 -1.66954)
(0.105332 0 -1.88349)
(0.192888 0 -1.71044)
(0.0421215 0 -2.06841)
(0.0930545 0 -1.99099)
(0.0190861 0 -2.14077)
(0.061787 0 -2.10845)
(0.0140886 0 -2.16753)
(0.0415316 0 -2.15549)
(0.00961908 0 -2.17976)
(0.0268564 0 -2.17186)
(0.00411116 0 -2.18962)
(0.0166895 0 -2.18145)
(-0.00236349 0 -2.20115)
(0.00885397 0 -2.19199)
(-0.00935628 0 -2.2113)
(0.000119682 0 -2.20241)
(-0.0159647 0 -2.21705)
(-0.0106448 0 -2.21182)
(-0.0196476 0 -2.21009)
(-0.0206623 0 -2.21522)
(-0.022672 0 -2.18586)
(-0.024038 0 -2.20118)
(-0.0329438 0 -2.15174)
(-0.026585 0 -2.16525)
(-0.0501163 0 -2.1192)
(-0.0409804 0 -2.12557)
(-0.0641746 0 -2.09086)
(-0.0573562 0 -2.09839)
(-0.0622993 0 -2.06025)
(-0.0588994 0 -2.084)
(-0.0361197 0 -2.02243)
(-0.0414119 0 -2.0735)
(0.00559521 0 -2.02348)
(-0.0118237 0 -2.03785)
(0.0542707 0 -2.01602)
(0.0131078 0 -2.07077)
(0.0596101 0 -1.85342)
(0.0455091 0 -1.98068)
(0.0752117 0 -1.54152)
(0.0543204 0 -1.72441)
(0.124984 0 -1.16179)
(0.085819 0 -1.39918)
(0.184083 0 -0.763306)
(0.137293 0 -1.00681)
(0.241624 0 -0.400811)
(0.193047 0 -0.614226)
(0.290238 0 -0.116097)
(0.243963 0 -0.278337)
(0.326189 0 0.0750925)
(0.284672 0 -0.0307795)
(0.349329 0 0.1803)
(0.313159 0 0.123707)
(0.361974 0 0.220397)
(0.330424 0 0.199794)
(0.367382 0 0.219232)
(0.339177 0 0.220793)
(0.368546 0 0.196666)
(0.342449 0 0.209459)
(0.36762 0 0.165959)
(0.342715 0 0.182962)
(0.365864 0 0.134301)
(0.341598 0 0.151841)
(0.363871 0 0.104694)
(0.339973 0 0.121319)
(0.361844 0 0.0778439)
(0.338213 0 0.0932771)
(0.35981 0 0.0535043)
(0.33642 0 0.0679364)
(0.357735 0 0.0312728)
(0.334585 0 0.0449282)
(0.355545 0 0.0115626)
(0.333025 0 0.0240182)
(0.329571 0 0.00603113)
(-0.190215 0 -0.0210538)
(-0.179909 0 -0.0537614)
(-0.19667 0 0.0540193)
(-0.18631 0 0.0157145)
(-0.200422 0 0.136838)
(-0.190663 0 0.0948454)
(-0.199121 0 0.219792)
(-0.191335 0 0.178618)
(-0.189491 0 0.290509)
(-0.185392 0 0.256212)
(-0.169129 0 0.340532)
(-0.169761 0 0.313777)
(-0.137975 0 0.377641)
(-0.142954 0 0.349309)
(-0.095093 0 0.409371)
(-0.106073 0 0.380711)
(-0.0347913 0 0.371123)
(-0.0600078 0 0.403108)
(0.0429075 0 0.0836573)
(0.0122758 0 0.292806)
(0.121132 0 -0.557109)
(0.0925155 0 -0.175668)
(0.185846 0 -1.32735)
(0.155847 0 -0.983923)
(0.231231 0 -1.69265)
(0.229168 0 -1.6998)
(0.20572 0 -1.8206)
(0.271807 0 -1.69343)
(0.122731 0 -2.02152)
(0.169425 0 -1.93566)
(0.0785783 0 -2.12277)
(0.121768 0 -2.07902)
(0.0537609 0 -2.159)
(0.0855369 0 -2.13894)
(0.0347609 0 -2.17283)
(0.0555154 0 -2.15919)
(0.0214023 0 -2.18339)
(0.0361738 0 -2.17255)
(0.0103345 0 -2.19398)
(0.024566 0 -2.18462)
(-0.00154655 0 -2.20287)
(0.0124733 0 -2.19272)
(-0.0153544 0 -2.2099)
(-0.00369998 0 -2.2)
(-0.025142 0 -2.20624)
(-0.0219184 0 -2.20644)
(-0.0281741 0 -2.1805)
(-0.0307839 0 -2.19833)
(-0.0346384 0 -2.13886)
(-0.0305588 0 -2.15886)
(-0.0481102 0 -2.10518)
(-0.0389147 0 -2.11161)
(-0.0524564 0 -2.09119)
(-0.0483392 0 -2.09366)
(-0.0382379 0 -2.08743)
(-0.0405972 0 -2.10021)
(-0.012595 0 -2.06987)
(-0.0151008 0 -2.10417)
(-0.00497856 0 -2.07402)
(-0.00937666 0 -2.04741)
(0.00867117 0 -2.0442)
(-0.0209585 0 -2.08873)
(0.0380564 0 -1.8684)
(0.00433436 0 -2.02125)
(0.0665612 0 -1.58404)
(0.0394362 0 -1.76569)
(0.102733 0 -1.23516)
(0.0760662 0 -1.45412)
(0.148852 0 -0.848906)
(0.112854 0 -1.08028)
(0.196473 0 -0.48432)
(0.155454 0 -0.69381)
(0.238608 0 -0.187547)
(0.19747 0 -0.352201)
(0.271417 0 0.0212108)
(0.232937 0 -0.0911114)
(0.293927 0 0.144802)
(0.259201 0 0.080288)
(0.307365 0 0.20055)
(0.276298 0 0.172604)
(0.314083 0 0.210665)
(0.285935 0 0.206534)
(0.316532 0 0.195079)
(0.290404 0 0.204008)
(0.316647 0 0.168088)
(0.29178 0 0.182692)
(0.315678 0 0.138134)
(0.291555 0 0.154214)
(0.31429 0 0.109242)
(0.290614 0 0.124887)
(0.312763 0 0.0827656)
(0.289389 0 0.097394)
(0.311175 0 0.0587922)
(0.288033 0 0.0724258)
(0.309512 0 0.0371296)
(0.286581 0 0.049859)
(0.307672 0 0.0180018)
(0.285273 0 0.0297445)
(0.282253 0 0.012327)
(-0.176084 0 -0.0169527)
(-0.16684 0 -0.0497098)
(-0.180369 0 0.0565943)
(-0.171307 0 0.0185715)
(-0.181592 0 0.136694)
(-0.173435 0 0.0956608)
(-0.177501 0 0.215124)
(-0.171586 0 0.17589)
(-0.165248 0 0.279588)
(-0.163068 0 0.248043)
(-0.143069 0 0.32268)
(-0.14547 0 0.298991)
(-0.111292 0 0.352526)
(-0.118147 0 0.328124)
(-0.0691872 0 0.374769)
(-0.0821207 0 0.352641)
(-0.0118988 0 0.325237)
(-0.0389159 0 0.364916)
(0.0609663 0 0.0336405)
(0.0265688 0 0.24423)
(0.127016 0 -0.602866)
(0.0983081 0 -0.219701)
(0.186993 0 -1.36035)
(0.152209 0 -1.02391)
(0.234903 0 -1.69435)
(0.170772 0 -1.73174)
(0.285507 0 -1.77908)
(0.277446 0 -1.72716)
(0.170359 0 -1.97014)
(0.198623 0 -1.8589)
(0.123562 0 -2.09161)
(0.151483 0 -2.04782)
(0.0872851 0 -2.13903)
(0.115557 0 -2.11476)
(0.0578557 0 -2.15901)
(0.0789953 0 -2.13957)
(0.0393381 0 -2.17392)
(0.0555467 0 -2.1602)
(0.0252916 0 -2.184)
(0.0418158 0 -2.17525)
(0.00971005 0 -2.1896)
(0.0273158 0 -2.18)
(-0.0103518 0 -2.1962)
(0.00819939 0 -2.18283)
(-0.028213 0 -2.19876)
(-0.0154728 0 -2.1904)
(-0.0338369 0 -2.1779)
(-0.032495 0 -2.19303)
(-0.0336642 0 -2.13188)
(-0.0390902 0 -2.15903)
(-0.0404012 0 -2.09856)
(-0.0428755 0 -2.10463)
(-0.0368047 0 -2.09971)
(-0.044245 0 -2.09757)
(-0.0125044 0 -2.10445)
(-0.02644 0 -2.12791)
(-0.014186 0 -2.07467)
(-0.00843169 0 -2.10216)
(-0.0290682 0 -2.07346)
(-0.00771832 0 -2.02874)
(-0.0223832 0 -2.06469)
(-0.00374377 0 -2.09753)
(0.00616577 0 -1.91171)
(-0.0117813 0 -2.06065)
(0.0578153 0 -1.63281)
(0.0139183 0 -1.84047)
(0.088459 0 -1.29019)
(0.0595531 0 -1.50066)
(0.121344 0 -0.91528)
(0.0905471 0 -1.13268)
(0.157513 0 -0.553211)
(0.122089 0 -0.754256)
(0.192009 0 -0.24949)
(0.15521 0 -0.412674)
(0.220485 0 -0.0279853)
(0.184906 0 -0.143475)
(0.241234 0 0.110224)
(0.208136 0 0.0402649)
(0.254596 0 0.179327)
(0.224267 0 0.145568)
(0.26209 0 0.199758)
(0.234198 0 0.19063)
(0.265569 0 0.191069)
(0.239529 0 0.196261)
(0.266653 0 0.168112)
(0.241888 0 0.180162)
(0.266476 0 0.140259)
(0.242551 0 0.154646)
(0.265704 0 0.112398)
(0.242347 0 0.126872)
(0.264651 0 0.0865046)
(0.241722 0 0.100231)
(0.263428 0 0.0630436)
(0.240869 0 0.0758842)
(0.262026 0 0.0421383)
(0.239856 0 0.0540161)
(0.260358 0 0.0238546)
(0.23892 0 0.0349363)
(0.23666 0 0.0177638)
(-0.162127 0 -0.0141517)
(-0.153897 0 -0.04683)
(-0.164413 0 0.0576801)
(-0.156558 0 0.020096)
(-0.163401 0 0.134908)
(-0.156664 0 0.0949857)
(-0.15701 0 0.208867)
(-0.152641 0 0.17163)
(-0.142887 0 0.267511)
(-0.142117 0 0.238628)
(-0.119958 0 0.304499)
(-0.123323 0 0.283705)
(-0.089139 0 0.32826)
(-0.0965136 0 0.307578)
(-0.0503836 0 0.342695)
(-0.0629372 0 0.326804)
(0.000402219 0 0.283789)
(-0.025258 0 0.331059)
(0.0629499 0 -0.00930849)
(0.030149 0 0.202531)
(0.114389 0 -0.639981)
(0.086138 0 -0.253994)
(0.151581 0 -1.39113)
(0.133147 0 -1.0487)
(0.177296 0 -1.75081)
(0.104244 0 -1.74888)
(0.240478 0 -1.79382)
(0.190029 0 -1.76929)
(0.160409 0 -1.92426)
(0.169166 0 -1.80552)
(0.143358 0 -2.05903)
(0.145198 0 -2.03645)
(0.10829 0 -2.11279)
(0.128588 0 -2.09138)
(0.0765658 0 -2.14103)
(0.0981459 0 -2.11842)
(0.0582131 0 -2.16227)
(0.0766033 0 -2.14797)
(0.0423063 0 -2.17189)
(0.0602947 0 -2.16465)
(0.0249683 0 -2.17304)
(0.0435106 0 -2.16586)
(0.00310166 0 -2.17635)
(0.0250336 0 -2.16412)
(-0.0213729 0 -2.18266)
(0.00607997 0 -2.16843)
(-0.0380249 0 -2.16877)
(-0.0140932 0 -2.17735)
(-0.047128 0 -2.1268)
(-0.0431535 0 -2.15004)
(-0.0473249 0 -2.10104)
(-0.0638876 0 -2.10443)
(-0.0305867 0 -2.11253)
(-0.0767914 0 -2.11577)
(-0.0219187 0 -2.11908)
(-0.0510923 0 -2.1378)
(-0.00735458 0 -2.07165)
(-0.0268545 0 -2.11957)
(0.0192488 0 -2.06073)
(0.00739876 0 -2.06211)
(0.0105814 0 -2.07193)
(0.0339855 0 -2.08612)
(-0.00851122 0 -1.95864)
(0.00943949 0 -2.0343)
(0.0229409 0 -1.69598)
(0.00882228 0 -1.88601)
(0.0645823 0 -1.34154)
(0.0438144 0 -1.5639)
(0.0929805 0 -0.965295)
(0.0703697 0 -1.17792)
(0.120768 0 -0.606738)
(0.0917361 0 -0.800695)
(0.148324 0 -0.300728)
(0.116044 0 -0.460979)
(0.17232 0 -0.0710681)
(0.13982 0 -0.187601)
(0.190827 0 0.0780019)
(0.159628 0 0.0045657)
(0.203593 0 0.157873)
(0.174302 0 0.119739)
(0.211469 0 0.187215)
(0.184093 0 0.173913)
(0.215768 0 0.184925)
(0.189994 0 0.186692)
(0.217759 0 0.166041)
(0.193195 0 0.17551)
(0.218418 0 0.140544)
(0.194724 0 0.153034)
(0.218365 0 0.113999)
(0.195307 0 0.127007)
(0.217941 0 0.0889256)
(0.195377 0 0.101375)
(0.217293 0 0.0661751)
(0.195149 0 0.0777161)
(0.216452 0 0.046119)
(0.194713 0 0.0565095)
(0.215421 0 0.0281042)
(0.19432 0 0.0381433)
(0.19313 0 0.020266)
(-0.14838 0 -0.0125556)
(-0.141114 0 -0.0450506)
(-0.148828 0 0.0574317)
(-0.142088 0 0.0203948)
(-0.145846 0 0.131739)
(-0.140355 0 0.0929977)
(-0.137579 0 0.201419)
(-0.134458 0 0.166118)
(-0.122188 0 0.254843)
(-0.122384 0 0.228368)
(-0.0992879 0 0.286783)
(-0.102959 0 0.268438)
(-0.0704321 0 0.306048)
(-0.0772801 0 0.288341)
(-0.0365184 0 0.314959)
(-0.0468961 0 0.304195)
(0.00528997 0 0.249453)
(-0.015631 0 0.303187)
(0.0542125 0 -0.0429502)
(0.0283757 0 0.169916)
(0.0915089 0 -0.664357)
(0.0677471 0 -0.278858)
(0.108371 0 -1.40546)
(0.108292 0 -1.05994)
(0.0956325 0 -1.77919)
(0.0581627 0 -1.74039)
(0.138535 0 -1.79965)
(0.0871239 0 -1.79789)
(0.151193 0 -1.89659)
(0.121171 0 -1.81396)
(0.119114 0 -2.04147)
(0.124268 0 -2.01507)
(0.121917 0 -2.09396)
(0.136377 0 -2.09325)
(0.0972448 0 -2.12163)
(0.112989 0 -2.10198)
(0.0783776 0 -2.14705)
(0.0950682 0 -2.13539)
(0.0603305 0 -2.15689)
(0.0750054 0 -2.15262)
(0.0432521 0 -2.15587)
(0.0576642 0 -2.15192)
(0.0270804 0 -2.15618)
(0.0447856 0 -2.15028)
(0.0115478 0 -2.16016)
(0.0362943 0 -2.15449)
(-0.0184857 0 -2.14889)
(0.018191 0 -2.14907)
(-0.0604089 0 -2.11655)
(-0.0304979 0 -2.10863)
(-0.111209 0 -2.11685)
(-0.0592022 0 -2.05179)
(-0.0821385 0 -2.14865)
(-0.0694816 0 -2.14736)
(-0.05266 0 -2.15078)
(-0.0620103 0 -2.1714)
(-0.0163723 0 -2.11122)
(-0.0255598 0 -2.16297)
(0.0286841 0 -2.08539)
(0.0155394 0 -2.11863)
(0.032173 0 -2.06025)
(0.0447666 0 -2.09071)
(0.025129 0 -1.96507)
(0.0373809 0 -2.02458)
(0.0324892 0 -1.7364)
(0.0235878 0 -1.89667)
(0.0542879 0 -1.38306)
(0.0306053 0 -1.59701)
(0.0696701 0 -1.00173)
(0.0462125 0 -1.20243)
(0.0875606 0 -0.646008)
(0.060988 0 -0.830594)
(0.107672 0 -0.341083)
(0.0787477 0 -0.496236)
(0.126863 0 -0.107344)
(0.0972301 0 -0.222889)
(0.142754 0 0.049036)
(0.113623 0 -0.0260871)
(0.154525 0 0.137044)
(0.126572 0 0.095921)
(0.16245 0 0.173663)
(0.135876 0 0.157094)
(0.167346 0 0.176975)
(0.142045 0 0.175792)
(0.170141 0 0.161927)
(0.145881 0 0.168983)
(0.171619 0 0.138831)
(0.148155 0 0.149413)
(0.172328 0 0.113723)
(0.149465 0 0.125183)
(0.172598 0 0.0895541)
(0.150202 0 0.100647)
(0.172592 0 0.0675116)
(0.150581 0 0.0777341)
(0.172363 0 0.048104)
(0.150696 0 0.0571879)
(0.171965 0 0.02997)
(0.150797 0 0.0393805)
(0.150394 0 0.0210013)
(-0.134867 0 -0.0120791)
(-0.128517 0 -0.0443056)
(-0.13362 0 0.0559824)
(-0.12791 0 0.019563)
(-0.128892 0 0.127395)
(-0.124495 0 0.0898462)
(-0.119079 0 0.193077)
(-0.116964 0 0.159576)
(-0.102843 0 0.241957)
(-0.103671 0 0.217543)
(-0.0804033 0 0.269958)
(-0.0839581 0 0.253478)
(-0.0538582 0 0.286376)
(-0.0596026 0 0.270645)
(-0.024909 0 0.292183)
(-0.0323015 0 0.284895)
(0.00798875 0 0.22319)
(-0.00661798 0 0.281255)
(0.0438169 0 -0.0673289)
(0.0272579 0 0.146031)
(0.0718174 0 -0.677741)
(0.0536843 0 -0.297525)
(0.0754111 0 -1.39981)
(0.0878908 0 -1.06234)
(0.0388657 0 -1.77246)
(0.0292829 0 -1.71603)
(0.0658991 0 -1.81437)
(0.00759431 0 -1.81591)
(0.106841 0 -1.93714)
(0.0615289 0 -1.84125)
(0.123359 0 -2.07496)
(0.082907 0 -2.02608)
(0.139908 0 -2.09515)
(0.105869 0 -2.10428)
(0.112136 0 -2.11147)
(0.108847 0 -2.08346)
(0.0895805 0 -2.13537)
(0.102446 0 -2.12035)
(0.0697447 0 -2.14483)
(0.0819136 0 -2.13939)
(0.0603911 0 -2.14501)
(0.0655083 0 -2.14429)
(0.052979 0 -2.14622)
(0.0577314 0 -2.14394)
(0.0428012 0 -2.14447)
(0.0523857 0 -2.14535)
(0.00719274 0 -2.12528)
(0.0381891 0 -2.11554)
(-0.0256611 0 -2.08263)
(0.00498858 0 -2.07618)
(-0.0400983 0 -2.10833)
(-0.000614203 0 -2.03683)
(-0.042398 0 -2.17631)
(0.0135895 0 -2.14486)
(-0.0243202 0 -2.19066)
(-0.00230315 0 -2.19201)
(0.00334905 0 -2.16676)
(0.0146879 0 -2.19606)
(0.0365025 0 -2.12236)
(0.0350232 0 -2.16022)
(0.0470773 0 -2.05745)
(0.0534316 0 -2.10463)
(0.0389528 0 -1.95407)
(0.0533549 0 -2.01336)
(0.0235212 0 -1.74604)
(0.0324616 0 -1.87433)
(0.0245194 0 -1.40602)
(0.0153425 0 -1.59853)
(0.0380516 0 -1.02531)
(0.0188054 0 -1.22399)
(0.0526794 0 -0.673876)
(0.0302667 0 -0.85504)
(0.0683579 0 -0.371899)
(0.0437049 0 -0.523721)
(0.0837146 0 -0.137047)
(0.057633 0 -0.251128)
(0.0970988 0 0.0236875)
(0.0706332 0 -0.0519039)
(0.107649 0 0.117436)
(0.0815533 0 0.0745751)
(0.115305 0 0.159682)
(0.0899564 0 0.140844)
(0.120509 0 0.167655)
(0.0960016 0 0.164206)
(0.123884 0 0.156027)
(0.100152 0 0.161101)
(0.126018 0 0.135226)
(0.102934 0 0.144184)
(0.127363 0 0.11158)
(0.104796 0 0.121728)
(0.128212 0 0.088362)
(0.106067 0 0.0983589)
(0.128729 0 0.0670258)
(0.106942 0 0.0762712)
(0.128996 0 0.0481569)
(0.107515 0 0.0563961)
(0.129111 0 0.0300621)
(0.108024 0 0.0390222)
(0.108122 0 0.0205008)
(-0.121603 0 -0.0126478)
(-0.116128 0 -0.0445365)
(-0.118783 0 0.0534416)
(-0.114035 0 0.0176829)
(-0.112488 0 0.122036)
(-0.109068 0 0.08565)
(-0.101369 0 0.184041)
(-0.100085 0 0.152163)
(-0.0845335 0 0.229042)
(-0.0857919 0 0.20632)
(-0.0626722 0 0.254105)
(-0.0659434 0 0.238904)
(-0.0381982 0 0.269037)
(-0.0427717 0 0.254329)
(-0.0131892 0 0.273694)
(-0.0178567 0 0.268222)
(0.0130739 0 0.203588)
(0.00402349 0 0.263746)
(0.0392896 0 -0.085106)
(0.0309558 0 0.128554)
(0.0599474 0 -0.684419)
(0.0490683 0 -0.311297)
(0.0520987 0 -1.38223)
(0.0755311 0 -1.05711)
(-0.00272596 0 -1.75904)
(0.0110781 0 -1.67948)
(-0.00232773 0 -1.84021)
(-0.040189 0 -1.81618)
(0.040494 0 -1.95575)
(-0.0030487 0 -1.8698)
(0.0622701 0 -2.08415)
(0.0237256 0 -2.0406)
(0.0816503 0 -2.10406)
(0.0315154 0 -2.1172)
(0.102452 0 -2.10238)
(0.0620391 0 -2.09733)
(0.0925787 0 -2.12728)
(0.0770685 0 -2.11377)
(0.0751439 0 -2.13947)
(0.0682138 0 -2.12777)
(0.0635724 0 -2.14179)
(0.0571828 0 -2.13485)
(0.0568056 0 -2.14234)
(0.0527322 0 -2.13815)
(0.0460303 0 -2.12517)
(0.0494154 0 -2.13568)
(0.0400211 0 -2.07557)
(0.0455091 0 -2.10988)
(0.035606 0 -2.02093)
(0.0459039 0 -2.07181)
(0.0497528 0 -2.07066)
(0.0653587 0 -2.05149)
(0.0437747 0 -2.16681)
(0.0880149 0 -2.13836)
(0.0422435 0 -2.19868)
(0.0728316 0 -2.19027)
(0.0450208 0 -2.18856)
(0.0658776 0 -2.19938)
(0.0553694 0 -2.14153)
(0.0644789 0 -2.1732)
(0.0591188 0 -2.0578)
(0.0661933 0 -2.10956)
(0.0500729 0 -1.93102)
(0.0625476 0 -2.00087)
(0.023914 0 -1.72229)
(0.0410916 0 -1.83645)
(0.00951164 0 -1.4064)
(0.0140837 0 -1.57665)
(0.0126266 0 -1.04236)
(0.00506968 0 -1.22895)
(0.0220918 0 -0.696004)
(0.00801623 0 -0.870858)
(0.0330388 0 -0.395939)
(0.0146063 0 -0.542911)
(0.044305 0 -0.160932)
(0.0229183 0 -0.271845)
(0.0547606 0 0.00219275)
(0.0317264 0 -0.0720718)
(0.063585 0 0.0996961)
(0.0398929 0 0.0567201)
(0.0704817 0 0.146021)
(0.0467574 0 0.126206)
(0.0755708 0 0.157653)
(0.0521469 0 0.152876)
(0.0791919 0 0.148916)
(0.0561935 0 0.152644)
(0.081734 0 0.130204)
(0.0591659 0 0.137957)
(0.083532 0 0.107995)
(0.061349 0 0.117108)
(0.0848269 0 0.0857772)
(0.0629773 0 0.0948686)
(0.0857659 0 0.06519)
(0.0642085 0 0.0736164)
(0.0864331 0 0.0468506)
(0.0651204 0 0.0544172)
(0.0869077 0 0.029004)
(0.0659384 0 0.0375458)
(0.0663645 0 0.0194257)
(-0.108601 0 -0.0141966)
(-0.10397 0 -0.0456916)
(-0.104314 0 0.0498987)
(-0.100471 0 0.0148247)
(-0.0965891 0 0.115778)
(-0.0940589 0 0.0805002)
(-0.0843238 0 0.174432)
(-0.0837622 0 0.143986)
(-0.0670034 0 0.216149)
(-0.0686 0 0.194773)
(-0.0456233 0 0.239058)
(-0.0486387 0 0.224651)
(-0.022636 0 0.253383)
(-0.0263395 0 0.239004)
(-1.76505e-05 0 0.258062)
(-0.00290853 0 0.253144)
(0.0222338 0 0.188296)
(0.0170549 0 0.248912)
(0.043008 0 -0.0983434)
(0.0404827 0 0.114704)
(0.0578607 0 -0.685351)
(0.0544741 0 -0.321198)
(0.0391201 0 -1.35667)
(0.0722772 0 -1.04461)
(-0.024385 0 -1.73585)
(0.0103067 0 -1.63714)
(-0.0475961 0 -1.84857)
(-0.0547961 0 -1.8007)
(-0.0143959 0 -1.96386)
(-0.0413957 0 -1.89193)
(-0.00551854 0 -2.08517)
(-0.0110558 0 -2.04651)
(0.00912929 0 -2.11377)
(-0.0167361 0 -2.12697)
(0.0394327 0 -2.10588)
(0.00566553 0 -2.11753)
(0.0512174 0 -2.11685)
(0.0329548 0 -2.12163)
(0.0495456 0 -2.12673)
(0.0413726 0 -2.12665)
(0.0455678 0 -2.13379)
(0.0430539 0 -2.13161)
(0.044767 0 -2.13468)
(0.0458485 0 -2.13746)
(0.0466603 0 -2.11713)
(0.0489514 0 -2.13738)
(0.0555201 0 -2.0852)
(0.055059 0 -2.11822)
(0.0760348 0 -2.06619)
(0.0722118 0 -2.09208)
(0.108915 0 -2.10112)
(0.104672 0 -2.08556)
(0.108888 0 -2.15996)
(0.128164 0 -2.13833)
(0.0963973 0 -2.18802)
(0.119849 0 -2.17603)
(0.0847348 0 -2.18261)
(0.103557 0 -2.18543)
(0.0766302 0 -2.13927)
(0.089259 0 -2.16304)
(0.0693951 0 -2.04987)
(0.0775874 0 -2.10004)
(0.0560098 0 -1.90436)
(0.0658287 0 -1.9824)
(0.0302295 0 -1.68801)
(0.0443252 0 -1.79912)
(0.00975276 0 -1.39096)
(0.0169229 0 -1.54555)
(0.00141008 0 -1.04653)
(0.000165186 0 -1.21566)
(0.000970549 0 -0.708154)
(-0.00689284 0 -0.870124)
(0.00448768 0 -0.411254)
(-0.00889252 0 -0.549077)
(0.0100857 0 -0.177555)
(-0.00727443 0 -0.282139)
(0.0165108 0 -0.0140688)
(-0.00346777 0 -0.0844652)
(0.0227632 0 0.0851381)
(0.00126201 0 0.0440693)
(0.0282302 0 0.133857)
(0.00601519 0 0.114603)
(0.0326809 0 0.147967)
(0.0102746 0 0.142968)
(0.0361493 0 0.141404)
(0.0138344 0 0.144544)
(0.0388008 0 0.124408)
(0.0166971 0 0.131462)
(0.0408295 0 0.103478)
(0.0189653 0 0.111895)
(0.0423965 0 0.0822145)
(0.0207616 0 0.0906446)
(0.0436054 0 0.0623918)
(0.0221783 0 0.0701982)
(0.0445192 0 0.0447152)
(0.0232617 0 0.0517066)
(0.0452346 0 0.0275384)
(0.0242789 0 0.0353203)
(0.0250075 0 0.0177111)
(-0.0958777 0 -0.0166678)
(-0.0920644 0 -0.0477244)
(-0.0902138 0 0.045426)
(-0.0872352 0 0.0110487)
(-0.0811649 0 0.108703)
(-0.0794671 0 0.0744676)
(-0.0678599 0 0.164312)
(-0.0679591 0 0.135116)
(-0.0500854 0 0.203241)
(-0.0520085 0 0.182923)
(-0.0289961 0 0.224534)
(-0.0318919 0 0.210591)
(-0.00685097 0 0.238661)
(-0.0101292 0 0.22424)
(0.0147489 0 0.243825)
(0.0126172 0 0.238744)
(0.0355489 0 0.175024)
(0.0321803 0 0.235045)
(0.0541488 0 -0.108617)
(0.0547154 0 0.102304)
(0.0648129 0 -0.681487)
(0.0670602 0 -0.328308)
(0.0422725 0 -1.32692)
(0.0759374 0 -1.02959)
(-0.0170407 0 -1.70278)
(0.0199379 0 -1.5976)
(-0.0585886 0 -1.84514)
(-0.0448563 0 -1.773)
(-0.0321789 0 -1.97522)
(-0.0409181 0 -1.90954)
(-0.0226744 0 -2.08842)
(-0.0167512 0 -2.05285)
(-0.021736 0 -2.12643)
(-0.0264942 0 -2.12759)
(0.000663186 0 -2.12611)
(-0.0158304 0 -2.13246)
(0.0214861 0 -2.12673)
(0.0128417 0 -2.13551)
(0.0347169 0 -2.12949)
(0.0324834 0 -2.13547)
(0.0430398 0 -2.13526)
(0.0460765 0 -2.1384)
(0.050014 0 -2.13874)
(0.0557764 0 -2.14343)
(0.057102 0 -2.13151)
(0.0630273 0 -2.14374)
(0.0720891 0 -2.11709)
(0.0726616 0 -2.13234)
(0.0995728 0 -2.1102)
(0.0918728 0 -2.11923)
(0.131585 0 -2.12642)
(0.120649 0 -2.11873)
(0.135476 0 -2.15555)
(0.139109 0 -2.14256)
(0.123993 0 -2.17213)
(0.13528 0 -2.16294)
(0.107406 0 -2.16422)
(0.120381 0 -2.1656)
(0.0904234 0 -2.12177)
(0.102523 0 -2.14173)
(0.0740994 0 -2.03006)
(0.0835317 0 -2.07856)
(0.0561408 0 -1.87353)
(0.0636597 0 -1.95761)
(0.0294714 0 -1.65191)
(0.0397181 0 -1.76051)
(0.00742685 0 -1.36465)
(0.0134988 0 -1.51207)
(-0.00739112 0 -1.03292)
(-0.0069875 0 -1.19205)
(-0.0165565 0 -0.704149)
(-0.0215688 0 -0.854807)
(-0.0207093 0 -0.413835)
(-0.031192 0 -0.541797)
(-0.0211401 0 -0.184391)
(-0.0360098 0 -0.281347)
(-0.0191211 0 -0.0232552)
(-0.0371712 0 -0.0883598)
(-0.0158251 0 0.0752418)
(-0.0359454 0 0.0374002)