/*--------------------------------*- C++ -*----------------------------------*\
  =========                 |
  \\      /  F ield         | OpenFOAM: The Open Source CFD Toolbox
   \\    /   O peration     | Website:  https://openfoam.org
    \\  /    A nd           | Version:  9
     \\/     M anipulation  |
\*---------------------------------------------------------------------------*/
FoamFile
{
    format      ascii;
    class       surfaceScalarField;
    location    "0.15";
    object      alphaPhi0.water;
}
// * * * * * * * * * * * * * * * * * * * * * * * * * * * * * * * * * * * * * //

dimensions      [0 3 -1 0 0 0 0];

internalField   nonuniform List<scalar> 
9850
(
-1.07432e-24
1.39531e-23
-3.77002e-23
5.58471e-22
-1.15196e-21
1.27332e-20
-1.5658e-20
2.70115e-19
-1.95052e-19
3.65777e-18
0
6.52048e-17
0
1.5856e-15
0
6.13706e-14
0
2.38416e-12
3.8531e-12
5.28912e-11
5.91153e-11
4.92919e-10
8.61377e-10
4.05086e-10
1.66496e-07
7.8167e-08
3.10323e-07
5.76826e-07
2.01196e-07
9.28957e-08
1.28123e-07
1.53642e-07
7.65742e-08
1.86802e-07
5.43909e-08
5.53155e-08
7.04649e-08
-1.53249e-07
1.29279e-07
-3.69531e-07
2.05605e-07
-4.26549e-07
2.91406e-07
-4.42239e-07
3.6997e-07
-3.76426e-07
4.27474e-07
-2.50185e-07
4.57514e-07
-9.97115e-08
4.59566e-07
3.92927e-08
4.35694e-07
1.37751e-07
3.91265e-07
2.02349e-07
3.43014e-07
3.27425e-07
1.09233e-07
4.65453e-07
5.77231e-11
6.05213e-08
0
1.29691e-09
1.40625e-11
7.42373e-10
0
1.93689e-10
0
3.99435e-11
0
8.36004e-12
0
1.85114e-12
0
4.1936e-13
0
1.00442e-13
0
2.45884e-14
2.54946e-16
5.69169e-15
3.84341e-16
1.60879e-15
3.40567e-16
9.39555e-16
2.47898e-16
6.50288e-16
1.60635e-16
4.27844e-16
9.29458e-17
2.54807e-16
4.8947e-17
1.38061e-16
2.37217e-17
6.82113e-17
1.00213e-17
3.20778e-17
9.56082e-18
-4.03919e-25
6.3587e-24
-1.42403e-23
2.82136e-22
-4.32102e-22
7.36617e-21
-6.41171e-21
1.60617e-19
-8.09958e-20
2.33837e-18
0
4.08189e-17
0
1.06014e-15
0
4.79777e-14
1.64084e-13
1.63631e-12
1.04972e-11
4.55899e-11
6.74166e-11
7.42968e-10
2.2253e-10
2.58069e-10
1.52211e-07
1.84314e-08
3.4276e-07
6.13853e-07
1.94137e-07
2.41768e-07
1.33604e-07
2.14176e-07
9.19373e-08
2.28469e-07
6.61062e-08
8.11465e-08
7.17617e-08
-1.58904e-07
1.1799e-07
-4.15759e-07
1.84212e-07
-4.92771e-07
2.625e-07
-5.20526e-07
3.36506e-07
-4.50432e-07
3.92524e-07
-3.06203e-07
4.25027e-07
-1.32214e-07
4.338e-07
3.05193e-08
4.16618e-07
1.54927e-07
3.70687e-07
2.4825e-07
2.98273e-07
3.98189e-07
6.67616e-08
4.43209e-07
0
2.4915e-08
0
5.86204e-10
3.81937e-11
7.36129e-10
0
2.14264e-10
0
4.7573e-11
0
1.04148e-11
0
2.38167e-12
0
5.552e-13
0
1.33806e-13
0
3.35036e-14
1.56323e-16
8.10556e-15
3.43786e-16
1.82666e-15
3.46805e-16
1.02817e-15
2.76455e-16
7.58287e-16
1.90641e-16
5.31019e-16
1.17246e-16
3.34519e-16
6.59739e-17
1.9164e-16
3.42356e-17
1.00326e-16
1.56464e-17
5.01113e-17
1.62855e-17
-1.63243e-25
4.30316e-24
-6.60395e-24
2.07587e-22
-1.92415e-22
5.71339e-21
-3.00296e-21
1.25017e-19
-3.2346e-20
2.06028e-18
0
3.37734e-17
0
9.56712e-16
4.44726e-15
3.82577e-14
4.89472e-13
8.48557e-13
1.04686e-11
4.88381e-11
9.44011e-11
7.11913e-10
1.30886e-10
2.02064e-10
1.65498e-08
2.06638e-09
3.78743e-07
5.00622e-07
2.0493e-07
4.51578e-07
1.53493e-07
2.65614e-07
1.27054e-07
2.54908e-07
1.00986e-07
1.07214e-07
9.58769e-08
-1.53795e-07
1.249e-07
-4.44782e-07
1.73534e-07
-5.41405e-07
2.3496e-07
-5.81952e-07
2.95311e-07
-5.10784e-07
3.40726e-07
-3.51618e-07
3.66896e-07
-1.58384e-07
3.74473e-07
2.29414e-08
3.55693e-07
1.73699e-07
2.98566e-07
3.05237e-07
1.81264e-07
4.96381e-07
8.49096e-09
3.18327e-07
0
2.65128e-09
0
3.13652e-10
1.51924e-10
6.5453e-10
0
2.62657e-10
0
4.94506e-11
0
1.21497e-11
0
2.80469e-12
0
6.82768e-13
0
1.65425e-13
0
4.18556e-14
3.44207e-17
1.06769e-14
2.92988e-16
2.08929e-15
3.41152e-16
1.07345e-15
2.92671e-16
8.47272e-16
2.12363e-16
6.28927e-16
1.36232e-16
4.1423e-16
7.99479e-17
2.46307e-16
4.34525e-17
1.33941e-16
2.10622e-17
6.99067e-17
2.42744e-17
-8.65794e-26
4.08183e-24
-3.27396e-24
1.77939e-22
-8.16253e-23
4.85945e-21
-1.34245e-21
1.09171e-19
-9.6652e-21
2.12258e-18
1.14045e-19
3.37081e-17
7.31649e-17
9.76349e-16
4.76309e-15
3.0898e-14
8.03709e-13
4.85243e-13
5.88174e-12
6.24743e-11
1.04993e-10
6.6733e-10
1.01246e-10
1.81391e-10
1.96056e-09
2.58774e-10
4.39714e-07
2.57779e-07
3.05968e-07
7.36651e-07
2.24627e-07
3.46983e-07
1.98585e-07
2.80948e-07
1.6942e-07
1.36379e-07
1.51121e-07
-1.35495e-07
1.57072e-07
-4.50733e-07
1.79521e-07
-5.63855e-07
2.12479e-07
-6.1491e-07
2.4774e-07
-5.46044e-07
2.70956e-07
-3.74834e-07
2.74833e-07
-1.62261e-07
2.6062e-07
3.71521e-08
2.21841e-07
2.1245e-07
1.49732e-07
3.76767e-07
4.60147e-08
5.13248e-07
-2.58468e-09
1.1507e-07
3.08161e-11
1.8909e-10
3.95028e-12
2.2457e-10
2.7632e-11
1.35822e-10
0
2.12185e-10
0
5.07199e-11
0
1.34359e-11
0
3.09956e-12
0
7.71324e-13
0
1.92729e-13
0
4.87658e-14
0
1.26356e-14
2.3714e-16
2.44694e-15
3.15372e-16
1.10589e-15
3.01944e-16
9.04518e-16
2.26964e-16
7.13209e-16
1.49191e-16
4.8839e-16
8.98494e-17
2.98272e-16
5.05082e-17
1.66551e-16
2.57216e-17
8.9879e-17
3.28237e-17
-3.67994e-26
3.92466e-24
-1.06716e-24
1.50171e-22
-1.76611e-23
3.93936e-21
-1.09925e-23
9.57111e-20
1.2474e-20
2.16082e-18
9.42214e-19
3.50144e-17
1.03972e-16
9.65893e-16
4.17607e-15
2.57724e-14
3.99367e-13
2.22227e-13
3.50378e-12
6.35856e-11
5.91327e-11
6.63731e-10
5.22846e-11
1.89691e-10
2.74455e-10
5.30411e-11
2.99263e-07
1.16113e-07
6.11003e-07
6.72062e-07
4.22546e-07
5.35888e-07
3.36196e-07
3.67263e-07
2.83577e-07
1.88998e-07
2.44295e-07
-9.62132e-08
2.19763e-07
-4.262e-07
2.08846e-07
-5.52938e-07
2.02614e-07
-6.08678e-07
2.01186e-07
-5.44617e-07
1.933e-07
-3.66949e-07
1.61606e-07
-1.30569e-07
1.07065e-07
9.16773e-08
3.73591e-08
2.82043e-07
-3.66243e-08
4.4376e-07
-1.64888e-08
2.66733e-07
1.25158e-10
9.68122e-09
0
1.8344e-10
1.92084e-11
5.13218e-10
0
2.77175e-10
9.31549e-12
1.21896e-10
0
4.82095e-11
0
1.30331e-11
0
3.34517e-12
0
8.17719e-13
0
2.09811e-13
0
5.36953e-14
0
1.38116e-14
2.70956e-16
2.65556e-15
2.906e-16
1.15659e-15
2.88813e-16
9.46722e-16
2.2991e-16
7.74975e-16
1.5495e-16
5.49219e-16
9.50936e-17
3.43394e-16
5.48518e-17
1.96027e-16
2.89953e-17
1.08567e-16
4.08475e-17
1.77627e-27
3.33702e-24
3.0545e-25
1.11737e-22
1.81992e-23
2.94749e-21
8.66438e-22
8.09926e-20
3.47864e-20
2.085e-18
1.4937e-18
3.46645e-17
1.01195e-16
8.62214e-16
3.09279e-15
2.03869e-14
1.91571e-13
1.07661e-13
1.66029e-11
5.55305e-11
4.2054e-11
2.81816e-10
3.3026e-11
1.95411e-10
5.53837e-11
3.03016e-11
1.11827e-07
4.36556e-09
8.62873e-07
1.42318e-07
7.80932e-07
7.16922e-07
5.83312e-07
5.64285e-07
4.67738e-07
3.0453e-07
3.85806e-07
-1.42828e-08
3.20086e-07
-3.60479e-07
2.68533e-07
-5.01385e-07
2.15827e-07
-5.55972e-07
1.69621e-07
-4.98411e-07
1.29012e-07
-3.26341e-07
7.05486e-08
-7.21068e-08
-4.60698e-09
1.6678e-07
-6.73429e-08
3.41093e-07
-6.28568e-08
3.1551e-07
-9.73811e-09
1.17111e-08
0
1.67655e-10
3.77216e-11
3.95632e-10
3.30362e-11
6.22235e-10
5.56595e-12
7.09882e-10
0
8.31753e-11
0
3.93347e-11
0
1.23554e-11
0
3.33082e-12
0
8.24885e-13
0
2.11148e-13
0
5.49805e-14
0
1.40272e-14
2.45804e-16
2.71524e-15
2.65268e-16
1.17664e-15
2.68704e-16
9.71076e-16
2.21189e-16
8.1562e-16
1.53035e-16
5.94482e-16
9.55062e-17
3.79613e-16
5.62118e-17
2.21076e-16
3.04556e-17
1.24663e-16
4.74935e-17
2.16787e-26
2.36281e-24
9.30612e-25
7.50194e-23
3.4842e-23
2.15592e-21
1.39203e-21
6.69133e-20
5.0219e-20
1.83669e-18
1.6687e-18
3.08178e-17
8.73063e-17
6.94792e-16
2.66915e-15
1.6331e-14
1.43538e-13
7.71171e-14
8.18672e-12
3.26765e-11
1.68916e-11
7.71357e-11
4.92091e-11
1.58456e-10
4.35474e-11
2.60616e-11
4.17279e-09
2.32903e-10
1.87155e-07
3.14461e-09
1.02189e-06
1.16374e-07
9.23077e-07
6.8233e-07
7.45611e-07
4.8123e-07
5.94528e-07
1.36706e-07
4.65264e-07
-2.3122e-07
3.67107e-07
-4.03227e-07
2.66006e-07
-4.54869e-07
1.72038e-07
-4.04444e-07
9.94044e-08
-2.53711e-07
3.25282e-08
-5.23255e-09
-3.49881e-08
2.30423e-07
-5.37881e-08
2.71803e-07
-2.60149e-09
2.02928e-08
2.90526e-13
2.6553e-12
4.57557e-11
1.6156e-10
7.9706e-11
3.42252e-10
2.5745e-13
5.92438e-10
5.26935e-11
6.32166e-10
0
8.8625e-11
0
2.33595e-11
0
1.25376e-11
0
3.21068e-12
0
8.14181e-13
0
2.0866e-13
0
5.46731e-14
0
1.39503e-14
2.07518e-16
2.6699e-15
2.36529e-16
1.15804e-15
2.41997e-16
9.76725e-16
2.05688e-16
8.40222e-16
1.45015e-16
6.2619e-16
9.16815e-17
4.0685e-16
5.48348e-17
2.41049e-16
3.00782e-17
1.36784e-16
5.26667e-17
2.74842e-26
1.49698e-24
1.08816e-24
5.11583e-23
4.05851e-23
1.61461e-21
1.64179e-21
5.44827e-20
5.7029e-20
1.52689e-18
1.70264e-18
2.54516e-17
7.58367e-17
6.45503e-16
2.0886e-15
1.55935e-14
7.14747e-14
4.48688e-14
5.13652e-12
8.70476e-12
1.16414e-11
1.36591e-10
3.59272e-11
1.35775e-10
2.38971e-11
2.31833e-11
2.19703e-10
2.70679e-11
4.78993e-09
7.44548e-12
1.59433e-07
0
1.00491e-06
5.15352e-08
1.04627e-06
4.80906e-07
8.67035e-07
3.12597e-07
6.7342e-07
-3.76172e-08
5.19576e-07
-2.49375e-07
3.709e-07
-3.06185e-07
2.36035e-07
-2.69622e-07
1.30027e-07
-1.47716e-07
4.96928e-08
6.85545e-08
-4.2183e-09
1.7322e-07
2.16324e-09
1.00891e-08
-2.38619e-10
0
-3.35295e-10
2.11188e-11
-2.18868e-10
1.26583e-10
5.83146e-11
1.97249e-10
0
5.19458e-10
0
4.37511e-10
0
1.30141e-10
0
1.34992e-11
2.97259e-13
1.10534e-11
0
3.15894e-12
0
7.84148e-13
0
2.01472e-13
0
5.27652e-14
0
1.3456e-14
1.562e-16
2.54929e-15
2.0769e-16
1.1271e-15
2.12179e-16
9.77951e-16
1.84542e-16
8.4747e-16
1.31935e-16
6.43926e-16
8.45221e-17
4.25186e-16
5.10809e-17
2.55443e-16
2.89927e-17
1.44263e-16
5.65257e-17
2.53492e-26
9.54452e-25
1.06905e-24
3.69697e-23
4.10185e-23
1.23554e-21
1.69092e-21
4.36397e-20
5.78001e-20
1.25848e-18
1.77719e-18
2.17469e-17
7.73141e-17
7.0402e-16
1.68098e-15
1.49361e-14
3.0863e-14
2.78042e-14
6.65426e-12
7.85471e-12
1.79505e-11
4.15188e-10
6.75543e-12
4.31325e-11
4.57713e-12
2.2569e-11
2.15034e-11
5.35987e-12
2.14227e-10
2.80893e-12
3.36019e-09
0
9.06649e-08
0
7.33744e-07
1.07724e-08
1.04317e-06
1.53553e-07
9.24341e-07
1.11808e-07
7.29612e-07
-4.64196e-08
5.35445e-07
-1.03501e-07
3.73766e-07
-9.86407e-08
1.93714e-07
-1.09948e-08
5.10866e-08
4.84767e-08
4.95008e-09
0
0
0
0
0
1.35957e-11
0
3.54058e-11
3.41328e-12
-1.10636e-11
3.20732e-11
7.84459e-11
4.51044e-10
0
5.84082e-10
8.0641e-12
3.65601e-10
0
1.11627e-11
3.69268e-13
5.74312e-12
0
2.72163e-12
0
7.19018e-13
0
1.88911e-13
0
4.90415e-14
0
1.2383e-14
1.1996e-16
2.30667e-15
1.78978e-16
1.08933e-15
1.81504e-16
9.75689e-16
1.57291e-16
8.47918e-16
1.14921e-16
6.48284e-16
7.42568e-17
4.34986e-16
4.50556e-17
2.64097e-16
2.57638e-17
1.48105e-16
5.78075e-17
2.16929e-26
6.5327e-25
9.8838e-25
2.74905e-23
3.86558e-23
9.52732e-22
1.60758e-21
3.46699e-20
5.63647e-20
1.06503e-18
1.9101e-18
1.99472e-17
8.16477e-17
8.08038e-16
1.32048e-15
1.3221e-14
1.17431e-14
1.74049e-14
5.9663e-12
1.21329e-11
1.65411e-11
3.91107e-10
4.12421e-12
5.17212e-11
3.90964e-12
3.04893e-11
9.37016e-12
1.11831e-12
2.19579e-11
2.10693e-12
1.2863e-10
0
1.20181e-09
0
1.66207e-08
0
2.05614e-07
1.01326e-09
4.59946e-07
9.72896e-10
4.70781e-07
2.23278e-09
3.48004e-07
4.78895e-09
1.71256e-07
7.9554e-10
4.45637e-08
2.5566e-10
1.98207e-09
0
1.3735e-11
0
1.58328e-11
0
0
0
1.80603e-12
0
1.36937e-11
0
7.13378e-11
9.55691e-12
1.4165e-10
4.01971e-10
4.12156e-11
8.46866e-10
3.77574e-12
4.01115e-10
0
1.08273e-11
5.58484e-14
3.09447e-12
1.9588e-15
2.44198e-12
0
6.16806e-13
0
1.67778e-13
0
4.3238e-14
0
1.07091e-14
9.90941e-17
1.89636e-15
1.50042e-16
1.05356e-15
1.49887e-16
9.66412e-16
1.28901e-16
8.416e-16
9.44635e-17
6.46693e-16
6.21124e-17
4.37094e-16
3.78244e-17
2.67493e-16
2.16961e-17
1.49485e-16
5.65479e-17
1.84245e-26
4.69699e-25
8.7277e-25
2.05055e-23
3.49763e-23
7.4251e-22
1.49105e-21
2.85902e-20
5.52174e-20
9.41069e-19
1.95385e-18
1.88254e-17
8.19521e-17
8.17424e-16
1.11815e-15
1.12201e-14
5.13632e-15
1.35535e-14
2.60866e-12
1.95723e-11
2.19227e-11
3.90603e-10
1.87603e-12
7.89397e-11
2.22377e-12
7.40424e-11
3.50192e-12
1.23692e-11
5.69691e-12
5.61937e-12
1.41106e-11
0
6.94613e-11
0
2.73014e-10
0
1.0411e-09
0
1.38293e-09
0
1.19674e-09
0
1.25808e-09
0
5.31318e-10
0
4.91459e-10
0
2.37666e-10
0
5.7963e-11
1.06343e-11
0
0
0
0
6.72326e-14
0
2.01699e-12
1.09651e-14
8.76047e-11
2.94737e-12
1.89737e-10
2.56178e-10
1.74803e-10
8.08359e-10
0
4.30306e-10
3.27853e-13
2.41409e-11
0
3.06822e-12
6.58522e-14
2.48471e-12
0
5.13385e-13
0
1.36764e-13
0
3.58776e-14
0
8.51927e-15
8.30404e-17
1.38453e-15
1.1963e-16
1.01056e-15
1.17642e-16
9.52814e-16
9.9895e-17
8.30662e-16
7.34346e-17
6.41017e-16
4.84835e-17
4.35408e-16
2.9939e-17
2.68568e-16
1.6344e-17
1.5054e-16
5.19248e-17
1.53661e-26
3.39819e-25
7.49655e-25
1.5547e-23
3.1349e-23
5.99218e-22
1.42488e-21
2.52171e-20
5.47095e-20
8.58772e-19
1.94873e-18
1.73342e-17
8.2321e-17
7.99394e-16
1.05548e-15
1.10908e-14
3.07434e-15
1.2064e-14
2.8356e-12
4.00412e-11
2.43971e-11
4.0398e-10
3.01973e-12
9.75475e-11
5.56841e-12
1.05157e-10
2.01676e-12
1.29445e-11
2.95497e-12
5.12009e-12
5.16063e-12
2.81852e-12
9.01072e-12
0
2.88563e-11
0
9.1992e-11
1.73009e-12
1.41543e-10
4.46372e-12
1.3669e-10
4.27574e-14
1.33657e-10
0
1.01786e-10
1.36191e-12
8.44386e-11
6.08926e-12
5.8505e-11
4.68958e-12
1.35033e-11
0
0
0
0
0
2.11896e-15
0
1.79797e-13
6.72467e-15
4.62027e-12
1.98067e-13
1.50551e-10
2.80415e-11
1.62536e-10
6.47296e-10
0
4.7075e-10
1.37306e-12
4.6137e-11
0
2.88333e-12
6.41329e-14
2.13851e-12
0
4.21152e-13
0
9.96916e-14
0
2.76032e-14
0
6.18919e-15
6.68318e-17
1.17317e-15
8.59126e-17
9.79871e-16
8.36541e-17
9.37781e-16
6.98953e-17
8.16983e-16
5.14108e-17
6.31826e-16
3.42618e-17
4.33808e-16
2.15763e-17
2.70228e-16
1.19066e-17
1.5231e-16
4.50143e-17
1.24488e-26
2.4569e-25
6.50792e-25
1.24049e-23
2.88921e-23
5.14174e-22
1.41628e-21
2.33737e-20
5.45436e-20
8.0105e-19
1.93602e-18
1.54829e-17
8.52855e-17
7.5121e-16
1.09445e-15
1.16603e-14
2.47257e-15
1.18604e-14
5.0248e-12
4.34807e-11
3.39826e-11
3.67399e-10
5.33922e-12
2.75325e-10
9.26637e-12
1.34667e-10
7.30631e-13
1.10484e-11
1.78187e-12
5.03275e-12
3.08009e-12
4.77048e-12
2.2764e-12
4.19252e-12
3.65294e-12
1.92617e-14
5.01124e-12
0
1.26999e-11
0
1.85597e-11
0
1.91893e-11
0
1.49462e-11
0
7.48129e-12
0
2.91589e-12
0
9.52231e-13
0
2.84821e-13
0
1.8442e-15
0
1.0479e-14
0
7.88288e-14
7.71102e-15
2.97114e-13
3.82195e-14
1.93674e-10
2.8158e-11
1.12066e-10
5.5913e-10
0
5.74233e-10
1.32186e-12
4.73063e-11
0
2.2289e-12
4.42184e-14
1.17669e-12
0
3.71819e-13
0
6.58465e-14
0
1.92536e-14
6.23454e-18
4.12664e-15
4.31363e-17
1.07933e-15
4.92904e-17
9.63513e-16
4.72531e-17
9.26528e-16
3.86438e-17
8.05663e-16
2.83921e-17
6.28062e-16
1.92439e-17
4.34422e-16
1.2435e-17
2.74799e-16
6.53698e-18
1.49316e-16
3.62149e-17
1.01174e-26
1.85824e-25
5.89039e-25
1.05268e-23
2.78554e-23
4.664e-22
1.43583e-21
2.21491e-20
5.48611e-20
7.61918e-19
1.8983e-18
1.43909e-17
8.46539e-17
6.28263e-16
1.18971e-15
1.27036e-14
2.92608e-15
1.15838e-14
1.69661e-11
3.15321e-11
3.04066e-11
1.89306e-10
1.66552e-11
3.27942e-10
2.23769e-12
2.3599e-11
1.58025e-12
1.20877e-11
2.56663e-12
4.44348e-12
6.31886e-12
9.97477e-12
7.70855e-12
5.99564e-12
0
2.81539e-13
2.69646e-13
0
8.90354e-13
0
1.23436e-12
0
1.37859e-12
0
1.38183e-12
0
9.62391e-13
0
6.66611e-13
0
2.28816e-13
0
3.88182e-15
0
8.25187e-15
0
2.93772e-14
5.58833e-15
6.31178e-14
2.43837e-14
6.49276e-14
7.38983e-14
1.80155e-10
3.61212e-11
1.13234e-10
5.2655e-10
1.14272e-11
8.92589e-10
2.87545e-13
3.53524e-11
0
1.31411e-12
5.29631e-15
4.74211e-13
0
3.21787e-13
0
4.21214e-14
0
1.2432e-14
6.85729e-18
2.65904e-15
1.20408e-17
1.03498e-15
1.0784e-17
9.58426e-16
8.72136e-18
9.20574e-16
6.03537e-18
8.02789e-16
3.95965e-18
6.27975e-16
2.72296e-18
4.36818e-16
2.14635e-18
2.72962e-16
1.37548e-18
1.38196e-16
2.63295e-17
8.64816e-27
1.51648e-25
5.51757e-25
9.23827e-24
2.75546e-23
4.34402e-22
1.45508e-21
2.10753e-20
5.5521e-20
7.32667e-19
1.79696e-18
1.38318e-17
7.70186e-17
4.73455e-16
1.26809e-15
1.28894e-14
1.65135e-15
1.08875e-14
6.00605e-12
9.8052e-12
9.45773e-12
4.35111e-11
2.37414e-11
3.47058e-10
2.54616e-12
3.22693e-11
1.96628e-12
1.17595e-11
5.44196e-12
1.11572e-11
1.87478e-11
1.52172e-11
1.64797e-12
1.99144e-12
0
1.85115e-14
2.54221e-14
1.44188e-16
6.37143e-14
0
1.02245e-13
0
1.18788e-13
0
1.12334e-13
0
7.23603e-14
0
3.55014e-14
0
2.00801e-14
0
1.38397e-14
0
1.46467e-14
2.81412e-15
1.7379e-14
5.90174e-15
3.62949e-14
9.33268e-15
6.90247e-11
1.0642e-10
1.22592e-10
1.08299e-10
1.24422e-10
1.93988e-10
6.39494e-11
7.71468e-10
3.83315e-16
7.39483e-11
9.47956e-15
1.11614e-12
3.22233e-17
3.96063e-13
-1.26542e-15
1.96052e-13
-5.52727e-16
2.64091e-14
-1.52487e-16
8.06265e-15
-3.9147e-17
1.80248e-15
-2.98061e-17
1.02303e-15
-3.1061e-17
9.57229e-16
-3.25163e-17
9.16851e-16
-3.01004e-17
8.04057e-16
-2.38774e-17
6.2322e-16
-1.622e-17
4.29176e-16
-8.79257e-18
2.59067e-16
-2.30223e-18
1.17701e-16
1.65779e-17
7.78585e-27
1.299e-25
5.15441e-25
8.07168e-24
2.73749e-23
4.07327e-22
1.46252e-21
2.01333e-20
5.60774e-20
7.05207e-19
1.70229e-18
1.31591e-17
7.09234e-17
4.3485e-16
1.30167e-15
1.26844e-14
1.02452e-15
1.06469e-14
1.78552e-12
2.85767e-12
3.11517e-12
2.87358e-11
2.68895e-11
3.58867e-10
3.13682e-12
4.64527e-11
9.23053e-12
3.27771e-11
2.24835e-11
3.27761e-11
1.48308e-11
6.7621e-12
4.63935e-14
1.11496e-13
0
1.06665e-15
5.05424e-15
2.52306e-16
1.11634e-14
5.08882e-16
1.47017e-14
0
1.66969e-14
0
1.75211e-14
0
1.56572e-14
3.00698e-18
1.39046e-14
1.20083e-15
1.31869e-14
1.59988e-15
1.42216e-14
2.08607e-15
1.45879e-14
3.6328e-15
1.58119e-14
6.35333e-15
1.85531e-14
9.52152e-15
1.7321e-10
1.75391e-10
2.18443e-10
7.06477e-10
8.55981e-11
3.8827e-10
5.22848e-11
6.46853e-10
0
6.18414e-11
-2.30832e-14
8.43124e-13
-2.11735e-14
5.98894e-13
-5.76606e-15
7.90809e-14
-1.41843e-15
2.00249e-14
-2.85525e-16
5.18865e-15
-8.37532e-17
1.33963e-15
-7.49399e-17
1.01432e-15
-7.56676e-17
9.57133e-16
-7.67619e-17
9.13905e-16
-6.86477e-17
8.10473e-16
-5.25337e-17
6.07246e-16
-3.4602e-17
4.04523e-16
-1.73319e-17
2.28924e-16
-3.58922e-18
8.81919e-17
8.67635e-18
7.07648e-27
1.10219e-25
4.72049e-25
6.98043e-24
2.70141e-23
3.89217e-22
1.48246e-21
1.98227e-20
5.62091e-20
6.81248e-19
1.67614e-18
1.18295e-17
7.32961e-17
4.46986e-16
1.24833e-15
1.28674e-14
1.93193e-15
1.08597e-14
9.13185e-13
1.94791e-12
1.58833e-11
1.96077e-10
2.79807e-11
3.63883e-10
1.09144e-11
1.605e-10
1.03841e-11
6.25021e-11
2.18917e-11
3.80936e-11
1.10589e-11
4.79395e-12
0
-2.70561e-15
0
-8.93587e-16
6.05685e-15
-8.28813e-16
8.35555e-15
-6.70852e-16
9.74475e-15
-4.53533e-16
1.08672e-14
-2.75662e-16
1.18703e-14
-6.21896e-17
1.2933e-14
1.50988e-16
1.37771e-14
4.9326e-16
1.44858e-14
1.09375e-15
1.49619e-14
2.24054e-15
1.4948e-14
4.16425e-15
1.51435e-14
7.0969e-15
1.55028e-14
1.07596e-14
3.63392e-10
3.35931e-10
2.79287e-10
9.52117e-10
2.57382e-12
3.50269e-10
8.3509e-12
7.41805e-11
-5.69431e-13
3.14626e-11
-7.90528e-14
5.12798e-13
-4.66265e-15
7.45956e-13
-5.75568e-15
3.43819e-14
-1.47206e-15
1.55983e-14
-2.75338e-16
2.40905e-15
-1.23419e-16
1.14787e-15
-1.20554e-16
1.00979e-15
-1.22117e-16
9.57529e-16
-1.23031e-16
9.10776e-16
-1.06705e-16
8.0789e-16
-7.76933e-17
5.68625e-16
-4.74397e-17
3.55709e-16
-2.01247e-17
1.79288e-16
-2.88404e-18
5.54026e-17
3.47118e-18
5.99361e-27
8.60989e-26
4.32601e-25
6.42052e-24
2.77793e-23
3.86985e-22
1.55381e-21
2.01272e-20
5.67515e-20
6.74453e-19
1.65284e-18
9.32941e-18
8.50179e-17
4.96812e-16
1.0828e-15
1.59429e-14
5.33428e-15
1.245e-14
1.36577e-12
5.92657e-13
3.72511e-11
5.55754e-10
2.65174e-11
3.72527e-10
3.78982e-11
1.5916e-10
1.13675e-11
3.7212e-11
2.51353e-11
4.18469e-11
1.27131e-13
2.20798e-12
0
-6.15029e-15
2.35607e-15
-1.30825e-15
6.47614e-15
-1.84183e-15
8.19435e-15
-1.90788e-15
9.42605e-15
-1.54821e-15
1.06283e-14
-1.41358e-15
1.18149e-14
-1.22365e-15
1.29284e-14
-9.59873e-16
1.39265e-14
-4.97691e-16
1.47356e-14
3.7171e-16
1.5156e-14
1.95289e-15
1.49403e-14
4.55031e-15
1.44551e-14
8.20728e-15
1.39737e-14
1.273e-14
2.81719e-10
7.59834e-10
1.97511e-10
1.03533e-09
0
4.27716e-10
-1.83438e-12
1.17904e-11
-5.99548e-13
1.58245e-11
-9.53437e-14
3.26498e-13
-2.85207e-14
1.84706e-13
-5.23393e-15
2.24735e-14
-9.14992e-16
9.27432e-15
-2.32722e-16
1.62545e-15
-1.67879e-16
1.08219e-15
-1.68158e-16
1.00771e-15
-1.6942e-16
9.58322e-16
-1.69706e-16
9.04607e-16
-1.38402e-16
7.80374e-16
-9.26134e-17
4.93092e-16
-4.98093e-17
2.79444e-16
-1.67583e-17
1.1903e-16
-1.49821e-18
2.80258e-17
1.00622e-18
4.86658e-27
6.46356e-26
4.40637e-25
6.38388e-24
2.96421e-23
4.069e-22
1.69731e-21
2.19545e-20
5.78774e-20
6.82409e-19
1.75854e-18
5.68488e-18
1.21807e-16
5.97684e-16
1.34015e-15
2.23648e-14
7.7015e-15
1.73757e-14
4.25494e-13
1.80574e-13
3.89457e-11
5.23644e-10
3.48174e-11
3.79166e-10
1.34263e-11
6.43315e-11
1.24067e-11
3.44063e-11
2.35339e-11
4.5224e-11
1.41421e-13
3.54243e-12
0
-1.14107e-14
5.74844e-15
-6.35322e-15
5.80652e-15
-2.86599e-15
8.09883e-15
-3.12063e-15
9.32542e-15
-2.64745e-15
1.05204e-14
-2.56604e-15
1.17236e-14
-2.42411e-15
1.2918e-14
-2.15437e-15
1.40233e-14
-1.60061e-15
1.48634e-14
-4.61356e-16
1.52384e-14
1.65799e-15
1.49678e-14
5.03857e-15
1.55232e-14
9.4773e-15
1.82793e-10
8.3727e-11
3.87397e-10
8.7461e-10
1.38682e-10
1.2165e-09
1.7523e-13
4.46408e-10
-2.69366e-12
1.27133e-11
-1.86224e-13
2.91417e-12
-3.98203e-14
1.60125e-13
-1.24752e-14
7.99682e-14
-4.35855e-15
2.66023e-14
-5.68591e-16
4.67212e-15
-2.45577e-16
1.30824e-15
-2.15937e-16
1.05562e-15
-2.1666e-16
1.0062e-15
-2.16478e-16
9.56173e-16
-2.08847e-16
8.91059e-16
-1.53303e-16
6.90415e-16
-9.0765e-17
3.80075e-16
-4.09014e-17
1.88297e-16
-1.03921e-17
6.47728e-17
-5.33495e-19
1.12895e-17
2.23046e-19
3.56982e-27
5.1557e-26
4.88577e-25
7.18974e-24
3.38942e-23
4.70914e-22
2.00006e-21
2.61041e-20
5.79324e-20
7.16007e-19
2.02038e-18
2.5283e-18
1.75634e-16
7.60286e-16
1.56692e-15
2.42586e-14
4.11156e-15
1.95427e-14
1.24473e-13
6.45132e-14
4.15244e-11
4.89556e-10
3.7578e-11
3.84973e-10
1.53241e-11
7.73534e-11
1.13616e-11
3.58628e-11
2.52041e-11
4.91541e-11
3.55885e-13
3.44845e-12
0
-1.11815e-14
7.16731e-15
-8.81075e-15
6.31111e-15
-3.68795e-15
8.10517e-15
-4.18971e-15
9.16839e-15
-3.58079e-15
1.03006e-14
-3.6892e-15
1.15125e-14
-3.6362e-15
1.27672e-14
-3.40913e-15
1.39544e-14
-2.78792e-15
1.4862e-14
-1.36882e-15
1.53586e-14
1.46082e-15
1.7659e-14
6.22871e-15
1.90074e-14
1.26542e-14
3.41176e-10
7.26555e-10
2.10095e-10
1.01802e-09
4.52373e-11
1.35008e-09
-8.14739e-12
3.42336e-10
-1.31228e-12
5.77241e-12
-3.68942e-13
4.07022e-13
-4.49329e-14
9.30157e-13
-1.32699e-14
4.35553e-14
-3.54711e-15
1.4143e-14
-4.31299e-16
4.10569e-15
-2.82945e-16
1.16309e-15
-2.65343e-16
1.04259e-15
-2.65422e-16
1.00436e-15
-2.59525e-16
9.49593e-16
-2.32004e-16
8.35941e-16
-1.41676e-16
5.16402e-16
-7.21727e-17
2.52616e-16
-2.61877e-17
1.05842e-16
-4.91671e-18
2.85289e-17
-1.43713e-19
3.69767e-18
4.48204e-20
3.54351e-27
5.12295e-26
6.29847e-25
9.76029e-24
4.23301e-23
5.96921e-22
2.42971e-21
3.11025e-20
5.52259e-20
7.79399e-19
2.36123e-18
1.97557e-18
2.01485e-16
8.90194e-16
2.50557e-15
2.35479e-14
5.32026e-15
1.93048e-14
2.09166e-12
8.25888e-13
4.2105e-11
4.506e-10
3.96169e-11
3.8938e-10
1.29164e-11
9.32974e-11
9.52843e-12
3.70966e-11
2.00907e-11
5.43534e-11
6.49979e-14
1.22362e-12
0
-3.92832e-15
6.36507e-15
-4.39829e-15
6.66089e-15
-4.29932e-15
7.92228e-15
-5.00961e-15
8.89924e-15
-4.10587e-15
9.93869e-15
-4.61091e-15
1.11117e-14
-4.80518e-15
1.23897e-14
-4.68721e-15
1.36046e-14
-4.0074e-15
1.50378e-14
-1.74616e-15
1.76226e-14
1.4648e-15
2.15107e-14
7.4187e-15
4.05412e-10
4.24808e-10
3.52902e-10
8.07989e-10
1.67588e-10
1.21284e-09
-2.65904e-12
1.46655e-09
-5.10658e-12
1.22723e-10
-5.31901e-13
1.44267e-12
-4.90893e-13
1.51572e-13
-3.19483e-14
8.62363e-13
-6.19499e-15
1.6397e-14
-2.00044e-15
3.50835e-15
-3.87196e-16
3.70905e-15
-3.28126e-16
1.10903e-15
-3.14212e-16
1.03106e-15
-3.1207e-16
9.97687e-16
-2.96727e-16
9.19976e-16
-2.07093e-16
6.57317e-16
-1.07651e-16
3.26558e-16
-4.62018e-17
1.4291e-16
-1.31659e-17
4.90945e-17
-1.8483e-18
1.0268e-17
-3.58112e-20
1.02548e-18
1.05792e-20
5.2695e-27
9.24249e-26
9.42077e-25
1.49299e-23
5.55977e-23
7.78919e-22
2.83576e-21
3.4997e-20
6.36486e-20
8.58705e-19
2.60164e-18
2.67546e-18
7.23144e-17
9.05309e-16
2.10126e-15
2.35135e-14
4.35667e-15
1.92235e-14
5.93181e-13
2.39088e-13
4.31384e-11
4.05131e-10
3.84446e-11
3.56224e-10
2.45117e-11
8.57958e-11
3.37122e-11
2.55945e-10
3.46114e-11
6.67214e-11
0
2.96814e-13
6.24288e-15
-1.20809e-15
5.9978e-15
-3.77263e-15
7.00199e-15
-4.77408e-15
7.73581e-15
-4.80247e-15
1.037e-14
0
9.86903e-15
-1.65673e-15
1.0489e-14
-5.37648e-15
1.16723e-14
-5.86896e-15
1.28406e-14
-5.15876e-15
1.50316e-14
-3.47487e-15
2.6079e-14
1.9565e-15
3.29495e-10
8.719e-11
3.73692e-10
6.15021e-10
2.33447e-10
9.47029e-10
1.74036e-11
1.35076e-09
-8.63637e-11
1.10715e-09
-1.22856e-12
3.74086e-11
-1.76593e-13
4.12747e-13
-1.72472e-13
7.4326e-14
-1.41145e-14
6.28649e-14
-2.42027e-15
4.22523e-15
-1.13216e-15
2.04719e-15
-4.01429e-16
1.98746e-15
-3.78645e-16
1.08875e-15
-3.60432e-16
1.01882e-15
-3.4947e-16
9.73719e-16
-2.76331e-16
7.70737e-16
-1.49628e-16
4.13381e-16
-6.74784e-17
1.78705e-16
-2.39043e-17
6.86331e-17
-5.31616e-18
1.88713e-17
-5.79269e-19
3.10316e-18
-8.91173e-21
2.5153e-19
2.7027e-21
1.16116e-26
2.17018e-25
1.42723e-24
2.19605e-23
7.16856e-23
9.77793e-22
3.13092e-21
3.74545e-20
7.61606e-20
9.19828e-19
2.51316e-18
5.63275e-18
1.94052e-16
7.87193e-16
1.5846e-15
1.92558e-14
4.71206e-15
1.71218e-14
1.98384e-13
4.82139e-14
2.65394e-11
1.811e-11
3.44683e-11
2.56038e-11
4.01637e-11
7.1817e-11
4.85759e-11
2.7686e-10
5.48934e-12
8.21306e-11
2.71919e-15
3.43846e-13
5.06427e-15
-3.96777e-16
5.83046e-15
-3.23639e-15
7.15887e-15
-4.97667e-15
1.14759e-14
0
5.26597e-14
0
1.81907e-14
0
9.80779e-15
0
1.06109e-14
-6.72099e-15
1.50289e-14
-9.11132e-15
8.02018e-14
-5.8827e-14
1.36831e-10
1.51073e-11
2.43764e-10
1.9801e-10
2.04942e-10
6.5459e-10
1.00763e-11
1.16421e-09
-1.08544e-10
1.45602e-09
-3.21973e-11
1.53488e-10
-3.86497e-13
5.659e-12
-6.96326e-14
8.96493e-14
-3.34057e-14
2.51831e-14
-2.68309e-15
1.65046e-14
-1.03326e-15
2.26522e-15
-6.54675e-16
1.60738e-15
-4.34107e-16
1.28759e-15
-4.09617e-16
1.07773e-15
-3.95713e-16
9.96875e-16
-3.38233e-16
8.46995e-16
-1.98106e-16
5.03054e-16
-9.01812e-17
2.20307e-16
-3.52946e-17
8.61281e-17
-1.01252e-17
2.79725e-17
-1.78374e-18
6.12269e-18
-1.58858e-19
8.18933e-19
-2.16019e-21
5.70452e-20
6.53479e-22
2.38981e-26
4.07154e-25
1.98799e-24
2.92078e-23
8.76591e-23
1.16419e-21
3.31307e-21
3.886e-20
8.42124e-20
9.38508e-19
2.1786e-18
9.85506e-18
1.37893e-16
6.93053e-16
1.10228e-15
1.13927e-14
2.17548e-15
1.36488e-14
5.09959e-14
3.29787e-14
3.05738e-12
4.23961e-12
8.19236e-12
1.29419e-11
1.72491e-11
4.53249e-11
6.19555e-11
2.80157e-10
9.81342e-12
1.04393e-10
8.7992e-15
7.22228e-13
6.69426e-16
8.17248e-16
1.14452e-14
-2.21349e-15
2.38219e-14
-4.9141e-15
5.41949e-13
-6.57665e-13
3.64111e-12
-8.82623e-12
2.13806e-13
-5.13192e-12
6.24933e-16
-7.35825e-14
1.44054e-14
-1.81583e-14
1.14639e-13
-1.2262e-14
4.37648e-12
-3.55947e-12
1.18036e-10
8.23847e-11
1.06485e-10
1.58544e-10
-2.03298e-11
1.0352e-11
-2.51707e-10
2.84803e-10
-1.35317e-10
1.57877e-10
-4.49979e-12
2.17424e-11
-8.34769e-14
1.29575e-12
-2.1714e-14
2.95105e-14
-1.19122e-14
1.03072e-14
-1.43208e-15
5.91196e-15
-7.6456e-16
1.58987e-15
-5.64006e-16
1.38061e-15
-4.7888e-16
1.23031e-15
-4.41493e-16
1.04743e-15
-3.84753e-16
8.79182e-16
-2.48864e-16
5.78163e-16
-1.16411e-16
2.70671e-16
-4.67527e-17
1.05133e-16
-1.5538e-17
3.661e-17
-3.59196e-18
9.74019e-18
-5.18891e-19
1.7318e-18
-3.98591e-20
1.97728e-19
-5.05203e-22
1.2474e-20
1.50127e-22
3.62901e-26
5.25709e-25
2.53877e-24
3.61151e-23
1.02963e-22
1.35163e-21
3.40973e-21
3.96816e-20
8.58163e-20
9.36502e-19
1.95417e-18
1.1561e-17
9.99816e-17
6.69199e-16
7.67832e-16
8.81176e-15
1.40988e-15
1.01145e-14
1.50428e-14
1.59059e-14
9.73258e-13
3.29778e-12
2.00788e-12
1.12176e-11
1.23998e-11
3.02754e-11
2.94358e-11
2.86741e-10
1.54834e-11
8.45237e-11
1.31519e-14
9.44827e-13
6.29563e-15
2.58373e-15
1.75669e-14
-2.64062e-15
1.15625e-12
-7.79738e-13
6.60691e-12
-8.05351e-12
8.95959e-12
-1.10337e-11
5.07539e-12
-1.19898e-11
6.8334e-14
-4.86768e-12
6.3877e-14
-7.49175e-14
6.9981e-13
-5.01861e-14
5.83129e-11
-3.23474e-12
2.465e-11
1.25233e-10
-1.30256e-11
2.16816e-10
-2.99935e-11
9.46429e-12
-3.89302e-11
1.0449e-11
-1.66014e-11
1.19531e-11
-1.00266e-12
5.97995e-12
-2.81355e-14
3.31661e-13
-8.15752e-15
1.08756e-14
-4.06812e-15
4.75803e-15
-8.66019e-16
2.67762e-15
-6.51824e-16
1.36109e-15
-5.68044e-16
1.29633e-15
-5.11342e-16
1.19398e-15
-4.24396e-16
9.31237e-16
-2.91222e-16
6.26279e-16
-1.46617e-16
3.19719e-16
-5.9585e-17
1.29311e-16
-2.11081e-17
4.58343e-17
-5.81693e-18
1.36402e-17
-1.10365e-18
2.96074e-18
-1.36997e-19
4.45219e-19
-9.54852e-21
4.56813e-20
-1.16427e-22
2.72725e-21
3.37806e-23
4.03477e-26
5.36292e-25
3.12813e-24
4.41606e-23
1.20613e-22
1.59691e-21
3.46324e-21
4.04107e-20
8.42407e-20
9.11545e-19
1.90787e-18
1.16354e-17
9.17199e-17
6.81559e-16
5.96913e-16
8.83805e-15
1.08149e-15
9.17024e-15
5.13677e-15
1.13118e-14
4.68941e-13
2.83842e-12
1.6978e-12
8.04843e-12
5.23378e-11
4.241e-10
5.61462e-11
2.95375e-10
9.44366e-12
5.49914e-11
9.56013e-14
5.3444e-13
2.66389e-14
5.82857e-15
2.78298e-13
-1.81e-13
4.8807e-12
-3.80494e-12
8.05905e-12
-1.10541e-11
8.00221e-12
-1.08316e-11
7.83654e-12
-1.16856e-11
8.68813e-13
-6.56473e-12
7.81222e-14
-1.06064e-13
1.58695e-12
-1.29354e-13
5.8049e-12
1.11147e-11
-3.05719e-11
1.62209e-10
-2.12511e-11
5.89467e-11
-1.43642e-11
1.44665e-12
-1.00645e-11
1.10989e-12
-4.66127e-12
2.82548e-12
-2.60682e-13
1.51412e-12
-1.02186e-14
8.35429e-14
-3.34227e-15
4.45873e-15
-1.64223e-15
2.52097e-15
-6.87445e-16
1.69461e-15
-6.20599e-16
1.27869e-15
-5.84956e-16
1.24816e-15
-4.86359e-16
1.08712e-15
-3.28323e-16
6.87881e-16
-1.75503e-16
3.64058e-16
-7.48812e-17
1.56145e-16
-2.73131e-17
5.73941e-17
-8.30909e-18
1.80813e-17
-1.89296e-18
4.48111e-18
-3.05932e-19
8.14007e-19
-3.4217e-20
1.08599e-19
-2.25667e-21
1.04431e-20
-2.63281e-23
6.0431e-22
7.47335e-24
3.81524e-26
4.77195e-25
3.97511e-24
5.72696e-23
1.47305e-22
2.01073e-21
3.51975e-21
4.16528e-20
7.99314e-20
8.58667e-19
1.87053e-18
1.10325e-17
9.1328e-17
7.00577e-16
5.48839e-16
9.01131e-15
9.33413e-16
9.153e-15
2.3372e-15
1.00334e-14
3.61419e-12
8.63366e-12
4.44485e-11
4.5093e-10
7.31795e-11
4.07811e-10
7.13546e-11
3.09641e-10
8.34341e-13