/*--------------------------------*- C++ -*----------------------------------*\
  =========                 |
  \\      /  F ield         | OpenFOAM: The Open Source CFD Toolbox
   \\    /   O peration     | Website:  https://openfoam.org
    \\  /    A nd           | Version:  9
     \\/     M anipulation  |
\*---------------------------------------------------------------------------*/
FoamFile
{
    format      ascii;
    class       volVectorField;
    location    "0.15";
    object      U;
}
// * * * * * * * * * * * * * * * * * * * * * * * * * * * * * * * * * * * * * //

dimensions      [0 1 -1 0 0 0 0];

internalField   nonuniform List<vector> 
5000
(
(-0.164135 0 0.377292)
(-0.173105 0 0.410632)
(-0.181636 0 0.449753)
(-0.189166 0 0.494907)
(-0.194662 0 0.546238)
(-0.19613 0 0.602615)
(-0.190338 0 0.665806)
(-0.176363 0 0.759226)
(-0.150187 0 0.91004)
(-0.0817327 0 0.980653)
(-0.00334074 0 0.584971)
(0.385569 0 -0.620726)
(0.0974685 0 -1.85212)
(0.0169112 0 -2.31914)
(-0.01785 0 -2.43147)
(-0.038838 0 -2.41676)
(-0.0543774 0 -2.40942)
(-0.0642654 0 -2.42922)
(-0.0652396 0 -2.46099)
(-0.0556281 0 -2.49358)
(-0.0379354 0 -2.5162)
(-0.016803 0 -2.52246)
(0.00462652 0 -2.51269)
(0.0223603 0 -2.48908)
(0.0337564 0 -2.45766)
(0.0380186 0 -2.42602)
(0.0354229 0 -2.4021)
(0.0269712 0 -2.38542)
(0.012896 0 -2.34801)
(0.00252323 0 -2.24429)
(0.00818195 0 -2.0254)
(0.0290317 0 -1.62202)
(0.157648 0 -0.997743)
(0.283975 0 -0.398783)
(0.397272 0 0.0732174)
(0.476946 0 0.365618)
(0.519443 0 0.490627)
(0.535247 0 0.50276)
(0.537076 0 0.461212)
(0.533996 0 0.4068)
(0.530437 0 0.358369)
(0.527588 0 0.319984)
(0.525217 0 0.289406)
(0.522835 0 0.263391)
(0.520142 0 0.239703)
(0.51705 0 0.217267)
(0.513621 0 0.195737)
(0.509889 0 0.17506)
(0.506308 0 0.155146)
(0.50029 0 0.135435)
(-0.14621 0 0.382313)
(-0.152267 0 0.415407)
(-0.157361 0 0.453851)
(-0.160653 0 0.497672)
(-0.160942 0 0.546537)
(-0.156079 0 0.598747)
(-0.142411 0 0.655845)
(-0.119254 0 0.741431)
(-0.0849489 0 0.878402)
(0.00652195 0 0.910685)
(0.0710643 0 0.47626)
(0.397352 0 -0.704648)
(0.192158 0 -1.61006)
(0.0358088 0 -2.26067)
(-0.0187688 0 -2.41112)
(-0.0401994 0 -2.40562)
(-0.0506851 0 -2.4014)
(-0.060311 0 -2.42508)
(-0.0633915 0 -2.46282)
(-0.0567131 0 -2.50254)
(-0.0419991 0 -2.53113)
(-0.023239 0 -2.54055)
(-0.00333201 0 -2.53044)
(0.0136079 0 -2.50315)
(0.0249119 0 -2.46605)
(0.0303643 0 -2.42792)
(0.0298612 0 -2.39698)
(0.0224939 0 -2.37326)
(0.00561144 0 -2.33205)
(-0.0102408 0 -2.23225)
(-0.0202675 0 -2.02895)
(-0.00791292 0 -1.70067)
(0.0931373 0 -1.14932)
(0.200923 0 -0.569314)
(0.306619 0 -0.0761065)
(0.38717 0 0.260081)
(0.435986 0 0.431838)
(0.459158 0 0.479249)
(0.466682 0 0.457373)
(0.467099 0 0.410517)
(0.465497 0 0.363335)
(0.463888 0 0.324361)
(0.462556 0 0.293534)
(0.461209 0 0.268114)
(0.459555 0 0.245617)
(0.457461 0 0.224591)
(0.454953 0 0.204426)
(0.452075 0 0.184946)
(0.449166 0 0.166082)
(0.443932 0 0.14787)
(-0.128655 0 0.385676)
(-0.132021 0 0.418028)
(-0.133975 0 0.455311)
(-0.133544 0 0.497302)
(-0.129462 0 0.543191)
(-0.119712 0 0.590818)
(-0.100466 0 0.641454)
(-0.0702437 0 0.717528)
(-0.0338436 0 0.840062)
(0.069138 0 0.841725)
(0.11603 0 0.378035)
(0.385886 0 -0.752921)
(0.278607 0 -1.58105)
(0.0674258 0 -2.17919)
(-0.0143146 0 -2.3841)
(-0.0384837 0 -2.39598)
(-0.042878 0 -2.39569)
(-0.0507357 0 -2.42075)
(-0.0555378 0 -2.46294)
(-0.0523682 0 -2.50912)
(-0.0421894 0 -2.54338)
(-0.0280342 0 -2.5562)
(-0.0121182 0 -2.54628)
(0.0018428 0 -2.51601)
(0.0108189 0 -2.4745)
(0.0153266 0 -2.43149)
(0.0148692 0 -2.39376)
(0.00630167 0 -2.3603)
(-0.0138606 0 -2.30722)
(-0.0364403 0 -2.20082)
(-0.0611795 0 -2.04232)
(-0.0356793 0 -1.7755)
(0.0497716 0 -1.28368)
(0.14034 0 -0.723139)
(0.23542 0 -0.216892)
(0.312339 0 0.152699)
(0.363197 0 0.364495)
(0.390851 0 0.445706)
(0.402616 0 0.445471)
(0.405939 0 0.409001)
(0.405993 0 0.365153)
(0.405311 0 0.326582)
(0.40463 0 0.295739)
(0.403887 0 0.270835)
(0.402847 0 0.249438)
(0.401348 0 0.229835)
(0.399357 0 0.211163)
(0.396893 0 0.193117)
(0.394322 0 0.175814)
(0.389662 0 0.160878)
(-0.111582 0 0.387511)
(-0.112575 0 0.418927)
(-0.11178 0 0.454778)
(-0.108196 0 0.494569)
(-0.100539 0 0.537061)
(-0.0871538 0 0.5798)
(-0.0646975 0 0.624213)
(-0.0295879 0 0.690738)
(0.00561786 0 0.798306)
(0.111737 0 0.778028)
(0.147925 0 0.29224)
(0.360834 0 -0.78434)
(0.426363 0 -1.58337)
(0.155188 0 -2.03346)
(0.0157414 0 -2.33827)
(-0.018703 0 -2.3879)
(-0.0257386 0 -2.39206)
(-0.0327087 0 -2.41639)
(-0.039375 0 -2.46109)
(-0.040748 0 -2.51221)
(-0.0368674 0 -2.55103)
(-0.0298936 0 -2.5669)
(-0.0211666 0 -2.55763)
(-0.012917 0 -2.52464)
(-0.00927738 0 -2.47914)
(-0.0102646 0 -2.43214)
(-0.0165207 0 -2.38761)
(-0.0307705 0 -2.34198)
(-0.0465235 0 -2.27399)
(-0.0686746 0 -2.15905)
(-0.0880151 0 -2.08896)
(-0.0305953 0 -1.85976)
(0.033615 0 -1.39751)
(0.104455 0 -0.854825)
(0.183787 0 -0.344574)
(0.253176 0 0.0495578)
(0.30234 0 0.294428)
(0.331525 0 0.406298)
(0.345695 0 0.427855)
(0.350958 0 0.403456)
(0.352153 0 0.364616)
(0.352035 0 0.327439)
(0.351671 0 0.296911)
(0.351221 0 0.272492)
(0.350541 0 0.252073)
(0.349481 0 0.233837)
(0.34798 0 0.216721)
(0.346022 0 0.200265)
(0.344132 0 0.184204)
(0.341823 0 0.166923)
(-0.0951288 0 0.387912)
(-0.0940284 0 0.418215)
(-0.0908986 0 0.452459)
(-0.084787 0 0.489898)
(-0.0743953 0 0.528882)
(-0.0583757 0 0.566684)
(-0.0345355 0 0.605386)
(0.00318651 0 0.663458)
(0.0356319 0 0.756743)
(0.137749 0 0.721536)
(0.171829 0 0.217365)
(0.322749 0 -0.822423)
(0.434153 0 -1.62873)
(0.24383 0 -1.86623)
(0.0919178 0 -2.27705)
(0.0473481 0 -2.37429)
(0.0127909 0 -2.38613)
(-0.00236968 0 -2.41078)
(-0.0128967 0 -2.45682)
(-0.0206323 0 -2.5108)
(-0.0247094 0 -2.55225)
(-0.0269558 0 -2.57007)
(-0.028559 0 -2.56184)
(-0.0285787 0 -2.52646)
(-0.0323505 0 -2.4754)
(-0.0434024 0 -2.42262)
(-0.0604839 0 -2.3706)
(-0.0803826 0 -2.31564)
(-0.0863854 0 -2.24689)
(-0.0875461 0 -2.13441)
(-0.0532012 0 -2.15072)
(-0.00513876 0 -1.91585)
(0.0283902 0 -1.47755)
(0.081739 0 -0.957731)
(0.146729 0 -0.452679)
(0.20694 0 -0.0435678)
(0.252117 0 0.226953)
(0.280696 0 0.365245)
(0.295705 0 0.407324)
(0.301949 0 0.395495)
(0.303748 0 0.36266)
(0.30386 0 0.327609)
(0.303551 0 0.297658)
(0.303166 0 0.27363)
(0.302661 0 0.253925)
(0.301915 0 0.236746)
(0.300856 0 0.220878)
(0.299416 0 0.205623)
(0.297928 0 0.18994)
(0.296763 0 0.167654)
(-0.0794227 0 0.387065)
(-0.076514 0 0.416103)
(-0.0714274 0 0.448602)
(-0.063327 0 0.483641)
(-0.0509639 0 0.519252)
(-0.0331255 0 0.552363)
(-0.00918726 0 0.585972)
(0.0292778 0 0.636955)
(0.0585087 0 0.71784)
(0.150882 0 0.673438)
(0.187056 0 0.155754)
(0.283935 0 -0.864881)
(0.398308 0 -1.65133)
(0.365734 0 -1.70182)
(0.228268 0 -2.14212)
(0.154376 0 -2.32081)
(0.0864423 0 -2.36705)
(0.0481896 0 -2.40025)
(0.0276555 0 -2.44861)
(0.00979112 0 -2.50422)
(-0.00443398 0 -2.54612)
(-0.0171142 0 -2.56386)
(-0.0311526 0 -2.55675)
(-0.041312 0 -2.52086)
(-0.0514932 0 -2.46343)
(-0.0695621 0 -2.40354)
(-0.0889354 0 -2.34871)
(-0.101291 0 -2.29826)
(-0.104217 0 -2.24935)
(-0.0875395 0 -2.18924)
(0.0184423 0 -2.21447)
(0.0258117 0 -1.94954)
(0.0235076 0 -1.52747)
(0.0615119 0 -1.03823)
(0.116744 0 -0.542774)
(0.168951 0 -0.125252)
(0.209665 0 0.164881)
(0.236579 0 0.325469)
(0.251403 0 0.386174)
(0.257915 0 0.386635)
(0.259896 0 0.360236)
(0.25997 0 0.327753)
(0.259493 0 0.298532)
(0.258941 0 0.274749)
(0.258357 0 0.255424)
(0.257649 0 0.238896)
(0.256745 0 0.223859)
(0.255584 0 0.20941)
(0.25434 0 0.193864)
(0.253353 0 0.168727)
(-0.0645328 0 0.385147)
(-0.0600893 0 0.412849)
(-0.053394 0 0.443563)
(-0.043759 0 0.476237)
(-0.0300994 0 0.508719)
(-0.0110744 0 0.537621)
(0.0121691 0 0.56662)
(0.0499644 0 0.611868)
(0.0762966 0 0.682487)
(0.155886 0 0.63327)
(0.193094 0 0.110078)
(0.247941 0 -0.902669)
(0.308141 0 -1.67939)
(0.42163 0 -1.77313)
(0.356143 0 -2.06234)
(0.261502 0 -2.24488)
(0.182896 0 -2.31802)
(0.12577 0 -2.37381)
(0.0881042 0 -2.43042)
(0.0542843 0 -2.48951)
(0.0266397 0 -2.53173)
(0.00212522 0 -2.54738)
(-0.0245526 0 -2.54075)
(-0.0458633 0 -2.50742)
(-0.0612116 0 -2.44692)
(-0.0791867 0 -2.38275)
(-0.0952645 0 -2.33378)
(-0.0965206 0 -2.2941)
(-0.0684733 0 -2.26398)
(-0.0395814 0 -2.35645)
(0.00526152 0 -2.25733)
(0.0102915 0 -1.94433)
(0.0187191 0 -1.55331)
(0.0481793 0 -1.10325)
(0.0932973 0 -0.6195)
(0.137557 0 -0.196726)
(0.173368 0 0.108983)
(0.197775 0 0.288467)
(0.211589 0 0.365818)
(0.21778 0 0.377906)
(0.219582 0 0.358027)
(0.219397 0 0.328381)
(0.218584 0 0.300026)
(0.217699 0 0.276414)
(0.216856 0 0.257244)
(0.216004 0 0.241081)
(0.215073 0 0.2266)
(0.214035 0 0.212701)
(0.213023 0 0.197058)
(0.212465 0 0.169553)
(-0.0504962 0 0.382311)
(-0.044768 0 0.408654)
(-0.036775 0 0.437607)
(-0.0259652 0 0.468011)
(-0.0115052 0 0.497654)
(0.00810259 0 0.522954)
(0.0302008 0 0.547876)
(0.0664478 0 0.58857)
(0.0903584 0 0.650992)
(0.156637 0 0.599845)
(0.189879 0 0.0815145)
(0.214189 0 -0.926678)
(0.209303 0 -1.71411)
(0.321823 0 -1.8598)
(0.32425 0 -2.15608)
(0.299242 0 -2.20869)
(0.258882 0 -2.26751)
(0.213336 0 -2.32786)
(0.16412 0 -2.39397)
(0.114619 0 -2.45964)
(0.0724757 0 -2.5049)
(0.0341195 0 -2.51944)
(-0.00319847 0 -2.51341)
(-0.0335082 0 -2.4842)
(-0.0581835 0 -2.4263)
(-0.0756312 0 -2.36517)
(-0.0799714 0 -2.331)
(-0.0602115 0 -2.31566)
(-0.118879 0 -2.24735)
(-0.154647 0 -2.38138)
(-0.109906 0 -2.30786)
(-0.0161618 0 -1.98372)
(0.0275916 0 -1.57803)
(0.0450182 0 -1.14916)
(0.0762981 0 -0.680843)
(0.111992 0 -0.256831)
(0.142213 0 0.0605391)
(0.163236 0 0.255612)
(0.175275 0 0.347461)
(0.180601 0 0.370176)
(0.181888 0 0.356585)
(0.181258 0 0.329861)
(0.179996 0 0.302452)
(0.178694 0 0.278953)
(0.177522 0 0.259735)
(0.176466 0 0.243636)
(0.175479 0 0.22933)
(0.174589 0 0.215455)
(0.173968 0 0.198975)
(0.173989 0 0.168821)
(-0.037328 0 0.378699)
(-0.0305349 0 0.403688)
(-0.021517 0 0.430947)
(-0.0098221 0 0.459222)
(0.00508016 0 0.4863)
(0.0248579 0 0.508539)
(0.0456069 0 0.530159)
(0.0797484 0 0.567275)
(0.10165 0 0.623473)
(0.1565 0 0.572107)
(0.182369 0 0.067784)
(0.184882 0 -0.929278)
(0.128628 0 -1.72943)
(0.204752 0 -1.90431)
(0.261808 0 -2.13679)
(0.297371 0 -2.20318)
(0.275671 0 -2.25667)
(0.258629 0 -2.30151)
(0.228354 0 -2.35331)
(0.181633 0 -2.41612)
(0.132673 0 -2.46352)
(0.0809233 0 -2.48006)
(0.0358764 0 -2.47764)
(0.00162608 0 -2.45436)
(-0.0338456 0 -2.40649)
(-0.0530592 0 -2.36128)
(-0.0127519 0 -2.3522)
(-0.0449932 0 -2.26552)
(-0.0380905 0 -2.18863)
(-0.0308643 0 -2.3311)
(-0.0786689 0 -2.35843)
(-0.0726515 0 -2.0819)
(-0.00260826 0 -1.63031)
(0.0336181 0 -1.18241)
(0.0599303 0 -0.727596)
(0.0897733 0 -0.305172)
(0.114602 0 0.0204966)
(0.131721 0 0.228128)
(0.141395 0 0.33221)
(0.145369 0 0.364254)
(0.145823 0 0.356414)
(0.144564 0 0.332486)
(0.142742 0 0.306001)
(0.14092 0 0.282532)
(0.139287 0 0.263078)
(0.137836 0 0.246762)
(0.136494 0 0.232277)
(0.135337 0 0.217977)
(0.135285 0 0.200323)
(0.137559 0 0.168861)
(-0.0250272 0 0.374435)
(-0.0173561 0 0.398099)
(-0.00753769 0 0.423752)
(0.00480789 0 0.450072)
(0.0199005 0 0.474874)
(0.0396262 0 0.494557)
(0.05903 0 0.513559)
(0.0908255 0 0.547967)
(0.110909 0 0.599785)
(0.156641 0 0.549445)
(0.174278 0 0.065278)
(0.161137 0 -0.909045)
(0.071656 0 -1.71467)
(0.113698 0 -1.93663)
(0.177052 0 -2.12737)
(0.223357 0 -2.21369)
(0.253184 0 -2.26249)
(0.273768 0 -2.30909)
(0.263757 0 -2.3423)
(0.234457 0 -2.38949)
(0.192952 0 -2.4253)
(0.13859 0 -2.44026)
(0.0871581 0 -2.44392)
(0.0416099 0 -2.42836)
(-0.00140835 0 -2.38566)
(-0.0441145 0 -2.39955)
(-0.0305425 0 -2.33714)
(-0.00823592 0 -2.288)
(0.0368721 0 -2.23577)
(0.0566198 0 -2.30645)
(0.0223572 0 -2.31226)
(-0.00672172 0 -2.13823)
(0.0248092 0 -1.71401)
(0.049079 0 -1.21943)
(0.058831 0 -0.763887)
(0.0757459 0 -0.342166)
(0.0919832 0 -0.010112)
(0.103372 0 0.207401)
(0.109456 0 0.321316)
(0.111303 0 0.361044)
(0.110484 0 0.358079)
(0.108376 0 0.336582)
(0.105896 0 0.310891)
(0.103516 0 0.287368)
(0.101412 0 0.267571)
(0.0995976 0 0.250891)
(0.0979965 0 0.235953)
(0.0966867 0 0.220331)
(0.0975278 0 0.197403)
(0.104214 0 0.146269)
(-0.0135791 0 0.36963)
(-0.00518631 0 0.39201)
(0.00525192 0 0.416151)
(0.0180789 0 0.440689)
(0.0332031 0 0.463512)
(0.0527639 0 0.481094)
(0.0709847 0 0.498004)
(0.100518 0 0.530429)
(0.119037 0 0.579405)
(0.157849 0 0.531373)
(0.168731 0 0.0704672)
(0.143795 0 -0.87282)
(0.0361154 0 -1.68177)
(0.0519387 0 -1.96951)
(0.109004 0 -2.15519)
(0.155096 0 -2.24841)
(0.210106 0 -2.28645)
(0.249497 0 -2.33316)
(0.268426 0 -2.34383)
(0.262649 0 -2.37656)
(0.234891 0 -2.39496)
(0.187451 0 -2.40069)
(0.139629 0 -2.40328)
(0.0914014 0 -2.38498)
(0.0772741 0 -2.3313)
(0.0748088 0 -2.37553)
(0.062366 0 -2.3488)
(0.0742463 0 -2.3262)
(0.0999282 0 -2.29469)
(0.112141 0 -2.29455)
(0.0777816 0 -2.25959)
(0.0237947 0 -2.10366)
(0.0248091 0 -1.76226)
(0.0549957 0 -1.24596)
(0.0607747 0 -0.780262)
(0.065831 0 -0.361692)
(0.0723318 0 -0.0273626)
(0.0767304 0 0.19614)
(0.0781969 0 0.316643)
(0.0772494 0 0.361739)
(0.0747964 0 0.362254)
(0.0716984 0 0.342458)
(0.0685634 0 0.317203)
(0.0657197 0 0.293419)
(0.06329 0 0.273089)
(0.0613008 0 0.255787)
(0.0597357 0 0.239817)
(0.0587001 0 0.221138)
(0.0601184 0 0.189076)
(0.0678829 0 0.121751)
(-0.00296108 0 0.364378)
(0.00602007 0 0.385522)
(0.0169365 0 0.408239)
(0.0301333 0 0.431155)
(0.0452057 0 0.452251)
(0.0645613 0 0.468124)
(0.0818704 0 0.483351)
(0.109494 0 0.514324)
(0.126967 0 0.561528)
(0.160868 0 0.516932)
(0.16714 0 0.0801812)
(0.133528 0 -0.827819)
(0.0196342 0 -1.64129)
(0.0149546 0 -1.99551)
(0.0660354 0 -2.19511)
(0.120079 0 -2.29043)
(0.183182 0 -2.3215)
(0.229823 0 -2.34669)
(0.255195 0 -2.35126)
(0.260945 0 -2.365)
(0.248938 0 -2.36186)
(0.222567 0 -2.35131)
(0.193907 0 -2.34615)
(0.16974 0 -2.34464)
(0.164678 0 -2.33756)
(0.169478 0 -2.35999)
(0.165424 0 -2.35152)
(0.166049 0 -2.33356)
(0.167474 0 -2.30512)
(0.15833 0 -2.26938)
(0.125078 0 -2.20478)
(0.0768459 0 -2.04458)
(0.0483483 0 -1.76943)
(0.0574364 0 -1.26157)
(0.059039 0 -0.778542)
(0.0541114 0 -0.361371)
(0.0510053 0 -0.0286571)
(0.0482342 0 0.196353)
(0.0449431 0 0.319572)
(0.0411381 0 0.367149)
(0.0370839 0 0.369285)
(0.0331021 0 0.350114)
(0.0294653 0 0.324692)
(0.0263279 0 0.300254)
(0.0237404 0 0.279041)
(0.0217124 0 0.260687)
(0.0203009 0 0.242951)
(0.0197831 0 0.219824)
(0.0217283 0 0.178184)
(0.0281557 0 0.103128)
(0.00685168 0 0.358758)
(0.0163101 0 0.378714)
(0.0275949 0 0.400097)
(0.0410876 0 0.42153)
(0.0560878 0 0.441092)
(0.0752561 0 0.455566)
(0.0919774 0 0.469405)
(0.118189 0 0.499216)
(0.135408 0 0.545163)
(0.166417 0 0.504719)
(0.170508 0 0.0925237)
(0.132159 0 -0.778813)
(0.0206071 0 -1.59678)
(-9.71381e-05 0 -2.00986)
(0.0460774 0 -2.23044)
(0.10465 0 -2.3321)
(0.163291 0 -2.35963)
(0.20625 0 -2.36561)
(0.232244 0 -2.36307)
(0.244682 0 -2.36486)
(0.245713 0 -2.35697)
(0.241891 0 -2.34525)
(0.238739 0 -2.34231)
(0.236719 0 -2.34872)
(0.239399 0 -2.35337)
(0.243635 0 -2.35788)
(0.242047 0 -2.34928)
(0.236894 0 -2.32668)
(0.226252 0 -2.28916)
(0.205075 0 -2.23322)
(0.170944 0 -2.1526)
(0.130994 0 -1.99684)
(0.0862452 0 -1.73537)
(0.0681647 0 -1.26274)
(0.0581976 0 -0.764403)
(0.0404107 0 -0.343999)
(0.0261037 0 -0.0146512)
(0.0155974 0 0.207921)
(0.00748094 0 0.329992)
(0.00102772 0 0.37707)
(-0.00431603 0 0.378816)
(-0.00890399 0 0.359094)
(-0.0127903 0 0.33286)
(-0.0160168 0 0.307381)
(-0.0186102 0 0.284973)
(-0.0205796 0 0.265208)
(-0.0218016 0 0.245162)
(-0.0217785 0 0.217068)
(-0.0192822 0 0.167442)
(-0.0142154 0 0.0894044)
(0.0158863 0 0.35284)
(0.0257307 0 0.371656)
(0.0372967 0 0.391784)
(0.0510308 0 0.411844)
(0.0659773 0 0.430008)
(0.0850138 0 0.443282)
(0.101476 0 0.455891)
(0.126772 0 0.48459)
(0.144631 0 0.529342)
(0.174208 0 0.493373)
(0.178908 0 0.105164)
(0.139819 0 -0.729275)
(0.0346152 0 -1.54955)
(0.00169792 0 -2.01477)
(0.040562 0 -2.26247)
(0.0897854 0 -2.36891)
(0.131519 0 -2.38995)
(0.164757 0 -2.38691)
(0.191458 0 -2.3783)
(0.211242 0 -2.37349)
(0.225297 0 -2.36599)
(0.23879 0 -2.35727)
(0.254089 0 -2.35397)
(0.267738 0 -2.35719)
(0.277622 0 -2.35988)
(0.28292 0 -2.35778)
(0.283125 0 -2.34457)
(0.278716 0 -2.3161)
(0.267221 0 -2.26765)
(0.245018 0 -2.19467)
(0.209783 0 -2.10118)
(0.170917 0 -1.94861)
(0.122715 0 -1.67706)
(0.0893834 0 -1.23369)
(0.0590173 0 -0.725447)
(0.0219815 0 -0.30562)
(-0.00482513 0 0.0158035)
(-0.0230897 0 0.230778)
(-0.0356706 0 0.347246)
(-0.0443381 0 0.390605)
(-0.0505689 0 0.389963)
(-0.0553252 0 0.368633)
(-0.0591207 0 0.341112)
(-0.062197 0 0.314406)
(-0.064647 0 0.290711)
(-0.0664635 0 0.269347)
(-0.067398 0 0.246486)
(-0.0667132 0 0.212965)
(-0.0632748 0 0.156667)
(-0.0583517 0 0.0785017)
(0.0241702 0 0.346681)
(0.0343219 0 0.364397)
(0.0460962 0 0.383335)
(0.0600243 0 0.402105)
(0.0749473 0 0.418957)
(0.0939129 0 0.431125)
(0.110412 0 0.442529)
(0.135229 0 0.469952)
(0.15455 0 0.513299)
(0.183946 0 0.481624)
(0.192035 0 0.115884)
(0.154427 0 -0.680888)
(0.0552066 0 -1.5017)
(0.0134145 0 -2.01308)
(0.0399569 0 -2.28797)
(0.0675666 0 -2.39251)
(0.0901713 0 -2.40986)
(0.117748 0 -2.40567)
(0.146637 0 -2.39588)
(0.174524 0 -2.38876)
(0.199776 0 -2.38152)
(0.22425 0 -2.37473)
(0.249394 0 -2.37111)
(0.271447 0 -2.37077)
(0.287783 0 -2.36923)
(0.298326 0 -2.36207)
(0.303805 0 -2.344)
(0.304047 0 -2.30907)
(0.296672 0 -2.25024)
(0.280936 0 -2.16202)
(0.244065 0 -2.04239)
(0.190749 0 -1.88806)
(0.125814 0 -1.60499)
(0.0689202 0 -1.16924)
(0.0249674 0 -0.658334)
(-0.016947 0 -0.245705)
(-0.0494381 0 0.0615835)
(-0.0720782 0 0.263195)
(-0.0869038 0 0.369517)
(-0.096264 0 0.406098)
(-0.102325 0 0.401384)
(-0.106567 0 0.377696)
(-0.109807 0 0.348681)
(-0.112411 0 0.320791)
(-0.114479 0 0.295858)
(-0.115886 0 0.272601)
(-0.116111 0 0.245943)
(-0.114199 0 0.206)
(-0.10944 0 0.143544)
(-0.104387 0 0.0585016)
(0.0317257 0 0.340332)
(0.042114 0 0.356979)
(0.0540335 0 0.374778)
(0.0681064 0 0.392315)
(0.0830299 0 0.407904)
(0.101967 0 0.418987)
(0.11873 0 0.429113)
(0.143403 0 0.454918)
(0.164674 0 0.496473)
(0.19488 0 0.468447)
(0.207235 0 0.12397)
(0.173065 0 -0.635274)
(0.0797295 0 -1.45335)
(0.0310582 0 -2.00441)
(0.0423993 0 -2.30123)
(0.0479674 0 -2.40167)
(0.0590813 0 -2.4246)
(0.0841387 0 -2.42351)
(0.114426 0 -2.41627)
(0.148113 0 -2.40992)
(0.180587 0 -2.40398)
(0.210989 0 -2.39874)
(0.240783 0 -2.39479)
(0.267472 0 -2.39146)
(0.289304 0 -2.38568)
(0.30596 0 -2.37358)
(0.317091 0 -2.34987)
(0.321077 0 -2.30693)
(0.314992 0 -2.23685)
(0.298488 0 -2.13435)
(0.266528 0 -1.97983)
(0.208413 0 -1.80646)
(0.123117 0 -1.50266)
(0.0352644 0 -1.06561)
(-0.0259254 0 -0.579135)
(-0.0712944 0 -0.176849)
(-0.106949 0 0.114395)
(-0.131209 0 0.299566)
(-0.146018 0 0.392913)
(-0.154463 0 0.420868)
(-0.159285 0 0.411201)
(-0.162326 0 0.384964)
(-0.164573 0 0.354631)
(-0.16642 0 0.325833)
(-0.167883 0 0.299711)
(-0.168588 0 0.273894)
(-0.167663 0 0.241957)
(-0.164096 0 0.194721)
(-0.15793 0 0.128187)
(-0.152707 0 0.0476867)
(0.0385721 0 0.333841)
(0.0491313 0 0.349449)
(0.0611375 0 0.366145)
(0.0752988 0 0.382491)
(0.0902277 0 0.396835)
(0.109142 0 0.406798)
(0.126288 0 0.415511)
(0.151021 0 0.439255)
(0.174301 0 0.478512)
(0.206221 0 0.453156)
(0.222754 0 0.129505)
(0.192612 0 -0.593656)
(0.10462 0 -1.40439)
(0.0547129 0 -1.98903)
(0.0523368 0 -2.30226)
(0.0445392 0 -2.40338)
(0.0503945 0 -2.43512)
(0.0700988 0 -2.44063)
(0.0996742 0 -2.43847)
(0.135524 0 -2.43476)
(0.170942 0 -2.43055)
(0.203786 0 -2.42636)
(0.235768 0 -2.42201)
(0.265421 0 -2.41653)
(0.291505 0 -2.4074)
(0.312939 0 -2.39058)
(0.327616 0 -2.35955)
(0.331696 0 -2.30496)
(0.321364 0 -2.21875)
(0.292871 0 -2.09851)
(0.2554 0 -1.91852)
(0.191058 0 -1.69761)
(0.0956199 0 -1.3684)
(-0.00327797 0 -0.937861)
(-0.0769992 0 -0.487419)
(-0.130584 0 -0.103194)
(-0.170352 0 0.169298)
(-0.195645 0 0.335636)
(-0.209695 0 0.414161)
(-0.216608 0 0.432582)
(-0.219759 0 0.417839)
(-0.221319 0 0.389392)
(-0.222382 0 0.358261)
(-0.223311 0 0.32898)
(-0.223922 0 0.301558)
(-0.223475 0 0.272085)
(-0.220833 0 0.233243)
(-0.215206 0 0.178208)
(-0.207418 0 0.108339)
(-0.201784 0 0.0343098)
(0.0447283 0 0.327251)
(0.0553937 0 0.341855)
(0.0674271 0 0.357472)
(0.0816104 0 0.372656)
(0.0965211 0 0.385755)
(0.115372 0 0.394529)
(0.1329 0 0.401678)
(0.157731 0 0.422927)
(0.182655 0 0.459341)
(0.216485 0 0.435687)
(0.236429 0 0.132406)
(0.210933 0 -0.55603)
(0.129038 0 -1.3566)
(0.0816494 0 -1.96966)
(0.0646739 0 -2.29372)
(0.0476501 0 -2.40271)
(0.0524711 0 -2.44202)
(0.0698541 0 -2.4564)
(0.0975957 0 -2.46035)
(0.132422 0 -2.46006)
(0.167582 0 -2.45783)
(0.200698 0 -2.45482)
(0.23362 0 -2.45075)
(0.265392 0 -2.44441)
(0.294801 0 -2.43296)
(0.31977 0 -2.41111)
(0.33624 0 -2.36999)
(0.337945 0 -2.29837)
(0.320665 0 -2.18892)
(0.278337 0 -2.04273)
(0.219552 0 -1.84421)
(0.140098 0 -1.57214)
(0.0413653 0 -1.22983)
(-0.0537533 0 -0.802277)
(-0.135315 0 -0.378763)
(-0.195651 0 -0.0208866)
(-0.237888 0 0.22683)
(-0.263015 0 0.370573)
(-0.275615 0 0.432274)
(-0.280654 0 0.440509)
(-0.282015 0 0.420843)
(-0.282075 0 0.390697)
(-0.28194 0 0.359312)
(-0.281822 0 0.329728)
(-0.281189 0 0.300297)
(-0.278921 0 0.265525)
(-0.273945 0 0.218466)
(-0.266222 0 0.156448)
(-0.25769 0 0.0866362)
(-0.25329 0 0.023206)
(0.0502146 0 0.320606)
(0.0609192 0 0.334243)
(0.0729148 0 0.348803)
(0.0870432 0 0.362847)
(0.10188 0 0.374694)
(0.120584 0 0.382203)
(0.138381 0 0.387665)
(0.163189 0 0.406098)
(0.189128 0 0.439247)
(0.22418 0 0.416615)
(0.24673 0 0.132609)
(0.226712 0 -0.522679)
(0.152848 0 -1.31226)
(0.108335 0 -1.94738)
(0.0799359 0 -2.27867)
(0.0588544 0 -2.39941)
(0.0614891 0 -2.4478)
(0.076521 0 -2.47055)
(0.101079 0 -2.4804)
(0.132757 0 -2.48389)
(0.165808 0 -2.48426)
(0.198017 0 -2.48318)
(0.231195 0 -2.48053)
(0.264621 0 -2.47469)
(0.296891 0 -2.46182)
(0.324802 0 -2.43433)
(0.342296 0 -2.38013)
(0.341735 0 -2.28655)
(0.320142 0 -2.15053)
(0.276517 0 -1.9776)
(0.203953 0 -1.74581)
(0.105571 0 -1.43815)
(-0.00700394 0 -1.09224)
(-0.111512 0 -0.661177)
(-0.201145 0 -0.257697)
(-0.266641 0 0.0684719)
(-0.309384 0 0.285572)
(-0.332807 0 0.403222)
(-0.342984 0 0.446632)
(-0.345687 0 0.444493)
(-0.345134 0 0.420316)
(-0.343713 0 0.389021)
(-0.342363 0 0.357669)
(-0.340941 0 0.327291)
(-0.338476 0 0.294291)
(-0.33372 0 0.252448)
(-0.326203 0 0.197275)
(-0.317025 0 0.131596)
(-0.308941 0 0.0669688)
(-0.306346 0 0.016453)
(0.0550523 0 0.31395)
(0.0657266 0 0.326657)
(0.0776137 0 0.340187)
(0.0916003 0 0.35312)
(0.106279 0 0.363715)
(0.124717 0 0.369897)
(0.142593 0 0.3736)
(0.16715 0 0.38906)
(0.193421 0 0.418735)
(0.228801 0 0.39669)
(0.253287 0 0.130073)
(0.239467 0 -0.494326)
(0.175265 0 -1.27243)
(0.133616 0 -1.92224)
(0.0967512 0 -2.25932)
(0.0735541 0 -2.39414)
(0.073688 0 -2.45224)
(0.0849 0 -2.48231)
(0.104966 0 -2.49771)
(0.132359 0 -2.50539)
(0.162409 0 -2.50914)
(0.193051 0 -2.51098)
(0.225937 0 -2.51099)
(0.260527 0 -2.50704)
(0.295142 0 -2.4936)
(0.325254 0 -2.45966)
(0.342558 0 -2.38954)
(0.339417 0 -2.27023)
(0.313267 0 -2.10838)
(0.26155 0 -1.9058)
(0.182287 0 -1.62044)
(0.0767387 0 -1.28881)
(-0.0523875 0 -0.926265)
(-0.177735 0 -0.50418)
(-0.275262 0 -0.127561)
(-0.343369 0 0.16044)
(-0.384312 0 0.341746)
(-0.404354 0 0.431018)
(-0.41113 0 0.455888)
(-0.411091 0 0.444062)
(-0.408532 0 0.416253)
(-0.405614 0 0.384391)
(-0.402853 0 0.352868)
(-0.399578 0 0.320329)
(-0.394514 0 0.281749)
(-0.386818 0 0.232058)
(-0.377136 0 0.171161)
(-0.367538 0 0.106837)
(-0.360658 0 0.0513211)
(-0.359412 0 0.0125107)
(0.059264 0 0.307326)
(0.0698378 0 0.319141)
(0.0815424 0 0.33168)
(0.0952933 0 0.343536)
(0.109705 0 0.352901)
(0.127737 0 0.357727)
(0.145452 0 0.359655)
(0.169483 0 0.372123)
(0.195466 0 0.398239)
(0.230763 0 0.376319)
(0.256495 0 0.124955)
(0.2481 0 -0.47151)
(0.193619 0 -1.23765)
(0.153905 0 -1.89576)
(0.115021 0 -2.23887)
(0.0925678 0 -2.38649)
(0.0863456 0 -2.45373)
(0.0917541 0 -2.49075)
(0.106561 0 -2.51173)
(0.129228 0 -2.52412)
(0.155804 0 -2.53203)
(0.184256 0 -2.53769)
(0.216043 0 -2.54155)
(0.250893 0 -2.54084)
(0.286717 0 -2.52754)
(0.317424 0 -2.48574)
(0.332661 0 -2.3962)
(0.326497 0 -2.24757)
(0.286229 0 -2.06053)
(0.215297 0 -1.81804)
(0.117957 0 -1.48557)
(0.00237184 0 -1.12456)
(-0.137028 0 -0.730964)
(-0.267447 0 -0.331414)
(-0.364019 0 0.0060605)
(-0.428107 0 0.248808)
(-0.462953 0 0.390538)
(-0.477175 0 0.450932)
(-0.479395 0 0.458504)
(-0.476198 0 0.438642)
(-0.471506 0 0.40846)
(-0.466882 0 0.376353)
(-0.46217 0 0.343655)
(-0.456212 0 0.306937)
(-0.447903 0 0.261335)
(-0.437392 0 0.20506)
(-0.426485 0 0.142813)
(-0.417505 0 0.0846379)
(-0.412087 0 0.0397542)
(-0.41169 0 0.0101377)
(0.0628733 0 0.300777)
(0.0732788 0 0.311739)
(0.0847273 0 0.32334)
(0.0981448 0 0.334164)
(0.112169 0 0.342342)
(0.129636 0 0.345826)
(0.146925 0 0.346018)
(0.170111 0 0.355594)
(0.195219 0 0.378093)
(0.229786 0 0.355793)
(0.256247 0 0.117742)
(0.252536 0 -0.453452)
(0.208958 0 -1.2075)
(0.172824 0 -1.86737)
(0.131799 0 -2.21938)
(0.106843 0 -2.37551)
(0.0952309 0 -2.45141)
(0.095246 0 -2.49555)
(0.104772 0 -2.52234)
(0.122638 0 -2.53989)
(0.145264 0 -2.55246)
(0.170582 0 -2.5625)
(0.199905 0 -2.57111)
(0.23329 0 -2.5748)
(0.267897 0 -2.56192)
(0.296065 0 -2.51009)
(0.306476 0 -2.39681)
(0.29165 0 -2.22025)
(0.234597 0 -1.99022)
(0.147002 0 -1.69418)
(0.0240136 0 -1.33074)
(-0.112597 0 -0.939206)
(-0.25744 0 -0.528186)
(-0.380307 0 -0.161133)
(-0.466806 0 0.129632)
(-0.519516 0 0.323818)
(-0.543837 0 0.425917)
(-0.549974 0 0.459768)
(-0.546691 0 0.453084)
(-0.540002 0 0.427689)
(-0.532914 0 0.396385)
(-0.52604 0 0.363662)
(-0.518509 0 0.328036)
(-0.509091 0 0.28538)
(-0.49747 0 0.233122)
(-0.484999 0 0.173797)
(-0.474083 0 0.115228)
(-0.466425 0 0.0663353)
(-0.462367 0 0.0315527)
(-0.462436 0 0.00862975)
(0.0659062 0 0.294343)
(0.0760806 0 0.304497)
(0.087203 0 0.315222)
(0.100191 0 0.325074)
(0.113704 0 0.332135)
(0.130441 0 0.334341)
(0.147032 0 0.332893)
(0.169012 0 0.33979)
(0.192718 0 0.35872)
(0.225411 0 0.335717)
(0.252014 0 0.108806)
(0.252372 0 -0.440243)
(0.220986 0 -1.18357)
(0.188112 0 -1.83919)
(0.144008 0 -2.19823)
(0.115047 0 -2.36132)
(0.0993711 0 -2.44594)
(0.0948874 0 -2.49701)
(0.0993913 0 -2.52964)
(0.112408 0 -2.55252)
(0.130339 0 -2.56977)
(0.151159 0 -2.58418)
(0.176035 0 -2.59778)
(0.205107 0 -2.60615)
(0.23405 0 -2.59227)
(0.253502 0 -2.52621)
(0.250546 0 -2.38601)
(0.215217 0 -2.17608)
(0.135225 0 -1.88561)
(0.02362 0 -1.53819)
(-0.113629 0 -1.14677)
(-0.258368 0 -0.738381)
(-0.399313 0 -0.338878)
(-0.505046 0 -0.0114885)
(-0.57471 0 0.22947)
(-0.611101 0 0.376368)
(-0.622525 0 0.442908)
(-0.619752 0 0.455339)
(-0.610868 0 0.438859)
(-0.600659 0 0.410691)
(-0.590809 0 0.378925)
(-0.58091 0 0.344406)
(-0.56975 0 0.30412)
(-0.556669 0 0.255321)
(-0.5425 0 0.199155)
(-0.529409 0 0.14163)
(-0.519527 0 0.0908136)
(-0.513429 0 0.0521684)
(-0.510431 0 0.0257937)
(-0.510674 0 0.00756227)
(0.0683926 0 0.288062)
(0.0782798 0 0.297462)
(0.0890119 0 0.30738)
(0.10148 0 0.316336)
(0.11437 0 0.322374)
(0.130219 0 0.323412)
(0.145863 0 0.320485)
(0.166286 0 0.325014)
(0.18817 0 0.340629)
(0.217986 0 0.316758)
(0.243842 0 0.0986702)
(0.247281 0 -0.432368)
(0.227155 0 -1.1665)
(0.196286 0 -1.81174)
(0.150053 0 -2.17374)
(0.117529 0 -2.34503)
(0.0995783 0 -2.4381)
(0.0911236 0 -2.49538)
(0.0906916 0 -2.53366)
(0.0985643 0 -2.56169)
(0.110716 0 -2.58285)
(0.125578 0 -2.60121)
(0.144004 0 -2.61919)
(0.165369 0 -2.63093)
(0.183267 0 -2.6114)
(0.185862 0 -2.52344)
(0.159792 0 -2.35158)
(0.090922 0 -2.09111)
(-0.00797639 0 -1.7508)
(-0.143459 0 -1.36504)
(-0.287025 0 -0.955782)
(-0.427808 0 -0.541028)
(-0.546594 0 -0.175687)
(-0.629065 0 0.106487)
(-0.677131 0 0.297904)
(-0.695261 0 0.402352)
(-0.693826 0 0.440268)
(-0.68292 0 0.437864)
(-0.669168 0 0.416206)
(-0.655639 0 0.387271)
(-0.642618 0 0.354679)
(-0.629049 0 0.316894)
(-0.614051 0 0.271412)
(-0.598013 0 0.218538)
(-0.582704 0 0.162911)
(-0.570309 0 0.111698)
(-0.56202 0 0.0707096)
(-0.557328 0 0.0415055)
(-0.555045 0 0.0215524)
(-0.55525 0 0.0066637)
(0.0703674 0 0.281964)
(0.0799187 0 0.290676)
(0.0902039 0 0.299861)
(0.102077 0 0.308013)
(0.114247 0 0.313146)
(0.129072 0 0.313166)
(0.143569 0 0.308976)
(0.162152 0 0.311501)
(0.181899 0 0.32424)
(0.208327 0 0.299364)
(0.232663 0 0.0881815)
(0.238076 0 -0.428733)
(0.226649 0 -1.15321)
(0.198345 0 -1.78543)
(0.151825 0 -2.14671)
(0.117392 0 -2.32748)
(0.0973446 0 -2.4282)
(0.084916 0 -2.49069)
(0.0794429 0 -2.53418)
(0.0814317 0 -2.56664)
(0.0870067 0 -2.5906)
(0.0947092 0 -2.61207)
(0.105337 0 -2.63326)
(0.115982 0 -2.64511)
(0.119167 0 -2.61361)
(0.101973 0 -2.49696)
(0.0436292 0 -2.28693)
(-0.0496259 0 -1.97305)
(-0.169265 0 -1.5938)
(-0.313028 0 -1.18539)
(-0.457376 0 -0.771114)
(-0.585234 0 -0.373257)
(-0.680048 0 -0.0475842)
(-0.738375 0 0.187638)
(-0.764341 0 0.333389)
(-0.765758 0 0.402993)
(-0.753639 0 0.420536)
(-0.736504 0 0.409709)
(-0.718985 0 0.386319)
(-0.702348 0 0.357178)
(-0.68587 0 0.322651)
(-0.668558 0 0.280839)
(-0.650434 0 0.231586)
(-0.632894 0 0.178511)
(-0.617975 0 0.127987)
(-0.607145 0 0.0859093)
(-0.600494 0 0.0547918)
(-0.596862 0 0.0333179)
(-0.595012 0 0.0180927)
(-0.595057 0 0.00577996)
(0.0718693 0 0.276078)
(0.0810443 0 0.284174)
(0.0908361 0 0.292704)
(0.102056 0 0.300159)
(0.113434 0 0.304522)
(0.127133 0 0.303703)
(0.140336 0 0.298507)
(0.156905 0 0.299408)
(0.174284 0 0.309788)
(0.197223 0 0.283793)
(0.219509 0 0.0778581)
(0.226815 0 -0.428402)
(0.222047 0 -1.1425)
(0.196081 0 -1.76004)
(0.150502 0 -2.11863)
(0.115873 0 -2.30883)
(0.0936658 0 -2.41633)
(0.0776399 0 -2.48304)
(0.067788 0 -2.531)
(0.0639016 0 -2.56695)
(0.0622575 0 -2.59294)
(0.0615594 0 -2.61595)
(0.0622212 0 -2.63806)
(0.0591089 0 -2.64468)
(0.0427619 0 -2.59475)
(-0.00164936 0 -2.44307)
(-0.0931646 0 -2.18686)
(-0.206971 0 -1.83599)
(-0.337069 0 -1.42926)
(-0.478045 0 -1.00562)
(-0.611004 0 -0.598826)
(-0.718131 0 -0.236222)
(-0.788409 0 0.0443815)
(-0.823572 0 0.233413)
(-0.830444 0 0.339854)
(-0.819081 0 0.383456)
(-0.799651 0 0.388457)
(-0.778539 0 0.374037)
(-0.758275 0 0.35045)
(-0.738735 0 0.320413)
(-0.718954 0 0.283018)
(-0.698658 0 0.237961)
(-0.678895 0 0.188098)
(-0.661534 0 0.139127)