/*--------------------------------*- C++ -*----------------------------------*\
  =========                 |
  \\      /  F ield         | OpenFOAM: The Open Source CFD Toolbox
   \\    /   O peration     | Website:  https://openfoam.org
    \\  /    A nd           | Version:  9
     \\/     M anipulation  |
\*---------------------------------------------------------------------------*/
FoamFile
{
    format      ascii;
    class       surfaceVectorField;
    location    "0.15";
    object      Uf;
}
// * * * * * * * * * * * * * * * * * * * * * * * * * * * * * * * * * * * * * //

dimensions      [0 1 -1 0 0 0 0];

internalField   nonuniform List<vector> 
9850
(
(-0.168762 0 0.393962)
(-0.155172 0 0.379779)
(-0.177566 0 0.430193)
(-0.162686 0 0.412946)
(-0.18565 0 0.47233)
(-0.169499 0 0.451687)
(-0.192213 0 0.520573)
(-0.17491 0 0.496153)
(-0.195791 0 0.574426)
(-0.177802 0 0.546237)
(-0.193933 0 0.63421)
(-0.176105 0 0.600496)
(-0.1839 0 0.712516)
(-0.166374 0 0.660468)
(-0.164043 0 0.834633)
(-0.147808 0 0.74984)
(-0.124935 0 0.945347)
(-0.117568 0 0.89397)
(-0.0279561 0 0.782812)
(-0.0376054 0 0.944852)
(0.134233 0 -0.0178775)
(0.0338618 0 0.526444)
(0.297143 0 -1.23642)
(0.391461 0 -0.675764)
(0.0598966 0 -2.08563)
(0.144813 0 -1.74491)
(-0.000686912 0 -2.37531)
(0.02636 0 -2.29292)
(-0.027912 0 -2.42412)
(-0.0183094 0 -2.42107)
(-0.0461612 0 -2.41309)
(-0.0395187 0 -2.41114)
(-0.0591037 0 -2.41932)
(-0.0525313 0 -2.40534)
(-0.0647533 0 -2.44511)
(-0.0622882 0 -2.42711)
(-0.0608558 0 -2.47729)
(-0.0643156 0 -2.46184)
(-0.0462494 0 -2.50603)
(-0.0561706 0 -2.49797)
(-0.0272038 0 -2.5194)
(-0.0399672 0 -2.52355)
(-0.00574182 0 -2.51746)
(-0.020021 0 -2.53136)
(0.0139477 0 -2.5006)
(0.000647255 0 -2.5214)
(0.02839 0 -2.473)
(0.0179841 0 -2.49593)
(0.0359708 0 -2.44146)
(0.0293341 0 -2.46171)
(0.0365593 0 -2.41377)
(0.0341914 0 -2.42688)
(0.030691 0 -2.39356)
(0.032642 0 -2.39957)
(0.0197283 0 -2.36627)
(0.0247326 0 -2.37947)
(0.00814548 0 -2.29491)
(0.00925372 0 -2.34006)
(0.00490173 0 -2.13223)
(-0.0038588 0 -2.2397)
(0.017779 0 -1.81889)
(-0.00604278 0 -2.02672)
(0.100932 0 -1.30242)
(0.0105594 0 -1.6638)
(0.221238 0 -0.691106)
(0.125393 0 -1.07435)
(0.341564 0 -0.157143)
(0.242449 0 -0.484061)
(0.437046 0 0.222911)
(0.351946 0 -0.00148028)
(0.497606 0 0.429616)
(0.432058 0 0.312738)
(0.526976 0 0.496838)
(0.477714 0 0.461089)
(0.536065 0 0.481489)
(0.497203 0 0.490856)
(0.53557 0 0.433356)
(0.501879 0 0.459142)
(0.532282 0 0.382006)
(0.500547 0 0.408509)
(0.529062 0 0.338718)
(0.497967 0 0.36071)
(0.526425 0 0.304329)
(0.495738 0 0.322047)
(0.524027 0 0.276088)
(0.493887 0 0.291366)
(0.521475 0 0.251264)
(0.492022 0 0.265673)
(0.518574 0 0.228217)
(0.489848 0 0.242603)
(0.515303 0 0.206245)
(0.487256 0 0.220895)
(0.511731 0 0.185151)
(0.484287 0 0.20007)
(0.507948 0 0.164865)
(0.480982 0 0.180015)
(0.504021 0 0.145055)
(0.477737 0 0.160653)
(0.472111 0 0.141707)
(-0.149381 0 0.39886)
(-0.137432 0 0.383975)
(-0.15498 0 0.434629)
(-0.142144 0 0.416679)
(-0.159203 0 0.475761)
(-0.145668 0 0.454503)
(-0.161017 0 0.522104)
(-0.147098 0 0.497362)
(-0.158705 0 0.572642)
(-0.145202 0 0.544695)
(-0.149832 0 0.627296)
(-0.137896 0 0.594581)
(-0.131602 0 0.698638)
(-0.121438 0 0.648315)
(-0.100142 0 0.809916)
(-0.0947488 0 0.728866)
(-0.0474338 0 0.894544)
(-0.0593963 0 0.858831)
(0.0569499 0 0.693473)
(0.03783 0 0.875263)
(0.211654 0 -0.114194)
(0.0935469 0 0.423307)
(0.303573 0 -1.15735)
(0.391619 0 -0.737043)
(0.110439 0 -1.93536)
(0.235382 0 -1.61615)
(0.00799462 0 -2.33589)
(0.0516173 0 -2.22463)
(-0.0295983 0 -2.40837)
(-0.0165417 0 -2.396)
(-0.0447754 0 -2.40351)
(-0.0393416 0 -2.40102)
(-0.0552415 0 -2.41324)
(-0.0467815 0 -2.39836)
(-0.0618008 0 -2.44395)
(-0.0555233 0 -2.42274)
(-0.0605154 0 -2.48268)
(-0.0594646 0 -2.4627)
(-0.0490644 0 -2.51827)
(-0.0545406 0 -2.50561)
(-0.0325518 0 -2.53595)
(-0.0420942 0 -2.53702)
(-0.0129725 0 -2.53538)
(-0.0256366 0 -2.54812)
(0.00557567 0 -2.51647)
(-0.0077251 0 -2.53805)
(0.0196396 0 -2.48416)
(0.00772536 0 -2.50917)
(0.0278139 0 -2.44653)
(0.0178654 0 -2.46978)
(0.0300465 0 -2.41208)
(0.0228454 0 -2.4292)
(0.0258139 0 -2.38484)
(0.0223652 0 -2.39497)
(0.0144384 0 -2.35216)
(0.0143978 0 -2.3665)
(-0.00315052 0 -2.28096)
(-0.00412459 0 -2.31903)
(-0.0196985 0 -2.12817)
(-0.0233406 0 -2.21895)
(-0.0121516 0 -1.86089)
(-0.0407235 0 -2.03666)
(0.0467419 0 -1.4184)
(-0.0217961 0 -1.74509)
(0.147787 0 -0.852385)
(0.0714545 0 -1.22066)
(0.255431 0 -0.316817)
(0.170631 0 -0.647552)
(0.347057 0 0.0960041)
(0.27102 0 -0.147458)
(0.411069 0 0.348012)
(0.349755 0 0.205761)
(0.447197 0 0.45611)
(0.399591 0 0.397756)
(0.462781 0 0.468049)
(0.425005 0 0.462199)
(0.466888 0 0.433385)
(0.434649 0 0.451218)
(0.466348 0 0.386362)
(0.436519 0 0.409601)
(0.464744 0 0.343382)
(0.435745 0 0.364115)
(0.463254 0 0.30858)
(0.434599 0 0.325364)
(0.461894 0 0.28052)
(0.433593 0 0.294543)
(0.460376 0 0.256596)
(0.432548 0 0.26939)
(0.458493 0 0.234852)
(0.431201 0 0.247444)
(0.456183 0 0.214268)
(0.429405 0 0.227123)
(0.453489 0 0.194454)
(0.427155 0 0.207686)
(0.450498 0 0.175289)
(0.424484 0 0.188887)
(0.447252 0 0.156758)
(0.421744 0 0.170753)
(0.416797 0 0.154088)
(-0.130471 0 0.401852)
(-0.120119 0 0.386559)
(-0.133133 0 0.436669)
(-0.122298 0 0.418454)
(-0.133904 0 0.476306)
(-0.122877 0 0.455017)
(-0.131666 0 0.520247)
(-0.12087 0 0.49587)
(-0.124596 0 0.567005)
(-0.115001 0 0.539982)
(-0.110356 0 0.616136)
(-0.103433 0 0.585088)
(-0.0866526 0 0.679491)
(-0.0825818 0 0.632513)
(-0.048375 0 0.778795)
(-0.0499158 0 0.703348)
(0.0127726 0 0.840894)
(-0.0141129 0 0.818067)
(0.111828 0 0.60988)
(0.0904377 0 0.809226)
(0.24651 0 -0.187443)
(0.131978 0 0.333519)
(0.285019 0 -1.16699)
(0.37336 0 -0.762715)
(0.209909 0 -1.88012)
(0.352485 0 -1.56608)
(0.0265094 0 -2.28165)
(0.111307 0 -2.10236)
(-0.0269617 0 -2.39004)
(0.000713442 0 -2.36036)
(-0.0398203 0 -2.39583)
(-0.0285933 0 -2.39245)
(-0.0464483 0 -2.40822)
(-0.0343083 0 -2.39394)
(-0.053054 0 -2.44184)
(-0.0417222 0 -2.41833)
(-0.0544609 0 -2.48603)
(-0.0474564 0 -2.46176)
(-0.0473152 0 -2.52797)
(-0.0465581 0 -2.51037)
(-0.0352055 0 -2.54994)
(-0.0395284 0 -2.5469)
(-0.0198485 0 -2.55112)
(-0.0289639 0 -2.56126)
(-0.00471458 0 -2.53079)
(-0.0166424 0 -2.55163)
(0.00670314 0 -2.49476)
(-0.0055371 0 -2.51993)
(0.0132901 0 -2.45248)
(0.000770745 0 -2.47629)
(0.0152115 0 -2.41217)
(0.00253099 0 -2.43119)
(0.0105643 0 -2.37663)
(-0.000825759 0 -2.38992)
(-0.00362719 0 -2.33312)
(-0.0122344 0 -2.35032)
(-0.0285699 0 -2.25275)
(-0.030192 0 -2.2892)
(-0.0620644 0 -2.11967)
(-0.0525574 0 -2.17693)
(-0.0386549 0 -1.90572)
(-0.0745973 0 -2.06746)
(0.0119656 0 -1.52371)
(-0.0331373 0 -1.81496)
(0.0951683 0 -0.99671)
(0.0416933 0 -1.34113)
(0.189895 0 -0.463966)
(0.122398 0 -0.791426)
(0.274304 0 -0.0276801)
(0.209604 0 -0.281937)
(0.33739 0 0.261128)
(0.282757 0 0.100332)
(0.376656 0 0.406071)
(0.332768 0 0.328922)
(0.396544 0 0.445586)
(0.361188 0 0.425629)
(0.404227 0 0.426801)
(0.374156 0 0.436399)
(0.405988 0 0.386553)
(0.378448 0 0.406037)
(0.405693 0 0.345407)
(0.379073 0 0.364742)
(0.405002 0 0.310792)
(0.378673 0 0.326904)
(0.404273 0 0.282989)
(0.37815 0 0.296246)
(0.403367 0 0.259881)
(0.377554 0 0.27161)
(0.402089 0 0.239402)
(0.376694 0 0.250728)
(0.400339 0 0.220276)
(0.375415 0 0.231841)
(0.398108 0 0.201924)
(0.373669 0 0.213993)
(0.395437 0 0.184259)
(0.371458 0 0.196809)
(0.392398 0 0.168168)
(0.369227 0 0.180206)
(0.365743 0 0.164268)
(-0.112178 0 0.403219)
(-0.103355 0 0.387669)
(-0.112272 0 0.436852)
(-0.103302 0 0.418517)
(-0.110075 0 0.474673)
(-0.101339 0 0.453552)
(-0.10449 0 0.515815)
(-0.0964913 0 0.492146)
(-0.0937658 0 0.55843)
(-0.0874674 0 0.532833)
(-0.075694 0 0.602007)
(-0.0727647 0 0.573039)
(-0.0488156 0 0.657476)
(-0.0496165 0 0.614595)
(-0.00906893 0 0.744522)
(-0.0132007 0 0.676849)
(0.0528045 0 0.788167)
(0.0206249 0 0.776818)
(0.142967 0 0.535134)
(0.124743 0 0.749117)
(0.262053 0 -0.24605)
(0.159877 0 0.254128)
(0.316969 0 -1.18386)
(0.341792 0 -0.799325)
(0.362504 0 -1.80841)
(0.430258 0 -1.59643)
(0.0905158 0 -2.18587)
(0.199509 0 -1.92103)
(-0.00156673 0 -2.36309)
(0.0538296 0 -2.29897)
(-0.0221078 0 -2.38998)
(0.0143226 0 -2.37876)
(-0.0285796 0 -2.40423)
(-0.00647384 0 -2.38963)
(-0.0359256 0 -2.43874)
(-0.0175392 0 -2.41344)
(-0.0406224 0 -2.48665)
(-0.0261359 0 -2.45863)
(-0.0392429 0 -2.53357)
(-0.0306901 0 -2.51129)
(-0.033675 0 -2.55915)
(-0.0307884 0 -2.55145)
(-0.0254376 0 -2.56215)
(-0.0284247 0 -2.56831)
(-0.0165717 0 -2.54074)
(-0.0248628 0 -2.55959)
(-0.0106824 0 -2.50135)
(-0.0207478 0 -2.52547)
(-0.00963419 0 -2.45508)
(-0.0208139 0 -2.47732)
(-0.0131231 0 -2.40934)
(-0.0268335 0 -2.42757)
(-0.0227727 0 -2.36425)
(-0.0385023 0 -2.37943)
(-0.0407086 0 -2.30717)
(-0.0555766 0 -2.32987)
(-0.0620472 0 -2.21515)
(-0.0664545 0 -2.26368)
(-0.0901513 0 -2.12317)
(-0.0781104 0 -2.14167)
(-0.0504803 0 -1.97162)
(-0.0706081 0 -2.11966)
(0.00356781 0 -1.62311)
(-0.017867 0 -1.88957)
(0.0700407 0 -1.11968)
(0.0310026 0 -1.43737)
(0.145629 0 -0.593603)
(0.0930969 0 -0.906231)
(0.219101 0 -0.142799)
(0.165258 0 -0.398992)
(0.277517 0 0.174919)
(0.230058 0 0.00270628)
(0.31659 0 0.351699)
(0.277229 0 0.260426)
(0.338385 0 0.417334)
(0.30611 0 0.385552)
(0.348228 0 0.415364)
(0.3207 0 0.417413)
(0.35154 0 0.383572)
(0.326453 0 0.399335)
(0.352113 0 0.345583)
(0.327951 0 0.363526)
(0.351872 0 0.31181)
(0.327947 0 0.327439)
(0.351453 0 0.28441)
(0.327611 0 0.297225)
(0.350874 0 0.262039)
(0.327193 0 0.273028)
(0.349993 0 0.242737)
(0.326601 0 0.252993)
(0.348706 0 0.225074)
(0.325698 0 0.235311)
(0.346993 0 0.208297)
(0.324418 0 0.218838)
(0.344909 0 0.192043)
(0.322719 0 0.202992)
(0.342692 0 0.175357)
(0.32103 0 0.187104)
(0.319293 0 0.1672)
(-0.0946465 0 0.403064)
(-0.0872758 0 0.387451)
(-0.0925224 0 0.435337)
(-0.0852712 0 0.417101)
(-0.0878709 0 0.471178)
(-0.081163 0 0.450451)
(-0.0796612 0 0.50939)
(-0.074057 0 0.486673)
(-0.0663257 0 0.547783)
(-0.0626796 0 0.523943)
(-0.0458023 0 0.586035)
(-0.0457506 0 0.559356)
(-0.0171866 0 0.634422)
(-0.0218614 0 0.595518)
(0.0229799 0 0.7101)
(0.0162321 0 0.650072)
(0.0825637 0 0.739139)
(0.0470703 0 0.737096)
(0.160068 0 0.469451)
(0.144315 0 0.697447)
(0.261374 0 -0.302529)
(0.179442 0 0.186591)
(0.329455 0 -1.22558)
(0.303342 0 -0.844713)
(0.37497 0 -1.74748)
(0.416231 0 -1.62678)
(0.169828 0 -2.07164)
(0.304782 0 -1.78427)
(0.0759197 0 -2.32567)
(0.160093 0 -2.23636)
(0.0273682 0 -2.38021)
(0.100862 0 -2.34639)
(0.00578332 0 -2.39846)
(0.0496166 0 -2.37524)
(-0.00738003 0 -2.4338)
(0.02291 0 -2.40466)
(-0.0172945 0 -2.48381)
(0.00737936 0 -2.45202)
(-0.0235374 0 -2.53361)
(-0.00542058 0 -2.50713)
(-0.0262973 0 -2.56137)
(-0.0145717 0 -2.54919)
(-0.0278481 0 -2.56586)
(-0.022035 0 -2.56698)
(-0.0281531 0 -2.54373)
(-0.0298558 0 -2.55932)
(-0.0300103 0 -2.50032)
(-0.0349453 0 -2.52372)
(-0.0378073 0 -2.44838)
(-0.0419218 0 -2.46962)
(-0.0513512 0 -2.39599)
(-0.0564823 0 -2.41354)
(-0.0688099 0 -2.34247)
(-0.0747096 0 -2.36046)
(-0.0883689 0 -2.28045)
(-0.0908366 0 -2.30757)
(-0.091045 0 -2.18931)
(-0.0953013 0 -2.26048)
(-0.0708315 0 -2.14276)
(-0.0875428 0 -2.16703)
(-0.0240915 0 -2.03048)
(-0.0173794 0 -2.18117)
(0.0106515 0 -1.69146)
(0.0103365 0 -1.93752)
(0.0562163 0 -1.21143)
(0.0259489 0 -1.50335)
(0.115884 0 -0.69917)
(0.0716255 0 -0.996856)
(0.177435 0 -0.243235)
(0.131737 0 -0.497054)
(0.229386 0 0.094925)
(0.187946 0 -0.0841132)
(0.266124 0 0.297752)
(0.230891 0 0.196022)
(0.287972 0 0.386787)
(0.258637 0 0.345377)
(0.298695 0 0.401268)
(0.273554 0 0.39673)
(0.302801 0 0.378685)
(0.279932 0 0.391028)
(0.303801 0 0.344716)
(0.281822 0 0.361404)
(0.303713 0 0.312276)
(0.281915 0 0.327634)
(0.303361 0 0.285357)
(0.281522 0 0.298047)
(0.302907 0 0.263542)
(0.281054 0 0.274139)
(0.302274 0 0.24513)
(0.280509 0 0.254619)
(0.301366 0 0.228622)
(0.279782 0 0.237755)
(0.300147 0 0.213068)
(0.2788 0 0.222284)
(0.298657 0 0.197594)
(0.2775 0 0.20741)
(0.297151 0 0.178531)
(0.276134 0 0.191789)
(0.275058 0 0.168136)
(-0.0780108 0 0.401584)
(-0.0719777 0 0.386073)
(-0.0740049 0 0.432352)
(-0.0683016 0 0.414431)
(-0.0673581 0 0.466122)
(-0.0624107 0 0.44602)
(-0.057142 0 0.501446)
(-0.053543 0 0.479861)
(-0.0420662 0 0.535808)
(-0.0405317 0 0.513893)
(-0.0202668 0 0.569168)
(-0.0221 0 0.544822)
(0.00876244 0 0.611464)
(0.0014909 0 0.576166)
(0.0473798 0 0.677398)
(0.0396211 0 0.624327)
(0.102817 0 0.695639)
(0.0674027 0 0.700138)
(0.168446 0 0.414596)
(0.153384 0 0.653694)
(0.247746 0 -0.354563)
(0.190075 0 0.133724)
(0.30991 0 -1.25811)
(0.265938 0 -0.886155)
(0.364915 0 -1.67658)
(0.353225 0 -1.66345)
(0.3248 0 -1.92197)
(0.393682 0 -1.75753)
(0.200614 0 -2.23146)
(0.292206 0 -2.15357)
(0.117407 0 -2.34393)
(0.207939 0 -2.29092)
(0.0676144 0 -2.38365)
(0.134669 0 -2.34204)
(0.0386939 0 -2.42443)
(0.0869799 0 -2.38538)
(0.0181625 0 -2.47642)
(0.0578798 0 -2.43833)
(0.00163458 0 -2.52728)
(0.0320377 0 -2.49611)
(-0.0113066 0 -2.5552)
(0.0111029 0 -2.53864)
(-0.0244568 0 -2.56022)
(-0.00749448 0 -2.55573)
(-0.0359563 0 -2.53837)
(-0.0278526 0 -2.549)
(-0.0459908 0 -2.49146)
(-0.0435876 0 -2.51427)
(-0.060458 0 -2.43277)
(-0.0563524 0 -2.45533)
(-0.0791907 0 -2.37547)
(-0.0743744 0 -2.39413)
(-0.0955164 0 -2.32288)
(-0.0920999 0 -2.34271)
(-0.103695 0 -2.27322)
(-0.0989056 0 -2.29824)
(-0.112017 0 -2.21858)
(-0.0863452 0 -2.25053)
(-0.0219228 0 -2.20216)
(-0.0635604 0 -2.28005)
(0.023897 0 -2.07884)
(0.0118519 0 -2.24146)
(0.0215596 0 -1.73346)
(0.0180516 0 -1.9343)
(0.0436425 0 -1.27701)
(0.0211134 0 -1.53532)
(0.0911899 0 -0.784582)
(0.0548456 0 -1.06907)
(0.14351 0 -0.329024)
(0.105021 0 -0.580411)
(0.189315 0 0.0232812)
(0.153254 0 -0.160663)
(0.22293 0 0.247094)
(0.191516 0 0.137092)
(0.243775 0 0.356547)
(0.217177 0 0.307046)
(0.254509 0 0.38641)
(0.231496 0 0.376026)
(0.258836 0 0.37312)
(0.237847 0 0.382272)
(0.259914 0 0.343607)
(0.239739 0 0.359117)
(0.259731 0 0.312793)
(0.239684 0 0.328043)
(0.259217 0 0.286356)
(0.239038 0 0.299248)
(0.258644 0 0.264856)
(0.23832 0 0.275546)
(0.257992 0 0.246962)
(0.237607 0 0.256296)
(0.257178 0 0.231197)
(0.236827 0 0.239951)
(0.256148 0 0.216461)
(0.235909 0 0.225198)
(0.254926 0 0.201451)
(0.23481 0 0.211038)
(0.253747 0 0.180995)
(0.233682 0 0.195456)
(0.232909 0 0.169136)
(-0.0623318 0 0.398998)
(-0.0575145 0 0.383699)
(-0.056758 0 0.428206)
(-0.0524286 0 0.410714)
(-0.0485331 0 0.4599)
(-0.0450845 0 0.440537)
(-0.0368368 0 0.492478)
(-0.0348621 0 0.472063)
(-0.0207009 0 0.52317)
(-0.0208023 0 0.503136)
(0.00111848 0 0.552121)
(-0.00148593 0 0.530277)
(0.0297137 0 0.589244)
(0.0211849 0 0.557101)
(0.0659901 0 0.647178)
(0.0582061 0 0.600143)
(0.116162 0 0.657879)
(0.0833275 0 0.666691)
(0.17159 0 0.371674)
(0.156262 0 0.616741)
(0.2275 0 -0.396296)
(0.191487 0 0.096452)
(0.272419 0 -1.29103)
(0.231065 0 -0.916101)
(0.329894 0 -1.72626)
(0.258722 0 -1.70176)
(0.403923 0 -1.91774)
(0.371727 0 -1.80688)
(0.313126 0 -2.15361)
(0.340197 0 -2.09304)
(0.223262 0 -2.28145)
(0.280372 0 -2.23101)
(0.154182 0 -2.34592)
(0.220889 0 -2.29599)
(0.108279 0 -2.40212)
(0.169553 0 -2.35478)
(0.0705255 0 -2.45997)
(0.126112 0 -2.41317)
(0.0381041 0 -2.51275)
(0.0844517 0 -2.4745)
(0.0134772 0 -2.53974)
(0.0495577 0 -2.51854)
(-0.0117707 0 -2.54398)
(0.0181224 0 -2.53412)
(-0.0351981 0 -2.52368)
(-0.0138755 0 -2.52796)
(-0.0532519 0 -2.47645)
(-0.0396857 0 -2.49727)
(-0.0698105 0 -2.41407)
(-0.0596976 0 -2.43897)
(-0.0870324 0 -2.35768)
(-0.077409 0 -2.37628)
(-0.096024 0 -2.31346)
(-0.087618 0 -2.33294)
(-0.07256 0 -2.27868)
(-0.078366 0 -2.325)
(-0.0654609 0 -2.31132)
(-0.0936763 0 -2.25902)
(-0.0099146 0 -2.30571)
(-0.0971143 0 -2.34973)
(0.00325444 0 -2.09709)
(-0.0523222 0 -2.25879)
(0.0162229 0 -1.74415)
(-0.00293517 0 -1.9522)
(0.0351203 0 -1.3229)
(0.0231553 0 -1.56269)
(0.0724723 0 -0.855596)
(0.0465988 0 -1.1258)
(0.116148 0 -0.403061)
(0.0847977 0 -0.649994)
(0.155636 0 -0.0402187)
(0.124775 0 -0.226654)
(0.185445 0 0.20087)
(0.157791 0 0.0848351)
(0.204468 0 0.328067)
(0.180505 0 0.272066)
(0.214519 0 0.372007)
(0.193432 0 0.356637)
(0.218594 0 0.367729)
(0.19919 0 0.374027)
(0.219456 0 0.34285)
(0.200735 0 0.357286)
(0.21898 0 0.313865)
(0.200328 0 0.3291)
(0.218135 0 0.287938)
(0.19929 0 0.301219)
(0.217267 0 0.2666)
(0.198196 0 0.277669)
(0.216414 0 0.24897)
(0.197189 0 0.258485)
(0.215517 0 0.233667)
(0.196235 0 0.242368)
(0.214529 0 0.219484)
(0.195276 0 0.227992)
(0.213485 0 0.204692)
(0.194312 0 0.214132)
(0.212628 0 0.182977)
(0.193496 0 0.198123)
(0.193227 0 0.169339)
(-0.0476349 0 0.395483)
(-0.0439121 0 0.380477)
(-0.0407721 0 0.423131)
(-0.0376515 0 0.406139)
(-0.0313258 0 0.452809)
(-0.029146 0 0.43424)
(-0.0185827 0 0.482832)
(-0.0178936 0 0.463569)
(-0.00177306 0 0.510304)
(-0.00321251 0 0.491929)
(0.0200859 0 0.535415)
(0.0164802 0 0.515705)
(0.0472239 0 0.568223)
(0.0379039 0 0.539009)
(0.0805276 0 0.619781)
(0.0730981 0 0.57794)
(0.124667 0 0.625418)
(0.096004 0 0.637264)
(0.170683 0 0.34068)
(0.156569 0 0.586064)
(0.202429 0 -0.422582)
(0.186124 0 0.075288)
(0.219057 0 -1.32039)
(0.199535 0 -0.927187)
(0.249926 0 -1.78695)
(0.168965 0 -1.72234)
(0.334955 0 -2.00794)
(0.263288 0 -1.86357)
(0.313872 0 -2.18238)
(0.293029 0 -2.07898)
(0.271119 0 -2.2381)
(0.298306 0 -2.2025)
(0.239951 0 -2.29768)
(0.267277 0 -2.27521)
(0.18907 0 -2.36091)
(0.235983 0 -2.32086)
(0.139 0 -2.4268)
(0.196237 0 -2.37978)
(0.0904544 0 -2.48454)
(0.148126 0 -2.44213)
(0.0518247 0 -2.51234)
(0.102574 0 -2.48703)
(0.0146432 0 -2.51635)
(0.0575214 0 -2.5023)
(-0.0189973 0 -2.49846)
(0.016339 0 -2.49776)
(-0.0454202 0 -2.45456)
(-0.015941 0 -2.47239)
(-0.0652183 0 -2.39501)
(-0.0460146 0 -2.41942)
(-0.0796794 0 -2.34768)
(-0.0643452 0 -2.3613)
(-0.0545562 0 -2.32315)
(-0.0463616 0 -2.36024)
(-0.100473 0 -2.28069)
(-0.0526023 0 -2.27265)
(-0.142749 0 -2.31596)
(-0.0784849 0 -2.20846)
(-0.14585 0 -2.34374)
(-0.0927558 0 -2.34584)
(-0.063393 0 -2.14192)
(-0.0942874 0 -2.3673)
(0.0100801 0 -1.77603)
(-0.0444067 0 -2.05362)
(0.0357873 0 -1.35847)
(0.0124917 0 -1.59991)
(0.0614148 0 -0.909407)
(0.0393182 0 -1.16473)
(0.0949927 0 -0.463771)
(0.0681142 0 -0.70349)
(0.127365 0 -0.0943539)
(0.100883 0 -0.280754)
(0.152603 0 0.160407)
(0.128408 0 0.0405916)
(0.169028 0 0.302634)
(0.147479 0 0.241864)
(0.177754 0 0.35909)
(0.158335 0 0.339808)
(0.181136 0 0.363218)
(0.162985 0 0.367185)
(0.181521 0 0.342904)
(0.163856 0 0.35647)
(0.180604 0 0.315829)
(0.162911 0 0.331144)
(0.17933 0 0.290422)
(0.161369 0 0.304195)
(0.178092 0 0.269114)
(0.159807 0 0.280704)
(0.176976 0 0.251493)
(0.158404 0 0.261354)
(0.175954 0 0.236312)
(0.157151 0 0.245123)
(0.175002 0 0.222227)
(0.155986 0 0.230686)
(0.174196 0 0.207018)
(0.154963 0 0.216521)
(0.173809 0 0.183537)
(0.154627 0 0.199329)
(0.155774 0 0.168443)
(-0.0339212 0 0.391194)
(-0.0311776 0 0.376543)
(-0.0260119 0 0.417318)
(-0.0239455 0 0.400866)
(-0.0156323 0 0.445085)
(-0.0145273 0 0.42732)
(-0.00221182 0 0.472761)
(-0.0025071 0 0.454621)
(0.0148547 0 0.497419)
(0.0124903 0 0.480552)
(0.0361305 0 0.519349)
(0.0322421 0 0.50152)
(0.0618208 0 0.548717)
(0.0523184 0 0.521883)
(0.092177 0 0.595374)
(0.085287 0 0.557703)
(0.130397 0 0.59779)
(0.106279 0 0.611784)
(0.168089 0 0.319946)
(0.156571 0 0.560936)
(0.180023 0 -0.430747)
(0.178323 0 0.067332)
(0.163876 0 -1.32936)
(0.17301 0 -0.916422)
(0.157267 0 -1.81687)
(0.100142 0 -1.71794)
(0.231432 0 -2.02055)
(0.159225 0 -1.91301)
(0.285164 0 -2.16998)
(0.21943 0 -2.11481)
(0.295066 0 -2.22993)
(0.260364 0 -2.20911)
(0.257768 0 -2.27909)
(0.264428 0 -2.25035)
(0.244518 0 -2.32741)
(0.266199 0 -2.31202)
(0.204552 0 -2.38471)
(0.246055 0 -2.35314)
(0.154394 0 -2.4422)
(0.208045 0 -2.40869)
(0.105122 0 -2.47199)
(0.162813 0 -2.44683)
(0.056424 0 -2.47882)
(0.109757 0 -2.46062)
(0.0177784 0 -2.46572)
(0.0615173 0 -2.46307)
(-0.0148468 0 -2.42985)
(0.021618 0 -2.44167)
(-0.0437433 0 -2.38335)
(-0.017627 0 -2.39087)
(-0.0151076 0 -2.35663)
(-0.0485869 0 -2.39097)
(-0.0475682 0 -2.30783)
(-0.0216472 0 -2.32496)
(-0.0453685 0 -2.22615)
(-0.0266146 0 -2.27515)
(-0.0331761 0 -2.26156)
(-0.000609213 0 -2.22304)
(-0.0479248 0 -2.34509)
(0.0128777 0 -2.32734)
(-0.085618 0 -2.21686)
(-0.0281558 0 -2.3177)
(-0.0398883 0 -1.85071)
(-0.0396866 0 -2.11674)
(0.019391 0 -1.40101)
(0.0111005 0 -1.68574)
(0.0475539 0 -0.949568)
(0.0413486 0 -1.2075)
(0.0760284 0 -0.511337)
(0.0593806 0 -0.748856)
(0.10251 0 -0.138447)
(0.0827596 0 -0.325011)
(0.123032 0 0.126793)
(0.103293 0 0.00461533)
(0.136314 0 0.281413)
(0.117547 0 0.217438)
(0.143166 0 0.348614)
(0.125426 0 0.326589)
(0.145457 0 0.36024)
(0.128336 0 0.362548)
(0.145121 0 0.344164)
(0.128154 0 0.357183)
(0.143617 0 0.318927)
(0.12647 0 0.33449)
(0.141809 0 0.293986)
(0.124319 0 0.308415)
(0.140084 0 0.272572)
(0.122218 0 0.284929)
(0.138543 0 0.254725)
(0.120349 0 0.265314)
(0.137167 0 0.239347)
(0.118717 0 0.248833)
(0.135939 0 0.224956)
(0.117245 0 0.234158)
(0.135016 0 0.208939)
(0.116012 0 0.219261)
(0.135113 0 0.184216)
(0.116406 0 0.199026)
(0.120886 0 0.157751)
(-0.0211739 0 0.386267)
(-0.0193032 0 0.372012)
(-0.0124224 0 0.410926)
(-0.0112712 0 0.395031)
(-0.00133402 0 0.436912)
(-0.00114288 0 0.419928)
(0.0125601 0 0.462473)
(0.0114434 0 0.445358)
(0.0296175 0 0.484716)
(0.0265518 0 0.469181)
(0.0501594 0 0.504058)
(0.0461951 0 0.487825)
(0.0742671 0 0.530763)
(0.0650073 0 0.505811)
(0.101875 0 0.573876)
(0.0956716 0 0.539298)
(0.134824 0 0.574615)
(0.114973 0 0.589818)
(0.165131 0 0.307361)
(0.157245 0 0.540731)
(0.163182 0 -0.421884)
(0.171504 0 0.068631)
(0.121536 0 -1.31186)
(0.152466 0 -0.888657)
(0.0874129 0 -1.82565)
(0.0538857 0 -1.69519)
(0.149042 0 -2.032)
(0.0828183 0 -1.9541)
(0.198417 0 -2.17053)
(0.143028 0 -2.14772)
(0.23546 0 -2.23809)
(0.189226 0 -2.2338)
(0.264305 0 -2.28579)
(0.231645 0 -2.26958)
(0.269842 0 -2.32569)
(0.261632 0 -2.31572)
(0.249867 0 -2.36589)
(0.266091 0 -2.33982)
(0.210721 0 -2.4092)
(0.248553 0 -2.3826)
(0.162983 0 -2.43296)
(0.213922 0 -2.40788)
(0.112962 0 -2.44214)
(0.163021 0 -2.41782)
(0.0643295 0 -2.43595)
(0.113393 0 -2.41941)
(0.0185364 0 -2.4065)
(0.0665057 0 -2.39855)
(-0.0271988 0 -2.39277)
(0.0379329 0 -2.3457)
(-0.0353795 0 -2.3676)
(0.0153472 0 -2.38249)
(-0.0171025 0 -2.31198)
(0.0159117 0 -2.34483)
(0.0135793 0 -2.26126)
(0.0330052 0 -2.31013)
(0.0535833 0 -2.27195)
(0.0684001 0 -2.27088)
(0.0330677 0 -2.30942)
(0.0843802 0 -2.3016)
(0.00971373 0 -2.22317)
(0.0500694 0 -2.28697)
(0.00797234 0 -1.92105)
(0.0085365 0 -2.11434)
(0.0408932 0 -1.46081)
(0.0248091 0 -1.73341)
(0.0540464 0 -0.986213)
(0.0520373 0 -1.22748)
(0.0679149 0 -0.547987)
(0.0598028 0 -0.770951)
(0.0840308 0 -0.172171)
(0.0707885 0 -0.351943)
(0.0974682 0 0.101244)
(0.0821575 0 -0.0189397)
(0.106085 0 0.26572)
(0.0900512 0 0.201595)
(0.110096 0 0.341655)
(0.0938267 0 0.318852)
(0.110709 0 0.359526)
(0.0942764 0 0.361309)
(0.109327 0 0.347074)
(0.0926403 0 0.360117)
(0.107079 0 0.323429)
(0.0900373 0 0.339495)
(0.10467 0 0.298848)
(0.0872295 0 0.314042)
(0.102432 0 0.277233)
(0.084618 0 0.290409)
(0.100465 0 0.259031)
(0.082351 0 0.270366)
(0.0987715 0 0.243243)
(0.0804492 0 0.253398)
(0.0974244 0 0.227955)
(0.0788661 0 0.237965)
(0.0968895 0 0.208593)
(0.0776934 0 0.220847)
(0.0986964 0 0.171225)
(0.0788231 0 0.193404)
(0.0860483 0 0.13411)
(-0.00936222 0 0.38082)
(-0.00827011 0 0.366988)
(6.02341e-05 0 0.404081)
(0.000416877 0 0.38875)
(0.0116859 0 0.42842)
(0.0110942 0 0.412177)
(0.0258614 0 0.4521)
(0.0241061 0 0.435908)
(0.0428099 0 0.472303)
(0.0392044 0 0.457881)
(0.0626036 0 0.489549)
(0.0586626 0 0.47463)
(0.0852334 0 0.514216)
(0.0764276 0 0.490724)
(0.110456 0 0.554917)
(0.105006 0 0.522482)
(0.139146 0 0.555389)
(0.123002 0 0.570692)
(0.163526 0 0.30092)
(0.159359 0 0.524478)
(0.152691 0 -0.401176)
(0.167935 0 0.0758545)
(0.0932361 0 -1.2773)
(0.138661 0 -0.84902)
(0.0406888 0 -1.82564)
(0.0278748 0 -1.66016)
(0.0838322 0 -2.06235)
(0.0334467 0 -1.98286)
(0.129176 0 -2.2018)
(0.0875197 0 -2.17795)
(0.182741 0 -2.26743)
(0.137588 0 -2.26951)
(0.232477 0 -2.30981)
(0.196644 0 -2.30273)
(0.257904 0 -2.33849)
(0.23966 0 -2.33267)
(0.266857 0 -2.36019)
(0.261811 0 -2.34579)
(0.246467 0 -2.38669)
(0.261797 0 -2.369)
(0.210798 0 -2.39789)
(0.241914 0 -2.37878)
(0.16316 0 -2.40201)
(0.205009 0 -2.37705)
(0.114476 0 -2.39391)
(0.166768 0 -2.37571)
(0.0822071 0 -2.3575)
(0.130571 0 -2.36816)
(0.0825195 0 -2.35395)
(0.120976 0 -2.34601)
(0.0631754 0 -2.36185)
(0.122144 0 -2.36245)
(0.0688903 0 -2.33723)
(0.113895 0 -2.35104)
(0.0853653 0 -2.31007)
(0.120148 0 -2.32892)
(0.109783 0 -2.29461)
(0.133701 0 -2.30008)
(0.0940058 0 -2.27665)
(0.135235 0 -2.28181)
(0.0525268 0 -2.17976)
(0.10143 0 -2.23238)
(0.0186937 0 -1.92888)
(0.0503203 0 -2.06763)
(0.0429467 0 -1.49794)
(0.0365787 0 -1.76852)
(0.0597955 0 -1.00754)
(0.056216 0 -1.25307)
(0.0642011 0 -0.565975)
(0.0599069 0 -0.77797)
(0.0693656 0 -0.190532)
(0.0599712 0 -0.360575)
(0.0743092 0 0.0870593)
(0.0616685 0 -0.0276065)
(0.0770731 0 0.257831)
(0.0624823 0 0.196512)
(0.0773903 0 0.33973)
(0.06157 0 0.31824)
(0.0758025 0 0.362002)
(0.0591938 0 0.364522)
(0.0731192 0 0.352119)
(0.0559401 0 0.365813)
(0.0700578 0 0.329529)
(0.0524002 0 0.346312)
(0.0670951 0 0.305027)
(0.0490143 0 0.320963)
(0.0644691 0 0.283011)
(0.0460238 0 0.296843)
(0.0622534 0 0.264232)
(0.0435152 0 0.276061)
(0.0604648 0 0.247612)
(0.0415066 0 0.25822)
(0.0592706 0 0.230254)
(0.0400183 0 0.241342)
(0.0594219 0 0.204724)
(0.0392416 0 0.220399)
(0.0625973 0 0.154609)
(0.0409234 0 0.183526)
(0.0480193 0 0.112421)
(0.00155085 0 0.37495)
(0.0019453 0 0.361556)
(0.011515 0 0.39688)
(0.0111651 0 0.382107)
(0.0235392 0 0.419697)
(0.0222657 0 0.404161)
(0.0378925 0 0.441703)
(0.0356104 0 0.426339)
(0.0546949 0 0.460188)
(0.0506467 0 0.446679)
(0.0738274 0 0.475738)
(0.0699087 0 0.461876)
(0.095258 0 0.498837)
(0.0869239 0 0.476437)
(0.118676 0 0.537926)
(0.113841 0 0.50687)
(0.144422 0 0.53923)
(0.131187 0 0.553528)
(0.164481 0 0.298556)
(0.163642 0 0.511106)
(0.148109 0 -0.373819)
(0.168824 0 0.0867689)
(0.0783847 0 -1.23455)
(0.132843 0 -0.802537)
(0.014978 0 -1.8184)
(0.0201206 0 -1.61789)
(0.0423367 0 -2.09531)
(0.00742872 0 -2.0011)
(0.0915888 0 -2.24277)
(0.0560564 0 -2.21079)
(0.152193 0 -2.30596)
(0.112365 0 -2.30991)
(0.208243 0 -2.33409)
(0.173236 0 -2.3401)
(0.241708 0 -2.34897)
(0.218036 0 -2.35498)
(0.258994 0 -2.35813)
(0.24372 0 -2.35732)
(0.253876 0 -2.36328)
(0.252813 0 -2.36559)
(0.23546 0 -2.35646)
(0.247326 0 -2.36375)
(0.208899 0 -2.34867)
(0.232229 0 -2.35432)
(0.181195 0 -2.34538)
(0.216323 0 -2.35084)
(0.165755 0 -2.34102)
(0.20323 0 -2.35362)
(0.170157 0 -2.34904)
(0.202039 0 -2.35036)
(0.165528 0 -2.35566)
(0.206557 0 -2.35765)
(0.165292 0 -2.34233)
(0.203735 0 -2.35078)
(0.1664 0 -2.319)
(0.201471 0 -2.33018)
(0.164041 0 -2.28682)
(0.196863 0 -2.29726)
(0.139555 0 -2.23631)
(0.181703 0 -2.25109)
(0.0981012 0 -2.12277)
(0.148011 0 -2.17783)
(0.0645026 0 -1.90372)
(0.10392 0 -2.02126)
(0.053005 0 -1.50943)
(0.0672967 0 -1.75188)
(0.0601262 0 -1.01429)
(0.0628005 0 -1.26388)
(0.0570473 0 -0.564972)
(0.0586183 0 -0.773065)
(0.0526168 0 -0.191038)
(0.047261 0 -0.35317)
(0.049247 0 0.0865364)
(0.0385545 0 -0.0216994)
(0.0461292 0 0.259434)
(0.0319158 0 0.202245)
(0.0426679 0 0.343929)
(0.026212 0 0.324916)
(0.0388718 0 0.368243)
(0.0210829 0 0.372202)
(0.0349555 0 0.35947)
(0.0163839 0 0.374124)
(0.0312083 0 0.337099)
(0.012099 0 0.354653)
(0.0278517 0 0.312181)
(0.00833749 0 0.3288)
(0.0250034 0 0.289394)
(0.00515555 0 0.303819)
(0.0226966 0 0.269645)
(0.0025651 0 0.281988)
(0.0209558 0 0.251607)
(0.000566393 0 0.262911)
(0.0200121 0 0.231111)
(-0.00075031 0 0.24401)
(0.020689 0 0.198507)
(-0.000997687 0 0.218391)
(0.0241523 0 0.139759)
(0.00122308 0 0.172751)
(0.00697015 0 0.0962114)
(0.0116007 0 0.368736)
(0.011369 0 0.355789)
(0.0219952 0 0.389406)
(0.0210204 0 0.375178)
(0.0343277 0 0.410813)
(0.0324458 0 0.395939)
(0.0488023 0 0.431311)
(0.0460592 0 0.41669)
(0.065479 0 0.448329)
(0.0610326 0 0.435561)
(0.0841157 0 0.462486)
(0.0801349 0 0.449452)
(0.104722 0 0.484311)
(0.0967265 0 0.462699)
(0.127053 0 0.522189)
(0.12248 0 0.491983)
(0.151273 0 0.524941)
(0.14002 0 0.537382)
(0.169048 0 0.298622)
(0.170312 0 0.499256)
(0.150469 0 -0.343145)
(0.174708 0 0.0991543)
(0.0769001 0 -1.1878)
(0.135989 0 -0.753491)
(0.00826911 0 -1.80332)
(0.0276111 0 -1.57213)
(0.0232884 0 -2.12015)
(0.000800389 0 -2.01111)
(0.0748018 0 -2.28127)
(0.0433197 0 -2.24513)
(0.134369 0 -2.34586)
(0.0972175 0 -2.34962)
(0.186352 0 -2.36262)
(0.147405 0 -2.37476)
(0.218603 0 -2.36434)
(0.185504 0 -2.37648)
(0.239283 0 -2.36396)
(0.211851 0 -2.3711)
(0.244969 0 -2.36052)
(0.227962 0 -2.36938)
(0.243346 0 -2.35097)
(0.235505 0 -2.36243)
(0.240974 0 -2.34374)
(0.24034 0 -2.35229)
(0.238184 0 -2.34559)
(0.246414 0 -2.34833)
(0.237085 0 -2.3511)
(0.252228 0 -2.35259)
(0.243044 0 -2.35568)
(0.258511 0 -2.35624)
(0.242762 0 -2.35348)
(0.263278 0 -2.35736)
(0.238938 0 -2.33771)
(0.262586 0 -2.34663)
(0.231202 0 -2.30747)
(0.257805 0 -2.32136)
(0.21548 0 -2.26052)
(0.246737 0 -2.27846)
(0.186045 0 -2.19195)
(0.225047 0 -2.21417)
(0.147371 0 -2.07286)
(0.190363 0 -2.12694)
(0.111375 0 -1.86298)
(0.150955 0 -1.97157)
(0.07638 0 -1.49341)
(0.10448 0 -1.7012)
(0.066198 0 -1.00762)
(0.0787741 0 -1.24842)
(0.0494735 0 -0.549178)
(0.0586075 0 -0.746419)
(0.0328804 0 -0.17539)
(0.0311961 0 -0.32544)
(0.0203261 0 0.0992945)
(0.0106393 0 0.000309178)
(0.0110497 0 0.270415)
(-0.00374613 0 0.219304)
(0.00392002 0 0.354094)
(-0.0140948 0 0.338669)
(-0.00187947 0 0.377964)
(-0.0216552 0 0.383937)
(-0.00675473 0 0.368719)
(-0.0274425 0 0.384472)
(-0.0109196 0 0.345664)
(-0.0321146 0 0.363926)
(-0.0144425 0 0.319816)
(-0.0359555 0 0.337028)
(-0.0173396 0 0.29591)
(-0.0391069 0 0.310917)
(-0.0196192 0 0.274854)
(-0.0416286 0 0.287846)
(-0.0212326 0 0.254946)
(-0.0435215 0 0.267261)
(-0.02186 0 0.230779)
(-0.0445998 0 0.245784)
(-0.0206983 0 0.191662)
(-0.0442458 0 0.214945)
(-0.0172221 0 0.127491)
(-0.0412785 0 0.161935)
(-0.0362835 0 0.083793)
(0.0208238 0 0.362248)
(0.0200282 0 0.349752)
(0.031563 0 0.38172)