/*--------------------------------*- C++ -*----------------------------------*\
  =========                 |
  \\      /  F ield         | OpenFOAM: The Open Source CFD Toolbox
   \\    /   O peration     | Website:  https://openfoam.org
    \\  /    A nd           | Version:  9
     \\/     M anipulation  |
\*---------------------------------------------------------------------------*/
FoamFile
{
    format      ascii;
    class       volScalarField;
    location    "0.07";
    object      alpha.water;
}
// * * * * * * * * * * * * * * * * * * * * * * * * * * * * * * * * * * * * * //

dimensions      [0 0 0 0 0 0 0];

internalField   nonuniform List<scalar> 
5000
(
4.39284e-319
4.19659e-319
4.00905e-319
3.8298e-319
3.65846e-319
3.49482e-319
3.3384e-319
6.37809e-319
1.30997e-317
1.91789e-316
2.8838e-315
4.49644e-314
7.26289e-313
1.21421e-311
2.0989e-310
3.74735e-309
6.9018e-308
1.30965e-306
2.55721e-305
5.13257e-304
1.05788e-302
2.23501e-301
4.80865e-300
1.02987e-298
2.07253e-297
3.64767e-296
5.78661e-295
9.44446e-294
1.69271e-292
3.47867e-291
1.37312e-287
9.91087e-287
1.18784e-286
3.98438e-285
1.75479e-283
5.07511e-281
2.6803e-280
3.05897e-280
1.16642e-278
4.75553e-277
3.63909e-275
5.7274e-277
6.61379e-276
2.08454e-274
6.10551e-273
1.74285e-271
7.8246e-273
1.19502e-271
4.43141e-270
1.62569e-268
4.39284e-319
4.19659e-319
4.00885e-319
3.8296e-319
3.65826e-319
3.49463e-319
6.67641e-319
7.65309e-318
9.99136e-317
1.39329e-315
2.01725e-314
3.0231e-313
4.68441e-312
7.49745e-311
1.23799e-309
2.10619e-308
3.68667e-307
6.6297e-306
1.22319e-304
2.31295e-303
4.47832e-302
8.85981e-301
1.77572e-299
3.50373e-298
6.3793e-297
9.99035e-296
1.38885e-294
1.98933e-293
3.57812e-292
9.99095e-291
2.8915e-287
3.11152e-286
5.36177e-286
1.23822e-284
3.67329e-283
1.80336e-280
1.36563e-279
2.82304e-279
7.76452e-278
2.34595e-276
1.09982e-274
6.04356e-276
7.00215e-275
1.87833e-273
4.69091e-272
1.19102e-270
5.28236e-272
6.08052e-271
1.88941e-269
5.58782e-268
4.39313e-319
4.19679e-319
4.00905e-319
3.8298e-319
3.65846e-319
3.49463e-319
2.33677e-318
3.09317e-317
3.95695e-316
5.34178e-315
7.45895e-314
1.07646e-312
1.60395e-311
2.46463e-310
3.90041e-309
6.348e-308
1.06083e-306
1.81728e-305
3.18621e-304
5.70878e-303
1.0435e-301
1.93916e-300
3.62508e-299
6.61297e-298
1.10433e-296
1.57693e-295
1.97446e-294
2.51451e-293
5.03297e-292
1.60049e-290
3.4829e-287
5.53681e-286
1.39399e-285
2.64365e-284
7.27189e-283
4.4878e-280
4.77737e-279
1.33673e-278
2.96345e-277
7.36418e-276
2.37432e-274
3.69577e-275
3.75843e-274
8.73753e-273
1.91413e-271
4.26103e-270
1.97835e-271
1.8369e-270
4.98169e-269
1.243e-267
4.39382e-319
4.19738e-319
4.00964e-319
3.83039e-319
3.65895e-319
6.99024e-319
7.34506e-318
8.83409e-317
1.10526e-315
1.43995e-314
1.94004e-313
2.69963e-312
3.87517e-311
5.73039e-310
8.71651e-309
1.36164e-307
2.18063e-306
3.57348e-305
5.98075e-304
1.02024e-302
1.76955e-301
3.10642e-300
5.45517e-299
9.29652e-298
1.4479e-296
1.93487e-295
2.25774e-294
2.69796e-293
5.65813e-292
1.90746e-290
3.24311e-287
7.30837e-286
2.61372e-285
4.40502e-284
1.34021e-282
9.58444e-280
1.27603e-278
4.52085e-278
8.55256e-277
1.86889e-275
4.60252e-274
1.59284e-274
1.38822e-273
2.84954e-272
5.55233e-271
1.078e-269
5.42161e-271
4.34664e-270
1.06544e-268
2.36599e-267
4.39501e-319
4.19847e-319
4.01073e-319
3.83128e-319
3.65984e-319
1.39838e-318
1.7699e-317
2.08302e-316
2.50719e-315
3.13355e-314
4.05577e-313
5.42693e-312
7.49483e-311
1.06646e-309
1.56064e-308
2.34422e-307
3.60695e-306
5.67266e-305
9.09813e-304
1.48445e-302
2.45628e-301
4.09966e-300
6.81673e-299
1.0965e-297
1.61606e-296
2.06299e-295
2.3053e-294
2.63901e-293
5.52406e-292
1.90709e-290
2.43126e-287
7.97177e-286
3.91537e-285
6.20199e-284
2.24456e-282
1.76831e-279
2.74568e-278
1.1957e-277
2.05067e-276
4.11291e-275
8.55105e-274
5.38318e-274
4.03076e-273
7.38276e-272
1.29388e-270
2.18776e-269
1.2146e-270
8.95148e-270
2.03559e-268
4.19157e-267
4.39679e-319
4.20015e-319
4.01221e-319
3.83276e-319
3.66122e-319
4.5464e-318
4.3762e-317
4.80568e-316
5.39985e-315
6.32262e-314
7.70682e-313
9.75923e-312
1.28092e-310
1.73826e-309
2.43256e-308
3.50105e-307
5.16802e-306
7.80231e-305
1.20126e-303
1.88025e-302
2.98041e-301
4.75444e-300
7.53472e-299
1.15394e-297
1.62832e-296
2.01692e-295
2.20283e-294
2.41741e-293
4.93695e-292
1.70918e-290
1.5903e-287
7.70004e-286
4.97153e-285
8.16419e-284
3.45034e-282
2.84359e-279
4.94334e-278
2.58671e-277
4.26465e-276
8.1805e-275
1.54261e-273
1.53352e-273
9.95191e-273
1.63376e-271
2.5957e-270
3.82034e-269
2.36935e-270
1.69639e-269
3.64295e-268
7.1376e-267
4.39916e-319
4.20242e-319
4.01438e-319
3.83474e-319
1.4652e-318
1.60951e-317
1.44384e-316
1.40663e-315
1.41907e-314
1.49459e-313
1.64469e-312
1.89126e-311
2.27089e-310
2.84245e-309
3.69953e-308
4.99061e-307
6.95177e-306
9.95915e-305
1.46116e-303
2.18562e-302
3.31566e-301
5.063e-300
7.67786e-299
1.12712e-297
1.53742e-296
1.87049e-295
2.02828e-294
2.14559e-293
4.18919e-292
1.42668e-290
1.16665e-287
6.81775e-286
5.53245e-285
1.0189e-283
4.9548e-282
4.04806e-279
7.70838e-278
4.79373e-277
7.82899e-276
1.49394e-274
2.7015e-273
3.84585e-273
2.19813e-272
3.2397e-271
4.68772e-270
6.00208e-269
4.21876e-270
3.08343e-269
6.30209e-268
1.18635e-266
4.40232e-319
4.20529e-319
4.01715e-319
7.67442e-319
8.79684e-318
7.63246e-317
6.61159e-316
5.92312e-315
5.46772e-314
5.21141e-313
5.13648e-312
5.24497e-311
5.56013e-310
6.13157e-309
7.04546e-308
8.44175e-307
1.05422e-305
1.36938e-304
1.84358e-303
2.55935e-302
3.63918e-301
5.25082e-300
7.57695e-299
1.06751e-297
1.41753e-296
1.71379e-295
1.88114e-294
2.01386e-293
3.53095e-292
1.18341e-290
9.47276e-288
5.78608e-286
5.56631e-285
1.21222e-283
6.75189e-282
5.19448e-279
1.06987e-277
7.75655e-277
1.28236e-275
2.5222e-274
4.5783e-273
8.70255e-273
4.48226e-272
5.94302e-271
7.85444e-270
8.74711e-269
7.1206e-270
5.54526e-269
1.07869e-267
1.94406e-266
4.40628e-319
4.20895e-319
8.04082e-319
6.52853e-318
5.09881e-317
4.20454e-316
3.54518e-315
3.06679e-314
2.72064e-313
2.47444e-312
2.30667e-311
2.20365e-310
2.15777e-309
2.16656e-308
2.23265e-307
2.36453e-306
2.57834e-305
2.90105e-304
3.37566e-303
4.06882e-302
5.08083e-301
6.55326e-300
8.65546e-299
1.15031e-297
1.4965e-296
1.85106e-295
2.15813e-294
2.48512e-293
3.73317e-292
1.34087e-290
8.17208e-288
4.97233e-286
5.34385e-285
1.39311e-283
8.88049e-282
6.12068e-279
1.3838e-277
1.12255e-276
1.89865e-275
3.95968e-274
7.4996e-273
1.80219e-272
8.59162e-272
1.02939e-270
1.24631e-269
1.2085e-268
1.17403e-269
9.9863e-269
1.84089e-267
3.16179e-266
4.41082e-319
8.42639e-319
4.82923e-318
3.69018e-317
2.92623e-316
2.37697e-315
1.97911e-314
1.69081e-313
1.48143e-312
1.33025e-311
1.22326e-310
1.15102e-309
1.10722e-308
1.08783e-307
1.09046e-306
1.11402e-305
1.15844e-304
1.22463e-303
1.31457e-302
1.43175e-301
1.58254e-300
1.77888e-299
2.04282e-298
2.40986e-297
2.92185e-296
3.59927e-295
4.42682e-294
5.48596e-293
7.62929e-292
2.31262e-290
7.38429e-288
4.4583e-286
5.14135e-285
1.5858e-283
1.14956e-281
6.75547e-279
1.68604e-277
1.49907e-276
2.60953e-275
5.86499e-274
1.18832e-272
3.44913e-272
1.56242e-271
1.70469e-270
1.89895e-269
1.60821e-268
1.93292e-269
1.80162e-268
3.1383e-267
5.11826e-266
4.41616e-319
3.79629e-318
2.8202e-317
2.16262e-316
1.69398e-315
1.3672e-314
1.13503e-313
9.69218e-313
8.50978e-312
7.6791e-311
7.11814e-310
6.77331e-309
6.6107e-308
6.61034e-307
6.76217e-306
7.06268e-305
7.51139e-304
8.10629e-303
8.83741e-302
9.67834e-301
1.05772e-299
1.14524e-298
1.22049e-297
1.27659e-296
1.31885e-295
1.37289e-294
1.47988e-293
1.69206e-292
2.15649e-291
4.39922e-290
7.07221e-288
4.29488e-286
5.16879e-285
1.85056e-283
1.49393e-281
7.13043e-279
1.95689e-277
1.8656e-276
3.36492e-275
8.29693e-274
1.82128e-272
6.15603e-272
2.70692e-271
2.71799e-270
2.80329e-269
2.08548e-268
3.21612e-269
3.24568e-268
5.33834e-267
8.23267e-266
2.65327e-318
2.32295e-317
1.69422e-316
1.28987e-315
1.01075e-314
8.17533e-314
6.82384e-313
5.8772e-312
5.22211e-311
4.78534e-310
4.52001e-309
4.39719e-308
4.40057e-307
4.52292e-306
4.76347e-305
5.1253e-304
5.61198e-303
6.22239e-302
6.94276e-301
7.7349e-300
8.52167e-299
9.1739e-298
9.51209e-297
9.3489e-296
8.60186e-295
7.44542e-294
6.3277e-293
5.71497e-292
5.90524e-291
8.25248e-290
7.48777e-288
4.57827e-286
5.68722e-285
2.29464e-283
1.98397e-281
7.41957e-279
2.22571e-277
2.23031e-276
4.164e-275
1.13454e-273
2.70609e-272
1.03308e-271
4.47794e-271
4.18736e-270
4.02737e-269
2.6578e-268
5.40935e-269
5.79114e-268
9.00748e-267
1.30905e-265
1.9043e-317
1.42534e-316
1.05021e-315
7.99882e-315
6.30035e-314
5.13442e-313
4.32869e-312
3.77458e-311
3.40291e-310
3.16964e-309
3.0473e-308
3.0197e-307
3.07862e-306
3.22148e-305
3.44954e-304
3.76579e-303
4.17214e-302
4.66488e-301
5.22791e-300
5.82301e-299
6.37841e-298
6.77995e-297
6.87594e-296
6.51592e-295
5.64151e-294
4.39868e-293
3.13977e-292
2.2087e-291
1.71615e-290
1.67693e-289
9.41888e-288
5.52903e-286
7.14388e-285
3.10494e-283
2.72996e-281
7.89854e-279
2.55176e-277
2.64325e-276
5.08489e-275
1.52293e-273
3.91252e-272
1.64371e-271
7.09252e-271
6.25167e-270
5.6493e-269
3.34928e-268
9.11983e-269
1.01357e-267
1.49518e-266
2.04642e-265
1.28188e-316
9.28077e-316
6.86051e-315
5.2539e-314
4.16935e-313
3.42764e-312
2.91798e-311
2.57077e-310
2.34187e-309
2.20331e-308
2.13773e-307
2.13495e-306
2.1897e-305
2.30013e-304
2.46638e-303
2.68903e-302
2.96696e-301
3.29412e-300
3.65482e-299
4.01762e-298
4.32901e-297
4.51024e-296
4.46496e-295
4.10862e-294
3.42582e-293
2.52953e-292
1.64713e-291
9.87024e-291
6.08067e-290
4.65932e-289
1.51543e-287
7.67513e-286
1.04577e-284
4.62448e-283
3.92273e-281
8.95346e-279
3.0363e-277
3.20145e-276
6.30224e-275
2.03775e-273
5.52764e-272
2.50037e-271
1.08012e-270
9.07834e-270
7.77359e-269
4.19299e-268
1.52411e-268
1.72787e-267
2.42785e-266
3.13905e-265
9.61444e-316
6.9621e-315
5.18723e-314
4.00623e-313
3.20591e-312
2.65633e-311
2.27702e-310
2.0173e-309
1.84486e-308
1.73907e-307
1.68688e-306
1.6803e-305
1.71474e-304
1.78779e-303
1.89813e-302
2.04434e-301
2.22327e-300
2.42788e-299
2.64423e-298
2.84799e-297
3.00156e-296
3.05409e-295
2.94902e-294
2.64438e-293
2.14603e-292
1.53591e-291
9.5538e-291
5.26682e-290
2.80772e-289
1.77643e-288
3.37847e-287
1.24272e-285
1.8221e-284
7.48895e-283
5.87852e-281
1.10628e-278
3.79276e-277
4.05259e-276
8.10935e-275
2.7508e-273
7.66077e-272
3.66467e-271
1.58953e-270
1.28683e-269
1.05264e-268
5.23168e-268
2.50145e-268
2.85823e-267
3.8456e-266
4.72556e-265
1.03965e-314
7.58226e-314
5.68755e-313
4.41468e-312
3.54343e-311
2.93843e-310
2.51504e-309
2.21939e-308
2.01668e-307
1.88423e-306
1.8072e-305
1.77592e-304
1.78408e-303
1.82747e-302
1.90281e-301
2.00657e-300
2.13362e-299
2.2754e-298
2.41783e-297
2.53911e-296
2.60854e-295
2.58802e-294
2.43927e-293
2.13937e-292
1.70302e-291
1.19838e-290
7.3118e-290
3.89239e-289
1.92718e-288
1.05761e-287
1.21665e-286
2.38663e-285
3.66586e-284
1.28251e-282
9.07759e-281
1.48478e-278
4.96439e-277
5.40536e-276
1.09378e-274
3.76821e-273
1.04468e-271
5.20965e-271
2.27175e-270
1.78634e-269
1.40603e-268
6.51914e-268
4.00722e-268
4.58099e-267
5.93301e-266
6.97211e-265
1.9412e-313
1.40554e-312
1.04524e-311
8.02741e-311
6.3628e-310
5.20079e-309
4.3795e-308
3.79541e-307
3.38108e-306
3.09192e-305
2.89799e-304
2.77891e-303
2.72042e-302
2.71205e-301
2.74521e-300
2.81151e-299
2.90101e-298
3.00038e-297
3.09097e-296
3.14739e-295
3.13731e-294
3.0245e-293
2.77695e-292
2.38177e-291
1.86418e-290
1.29832e-289
7.88873e-289
4.18334e-288
2.03429e-287
1.03596e-286
7.88188e-286
5.7192e-285
7.99882e-284
2.24714e-282
1.41703e-280
2.10542e-278
6.71783e-277
7.53192e-276
1.53614e-274
5.22941e-273
1.40471e-271
7.22225e-271
3.16718e-270
2.43553e-269
1.85589e-268
8.12145e-268
6.24713e-268
7.11677e-267
8.9204e-266
1.00896e-264
6.83501e-312
4.84421e-311
3.52374e-310
2.64436e-309
2.04605e-308
1.63093e-307
1.33802e-306
1.1286e-305
9.77568e-305
8.68348e-304
7.8977e-303
7.34143e-302
6.96015e-301
6.71342e-300
6.56898e-299
6.49821e-298
6.47231e-297
6.45913e-296
6.42052e-295
6.31119e-294
6.08017e-293
5.67703e-292
5.06507e-291
4.24235e-290
3.26561e-289
2.26703e-288
1.37824e-287
7.35671e-287
3.61015e-286
1.77382e-285
9.85108e-285
2.20652e-284
1.82789e-283
4.39278e-282
2.18954e-280
3.04e-278
9.22212e-277
1.07514e-275
2.20634e-274
7.29787e-273
1.86495e-271
9.8063e-271
4.3234e-270
3.26935e-269
2.42425e-268
1.01186e-267
9.47492e-268
1.07385e-266
1.30968e-265
1.43496e-264
4.96249e-310
3.42468e-309
2.42502e-308
1.77042e-307
1.33184e-306
1.03152e-305
8.21738e-305
6.72562e-304
5.64853e-303
4.86109e-302
4.27984e-301
3.84784e-300
3.52516e-299
3.28281e-298
3.09873e-297
2.95491e-296
2.83553e-295
2.72545e-294
2.60944e-293
2.47195e-292
2.29787e-291
2.07465e-290
1.79605e-289
1.46729e-288
1.11138e-287
7.66774e-287
4.67309e-286
2.53646e-285
1.26929e-284
6.11438e-284
2.68028e-283
2.89305e-283
4.4602e-283
9.24926e-282
3.67145e-280
4.3315e-278
1.2623e-276
1.53943e-275
3.17664e-274
1.01461e-272
2.44683e-271
1.30882e-270
5.79706e-270
4.32978e-269
3.13748e-268
1.26073e-267
1.40045e-267
1.57876e-266
1.88301e-265
2.01021e-264
4.60582e-308
3.09432e-307
2.13268e-306
1.5147e-305
1.10794e-304
8.3392e-304
6.4523e-303
5.1261e-302
4.17623e-301
3.484e-300
2.97137e-299
2.58589e-298
2.29146e-297
2.06253e-296
1.8804e-295
1.73081e-294
1.60229e-293
1.48521e-292
1.37116e-291
1.25281e-290
1.12419e-289
9.81419e-289
8.23893e-288
6.5574e-287
4.88116e-286
3.32646e-285
2.03053e-284
1.12256e-283
5.71735e-283
2.69681e-282
9.86896e-282
8.88364e-282
2.04707e-282
1.96585e-281
6.77988e-280
5.99321e-278
1.70482e-276
2.17861e-275
4.51798e-274
1.39452e-272
3.17515e-271
1.72283e-270
7.65856e-270
5.66847e-269
4.02766e-268
1.57049e-267
2.02356e-267
2.27054e-266
2.66042e-265
2.78087e-264
3.86232e-306
2.52726e-305
1.69642e-304
1.17295e-303
8.34887e-303
6.11242e-302
4.59819e-301
3.55011e-300
2.80934e-299
2.27528e-298
1.88283e-297
1.58896e-296
1.3646e-295
1.18968e-294
1.04994e-293
9.35003e-293
8.37046e-292
7.50047e-291
6.69292e-290
5.91164e-289
5.13128e-288
4.33886e-287
3.53627e-286
2.7429e-285
2.00075e-284
1.34549e-283
8.21285e-283
4.60159e-282
2.36499e-281
1.08255e-280
3.43367e-280
2.9215e-280
4.56778e-281
5.31817e-281
1.27718e-279
8.21483e-278
2.27291e-276
3.03245e-275
6.3094e-274
1.88748e-272
4.08026e-271
2.244e-270
1.00017e-269
7.35162e-269
5.13468e-268
1.95565e-267
2.86989e-267
3.20888e-266
3.7085e-265
3.81034e-264
2.72426e-304
1.73733e-303
1.13669e-302
7.65838e-302
5.31014e-301
3.78596e-300
2.77263e-299
2.08323e-298
1.60373e-297
1.26306e-296
1.01599e-295
8.33088e-295
6.9486e-294
5.88088e-293
5.03632e-292
4.35031e-291
3.77631e-290
3.28028e-289
2.83731e-288
2.42964e-287
2.04573e-286
1.67989e-285
1.33232e-284
1.00883e-283
7.20759e-283
4.78414e-282
2.9235e-281
1.64404e-280
8.44428e-280
3.71776e-279
1.05215e-278
8.7879e-279
1.60395e-279
7.16143e-280
5.04848e-279
1.62961e-277
3.11596e-276
4.17461e-275
8.6763e-274
2.51694e-272
5.20181e-271
2.90178e-270
1.29603e-269
9.46816e-269
6.50966e-268
2.43447e-267
4.01307e-267
4.47766e-266
5.12241e-265
5.19183e-264
1.62804e-302
1.01255e-301
6.46211e-301
4.24616e-300
2.87083e-299
1.99539e-298
1.42429e-297
1.04279e-296
7.82048e-296
5.99868e-295
4.69812e-294
3.74978e-293
3.04341e-292
2.50567e-291
2.08684e-290
1.75257e-289
1.47881e-288
1.24852e-287
1.04963e-286
8.73811e-286
7.15673e-285
5.72268e-284
4.42743e-283
3.27952e-282
2.29899e-281
1.50805e-280
9.17672e-280
5.14956e-279
2.61769e-278
1.10217e-277
2.85389e-277
2.39409e-277
5.3658e-278
2.64218e-278
1.14314e-277
1.78833e-276
6.60608e-276
5.77926e-275
1.18676e-273
3.32109e-272
6.59571e-271
3.73735e-270
1.6731e-269
1.2141e-268
8.21955e-268
3.03041e-267
5.55841e-267
6.19683e-266
7.03869e-265
7.05612e-264
8.38435e-301
5.08578e-300
3.16633e-299
2.02943e-298
1.33826e-297
9.07127e-297
6.31392e-296
4.50721e-295
3.29539e-294
2.46399e-293
1.8809e-292
1.46303e-291
1.15709e-290
9.28212e-290
7.53171e-289
6.16236e-288
5.06592e-287
4.16734e-286
3.41446e-285
2.77145e-284
2.21465e-283
1.72964e-282
1.30915e-281
9.50996e-281
6.56023e-280
4.25297e-279
2.56838e-278
1.4309e-277
7.14526e-277
2.87327e-276
6.95071e-276
5.96018e-276
1.64464e-276
9.66455e-277
3.71826e-276
4.44407e-275
5.94333e-275
8.49119e-275
1.63733e-273
4.36483e-272
8.33922e-271
4.80772e-270
2.16038e-269
1.55407e-268
1.03532e-267
3.77434e-267
7.66063e-267
8.53997e-266
9.65577e-265
9.58934e-264
3.78307e-299
2.23759e-298
1.35871e-297
8.49311e-297
5.46191e-296
3.61061e-295
2.45085e-294
1.70622e-293
1.21661e-292
8.87191e-292
6.6054e-291
5.01159e-290
3.86651e-289
3.0261e-288
2.39599e-287
1.91333e-286
1.53558e-285
1.23368e-284
9.87643e-284
7.83778e-283
6.12859e-282
4.68889e-281
3.48191e-280
2.48666e-279
1.6909e-278
1.08378e-277
6.48402e-277
3.57133e-276
1.74314e-275
6.70535e-275
1.54094e-274
1.36902e-274
4.62772e-275
3.1907e-275
1.13476e-274
1.10593e-273
1.06401e-273
1.89824e-274
2.30961e-273
5.75267e-272
1.05352e-270
6.18897e-270
2.7995e-269
1.99099e-268
1.3029e-267
4.70787e-267
1.05513e-266
1.17608e-265
1.3264e-264
1.30659e-263
1.52439e-297
8.78603e-297
5.20001e-296
3.16815e-295
1.98594e-294
1.27974e-293
8.46892e-293
5.74881e-292
3.99764e-291
2.84358e-290
2.06562e-289
1.5295e-288
1.15201e-287
8.80528e-287
6.81161e-286
5.31694e-285
4.17339e-284
3.28121e-283
2.57251e-282
2.00097e-281
1.53507e-280
1.15364e-279
8.4272e-279
5.9307e-278
3.982e-277
2.52474e-276
1.49477e-275
8.1168e-275
3.86274e-274
1.42624e-273
3.15452e-273
2.93132e-273
1.20674e-273
9.6039e-274
3.20317e-273
2.5716e-272
1.96016e-272
1.46932e-273
3.39311e-273
7.63909e-272
1.33201e-270
7.97919e-270
3.64749e-269
2.55717e-268
1.64017e-267
5.88822e-267
1.45818e-266
1.62444e-265
1.82749e-264
1.789e-263
5.58209e-296
3.13208e-295
1.80513e-294
1.07102e-293
6.53881e-293
4.10461e-292
2.64664e-291
1.75097e-290
1.18707e-289
8.23509e-289
5.83665e-288
4.2187e-287
3.10333e-286
2.31799e-285
1.75345e-284
1.33934e-283
1.02954e-282
7.93382e-282
6.10254e-281
4.66172e-280
3.51627e-279
2.60151e-278
1.87346e-277
1.30178e-276
8.64271e-276
5.42377e-275
3.17576e-274
1.69756e-273
7.87289e-273
2.80264e-272
6.03149e-272
5.90798e-272
2.94184e-272
2.65526e-272
8.37319e-272
5.57931e-271
3.45268e-271
2.23152e-272
5.91152e-273
1.02326e-271
1.68633e-270
1.02981e-269
4.77833e-269
3.29427e-268
2.06728e-267
7.39527e-267
2.02757e-266
2.25694e-265
2.53154e-264
2.4664e-263
1.88665e-294
1.0294e-293
5.77125e-293
3.33134e-292
1.97907e-291
1.20917e-290
7.59105e-290
4.89146e-289
3.23128e-288
2.18534e-287
1.5108e-286
1.06582e-285
7.65761e-285
5.59071e-284
4.13715e-283
3.09418e-282
2.33115e-281
1.76257e-280
1.33169e-279
1.00046e-278
7.43115e-278
5.42141e-277
3.85527e-276
2.64892e-275
1.74101e-274
1.08201e-273
6.26488e-273
3.29539e-272
1.49102e-271
5.14407e-271
1.08817e-270
1.13101e-270
6.74058e-271
6.80699e-271
2.03868e-270
1.13136e-269
5.81577e-270
3.59846e-271
2.34851e-272
1.38772e-271
2.14031e-270
1.32903e-269
6.28285e-269
4.25459e-268
2.6104e-267
9.34336e-267
2.84255e-266
3.15847e-265
3.53228e-264
3.42913e-263
5.96468e-293
3.16158e-292
1.72267e-291
9.6658e-291
5.58302e-290
3.31751e-289
2.02626e-288
1.27081e-287
8.17482e-287
5.38674e-286
3.63071e-285
2.49893e-284
1.75306e-283
1.25079e-282
9.05429e-282
6.63122e-281
4.89792e-280
3.63511e-279
2.69948e-278
1.99616e-277
1.46227e-276
1.05348e-275
7.40495e-275
5.03285e-274
3.27752e-273
2.01865e-272
1.1563e-271
5.98985e-271
2.6505e-270
8.91364e-270
1.8712e-269
2.07715e-269
1.46385e-269
1.63459e-269
4.65966e-269
2.15407e-268
9.43814e-269
5.66496e-270
2.71531e-271
2.07479e-271
2.79539e-270
1.72336e-269
8.26547e-269
5.50065e-268
3.30265e-267
1.18981e-266
4.02887e-266
4.45944e-265
4.97091e-264
4.8133e-263
1.78271e-291
9.17889e-291
4.85949e-290
2.64938e-289
1.48714e-288
8.58956e-288
5.10108e-287
3.1119e-286
1.94807e-285
1.24989e-284
8.20805e-284
5.50839e-283
3.77099e-282
2.62866e-281
1.86152e-280
1.33546e-279
9.67451e-279
7.05196e-278
5.15065e-277
3.75127e-276
2.70896e-275
1.92685e-274
1.33941e-273
9.01579e-273
5.8131e-272
3.54458e-271
2.01146e-270
1.02845e-269
4.47095e-269
1.47839e-268
3.09097e-268
3.68779e-268
3.0397e-268
3.72646e-268
1.00768e-267
3.87381e-267
1.48359e-267
8.74134e-269
4.23267e-270
6.43921e-271
4.89633e-270
2.42296e-269
1.08481e-268
7.10443e-268
4.18564e-267
1.53013e-266
5.7774e-266
6.35759e-265
7.06095e-264
6.82492e-263
5.1324e-290
2.56582e-289
1.31902e-288
6.98336e-288
3.80709e-287
2.13613e-286
1.23272e-285
7.31034e-285
4.45072e-284
2.77882e-283
1.77696e-282
1.16211e-281
7.75966e-281
5.27988e-280
3.65281e-279
2.56289e-278
1.81819e-277
1.29971e-276
9.32393e-276
6.68099e-275
4.75506e-274
3.33957e-273
2.29646e-272
1.53188e-271
9.80281e-271
5.93524e-270
3.33669e-269
1.6889e-268
7.25458e-268
2.3605e-267
4.94754e-267
6.37285e-267
6.07654e-267
8.10201e-267
2.08101e-266
6.62908e-266
2.27275e-266
1.34087e-267
6.90777e-269
7.1071e-270
2.63477e-269
6.21293e-269
1.43434e-268
9.14788e-268
5.31363e-267
1.99168e-266
8.37665e-266
9.15086e-265
1.0124e-263
9.77531e-263
1.42537e-288
6.92123e-288
3.45585e-287
1.77711e-286
9.41053e-286
5.12943e-285
2.87611e-284
1.65763e-283
9.81132e-283
5.95778e-282
3.70719e-281
2.3606e-280
1.5358e-279
1.01906e-278
6.8818e-278
4.71836e-277
3.27518e-276
2.29403e-275
1.6151e-274
1.13776e-273
7.97644e-273
5.52955e-272
3.76155e-271
2.48798e-270
1.58219e-269
9.53599e-269
5.33659e-268
2.67988e-267
1.13482e-266
3.64313e-266
7.71683e-266
1.07766e-265
1.17473e-265
1.68709e-265
4.1289e-265
1.08774e-264
3.41225e-265
2.07388e-266
1.146e-267
1.14508e-268
3.26806e-268
5.19024e-268
2.20586e-268
1.17682e-267
6.78285e-267
2.64107e-266
1.22589e-265
1.32823e-264
1.46407e-263
1.41317e-262
3.83684e-287
1.81102e-286
8.78765e-286
4.39093e-285
2.25922e-284
1.19653e-283
6.51938e-283
3.65174e-282
2.10112e-281
1.24065e-280
7.50968e-280
4.65393e-279
2.94858e-278
1.90663e-277
1.25582e-276
8.40644e-276
5.70374e-275
3.91038e-274
2.69896e-273
1.8673e-272
1.28839e-271
8.81136e-271
5.9296e-270
3.89131e-269
2.46191e-268
1.4781e-267
8.22765e-267
4.09682e-266
1.71469e-265
5.45347e-265
1.1772e-264
1.78835e-264
2.20398e-264
3.37936e-264
7.89905e-264
1.72147e-263
5.05714e-264
3.23733e-265
1.90243e-266
1.88812e-267
4.67972e-267
6.82137e-267
8.30342e-268
1.58813e-267
9.0539e-267
3.74571e-266
1.81251e-265
1.93987e-264
2.13187e-263
2.05876e-262
1.00511e-285
4.61506e-285
2.17772e-284
1.05797e-283
5.29189e-283
2.72448e-282
1.44303e-281
7.85785e-281
4.39588e-280
2.52418e-279
1.48623e-278
8.96259e-278
5.52806e-277
3.48191e-276
2.2355e-275
1.45988e-274
9.67325e-274
6.48454e-273
4.38292e-272
2.97501e-271
2.01837e-270
1.36093e-269
9.05586e-269
5.89263e-268
3.70312e-267
2.20965e-266
1.22261e-265
6.04135e-265
2.50366e-264
7.9422e-264
1.76189e-263
2.91751e-263
4.02438e-263
6.53595e-263
1.46183e-262
2.64222e-262
7.40586e-263
5.06045e-264
3.11378e-265
3.05076e-266
6.8192e-266
9.52021e-266
9.41495e-267
3.36561e-267
1.66849e-266
7.70425e-266
2.79187e-265
2.84308e-264
3.11811e-263
3.01564e-262
2.56701e-284
1.14763e-283
5.27075e-283
2.4916e-282
1.21246e-281
6.07213e-281
3.12824e-280
1.65689e-279
9.01612e-279
5.03642e-278
2.88529e-277
1.69333e-276
1.01678e-275
6.23726e-275
3.90214e-274
2.4848e-273
1.6068e-272
1.05234e-271
6.95869e-271
4.62921e-270
3.08468e-269
2.04786e-268
1.34492e-267
8.65431e-267
5.38734e-266
3.18988e-265
1.75274e-264
8.59322e-264
3.53834e-263
1.12731e-262
2.59082e-262
4.68029e-262
7.16378e-262
1.2245e-261
2.62067e-261
3.95114e-261
1.06892e-261
7.81645e-263
4.95579e-264
4.78536e-265
1.00193e-264
1.34447e-264
1.39293e-265
2.41367e-266
8.22862e-266
4.18062e-265
5.65155e-265
4.17911e-264
4.56726e-263
4.42903e-262
6.39477e-283
2.78641e-282
1.24675e-281
5.74017e-281
2.7199e-280
1.32613e-279
6.6505e-279
3.42866e-278
1.816e-277
9.87413e-277
5.50659e-276
3.1464e-275
1.83978e-274
1.09932e-273
6.7018e-273
4.1606e-272
2.62479e-271
1.67859e-270
1.08514e-269
7.06775e-269
4.61899e-268
3.01271e-267
1.94705e-266
1.23517e-265
7.59716e-265
4.45359e-264
2.42533e-263
1.18039e-262
4.84501e-262
1.5607e-261
3.74209e-261
7.37311e-261
1.24346e-260
2.22676e-260
4.54655e-260
5.77568e-260
1.51318e-260
1.17778e-261
7.59945e-263
7.28986e-264
1.48564e-263
1.91366e-263
2.11794e-264
3.22679e-265
8.29799e-265
4.30661e-264
2.80702e-264
6.29449e-264
6.67902e-263
6.50242e-262
1.55394e-281
6.60579e-281
2.8824e-280
1.29378e-279
5.97503e-279
2.83882e-278
1.38708e-277
6.96648e-277
3.59432e-276
1.9037e-275
1.03417e-274
5.75651e-274
3.27946e-273
1.90957e-272
1.13472e-271
6.86918e-271
4.22781e-270
2.63959e-269
1.66736e-268
1.06221e-267
6.79674e-267
4.34476e-266
2.75573e-265
1.71884e-264
1.0417e-263
6.02968e-263
3.24968e-262
1.57028e-261
6.44291e-261
2.1098e-260
5.30142e-260
1.13684e-259
2.09819e-259
3.92898e-259
7.62405e-259
8.25694e-259
2.09162e-259
1.71527e-260
1.11112e-261
1.07915e-262
2.22536e-262
2.74354e-262
3.22645e-263
4.71798e-264
9.7665e-264
5.10226e-263
2.9553e-263
1.16328e-263
9.73454e-263
9.51386e-262
3.68402e-280
1.52924e-279
6.51373e-279
2.85324e-278
1.28562e-277
5.95807e-277
2.8391e-276
1.39039e-275
6.99413e-275
3.61139e-274
1.91255e-273
1.03785e-272
5.76447e-272
3.2729e-271
1.89678e-270
1.12017e-269
6.72845e-269
4.10158e-268
2.53077e-267
1.57546e-266
9.85519e-266
6.16339e-265
3.82879e-264
2.34276e-263
1.39561e-262
7.95835e-262
4.239e-261
2.03367e-260
8.35857e-260
2.79177e-259
7.36024e-259
1.71191e-258
3.43445e-258
6.71927e-258
1.23312e-257
1.15301e-257
2.81446e-258
2.39867e-259
1.54508e-260
1.57025e-261
3.37187e-261
3.966e-261
4.91747e-262
6.98407e-263
1.18562e-262
6.22334e-262
3.71414e-262
4.86919e-263
1.42812e-262
1.38351e-261
8.51541e-279
3.45604e-278
1.43889e-277
6.15867e-277
2.71068e-276
1.22679e-275
5.7073e-275
2.7282e-274
1.33931e-273
6.748e-273
3.48684e-272
1.84616e-271
1.00053e-270
5.54361e-270
3.13572e-269
1.80779e-268
1.06019e-267
6.31062e-267
3.80243e-266
2.31185e-265
1.4127e-264
8.63424e-264
5.24609e-263
3.14353e-262
1.83701e-261
1.03e-260
5.41382e-260
2.57757e-259
1.06243e-258
3.62581e-258
1.00245e-257
2.51604e-257
5.4549e-257
1.11387e-256
1.91975e-256
1.57006e-256
3.68271e-257
3.2185e-258
2.05687e-259
2.2973e-260
5.18035e-260
5.79235e-260
7.51224e-261
1.04094e-261
1.465e-261
7.69761e-261
4.78336e-261
4.77072e-262
2.33276e-262
1.99793e-261
1.92493e-277
7.6481e-277
3.11653e-276
1.30511e-275
5.61797e-275
2.48568e-274
1.13015e-273
5.27823e-273
2.53108e-272
1.24548e-271
6.28468e-271
3.24923e-270
1.71947e-269
9.30288e-269
5.13858e-268
2.89311e-267
1.6571e-266
9.63401e-266
5.66981e-265
3.36695e-264
2.00973e-263
1.2001e-262
7.12759e-262
4.17837e-261
2.39213e-260
1.31701e-259
6.82268e-259
3.22203e-258
1.33255e-257
4.64936e-257
1.34604e-256
3.62757e-256
8.45268e-256
1.7853e-255
2.8798e-255
2.08642e-255
4.69326e-256
4.15678e-257
2.6532e-258
3.4594e-259
8.08313e-259
8.54471e-259
1.15037e-259
1.56141e-260
1.8432e-260
9.62931e-260
6.17893e-260
5.87716e-261
6.99936e-262
2.90188e-261
4.26975e-276
1.66247e-275
6.63699e-275
2.7221e-274
1.14715e-273
4.96706e-273
2.20926e-272
1.00907e-271
4.73087e-271
2.27551e-270
1.12217e-269
5.66942e-269
2.93162e-268
1.54979e-267
8.3646e-267
4.60173e-266
2.57556e-265
1.46323e-264
8.41525e-264
4.88355e-263
2.84869e-262
1.6626e-261
9.65406e-261
5.53644e-260
3.10428e-259
1.6774e-258
8.5603e-258
4.00928e-257
1.66406e-256
5.93336e-256
1.79409e-255
5.16366e-255
1.28511e-254
2.77115e-254
4.17152e-254
2.71272e-254
5.84197e-255
5.20505e-256
3.36536e-257
5.43666e-258
1.27934e-257
1.27007e-257
1.76331e-258
2.35594e-259
2.36774e-259
1.21723e-258
7.97213e-259
7.46037e-260
5.67397e-261
4.77694e-261
9.32569e-275
3.56127e-274
1.39399e-273
5.60408e-273
2.31409e-272
9.81428e-272
4.27416e-271
1.91085e-270
8.76633e-270
4.12493e-269
1.98959e-268
9.82981e-268
4.97017e-267
2.56904e-266
1.35573e-265
7.29278e-265
3.99123e-264
2.21735e-263
1.2471e-262
7.07812e-262
4.03853e-261
2.30587e-260
1.31019e-259
7.35626e-259
4.04239e-258
2.1449e-257
1.07875e-256
5.01282e-256
2.08836e-255
7.60198e-255
2.39244e-254
7.30187e-254
1.91899e-253
4.18149e-253
5.85824e-253
3.45903e-253
7.1453e-254
6.38134e-255
4.28899e-256
8.97057e-257
2.05142e-256
1.90224e-256
2.70947e-257
3.58449e-258
3.11771e-258
1.55391e-257
1.02565e-257
9.4858e-259
6.73128e-260
1.56597e-260
2.0085e-273
7.52948e-273
2.89223e-272
1.14072e-271
4.61986e-271
1.92103e-270
8.19983e-270
3.59181e-269
1.61398e-268
7.43641e-268
3.51128e-267
1.69788e-266
8.40091e-266
4.24889e-265
2.19388e-264
1.15474e-263
6.18425e-263
3.36255e-262
1.85131e-261
1.02882e-260
5.74919e-260
3.2159e-259
1.79074e-258
9.85825e-258
5.31679e-257
2.7741e-256
1.37667e-255
6.35299e-255
2.65723e-254
9.86253e-254
3.21889e-253
1.03416e-252
2.82347e-252
6.14384e-252
8.00924e-252
4.33457e-252
8.65162e-253
7.7676e-254
5.64709e-255
1.54539e-255
3.33044e-255
2.88275e-255
4.19796e-256
5.53371e-257
4.22769e-257
2.00258e-256
1.31554e-256
1.20488e-257
8.4468e-259
1.40289e-259
4.27266e-272
1.5736e-271
5.9362e-271
2.29883e-270
9.13905e-270
3.72934e-269
1.56171e-268
6.7092e-268
2.95588e-267
1.33492e-266
6.17654e-266
2.926e-265
1.41808e-264
7.02436e-264
3.55207e-263
1.83106e-262
9.60538e-262
5.11677e-261
2.76078e-260
1.50409e-259
8.24323e-259
4.52418e-258
2.47299e-257
1.33722e-256
7.09093e-256
3.64468e-255
1.78767e-254
8.20379e-254
3.44705e-253
1.30308e-252
4.38994e-252
1.46633e-251
4.11913e-251
8.80958e-251
1.06804e-250
5.36136e-251
1.0412e-251
9.54131e-253
7.84627e-254
2.74743e-254
5.48442e-254
4.43658e-254
6.59494e-255
8.71804e-256
5.92985e-256
2.60661e-255
1.68369e-255
1.53047e-256
1.06789e-257
1.76981e-258
8.96884e-271
3.24759e-270
1.20419e-269
4.5827e-269
1.79001e-268
7.17499e-268
2.95059e-267
1.24445e-266
5.38109e-266
2.38447e-265
1.08222e-264
5.02779e-264
2.38917e-263
1.16021e-262
5.75126e-262
2.90634e-261
1.49476e-260
7.80848e-260
4.13295e-259
2.20979e-258
1.18918e-257
6.41236e-257
3.44597e-256
1.83331e-255
9.5756e-255
4.85735e-254
2.35935e-253
1.07858e-252
4.55711e-252
1.75251e-251
6.05602e-251
2.07754e-250
5.94301e-250
1.23411e-249
1.38983e-249
6.54836e-250
1.24708e-250
1.19227e-251
1.15542e-252
4.97384e-253
9.13585e-253
6.91458e-253
1.04941e-253
1.40022e-254
8.60555e-255
3.42598e-254
2.15054e-254
1.94534e-255
1.35226e-256
2.35902e-257
1.86631e-269
6.65248e-269
2.42776e-268
9.09088e-268
3.49305e-267
1.37699e-266
5.56765e-266
2.30823e-265
9.80803e-265
4.26967e-264
1.90324e-263
8.68206e-263
4.05013e-262
1.93047e-261
9.39191e-261
4.65799e-260
2.3514e-259
1.20592e-258
6.26853e-258
3.29323e-257
1.74246e-256
9.24521e-256
4.89321e-255
2.56676e-254