/*--------------------------------*- C++ -*----------------------------------*\
  =========                 |
  \\      /  F ield         | OpenFOAM: The Open Source CFD Toolbox
   \\    /   O peration     | Website:  https://openfoam.org
    \\  /    A nd           | Version:  9
     \\/     M anipulation  |
\*---------------------------------------------------------------------------*/
FoamFile
{
    format      ascii;
    class       volScalarField;
    location    "0.07";
    object      p;
}
// * * * * * * * * * * * * * * * * * * * * * * * * * * * * * * * * * * * * * //

dimensions      [1 -1 -2 0 0 0 0];

internalField   nonuniform List<scalar> 
5000
(
1.30883
1.30865
1.30848
1.30829
1.30807
1.3078
1.30748
1.30708
1.30658
1.30598
1.30523
1.3043
1.30316
1.30175
1.30002
1.29787
1.2952
1.29186
1.28766
1.28231
1.27542
1.26654
1.25546
1.24364
1.23752
1.24771
1.25871
1.21691
1.08295
0.743746
0.202062
0.279396
0.616773
0.751942
0.631037
0.40401
0.366975
0.651338
0.808263
1.06137
0.290928
1.09923
1.01563
1.08586
1.18694
1.14226
1.19494
1.12626
1.12598
1.06418
1.30682
1.30655
1.30632
1.30608
1.30581
1.30552
1.30517
1.30476
1.30428
1.30369
1.30297
1.30209
1.30101
1.29969
1.29807
1.29607
1.29361
1.29058
1.28684
1.28226
1.27671
1.27018
1.26293
1.25545
1.24824
1.24202
1.22703
1.17561
1.06803
0.834296
0.501456
0.614412
0.742788
0.80244
0.687913
0.572604
0.56455
0.742215
0.839536
1.10192
0.614796
1.10476
1.03099
1.11355
1.17971
1.12722
1.19968
1.14249
1.15183
1.08018
1.30491
1.3047
1.30453
1.30434
1.30413
1.30389
1.30361
1.30327
1.30287
1.30238
1.30177
1.30103
1.30012
1.299
1.29763
1.29593
1.29386
1.29133
1.28825
1.28454
1.28011
1.27488
1.26882
1.26196
1.25428
1.24584
1.23142
1.19309
1.13153
1.01333
0.774048
0.880883
0.959919
0.935675
0.852207
0.763133
0.764289
0.905425
0.91896
1.17125
0.847141
1.18114
1.06582
1.1366
1.19078
1.1365
1.20288
1.15008
1.17999
1.1026
1.30298
1.30286
1.30279
1.3027
1.30259
1.30246
1.3023
1.30209
1.30183
1.30149
1.30107
1.30053
1.29986
1.29901
1.29796
1.29666
1.29506
1.2931
1.29071
1.28782
1.28433
1.28016
1.27524
1.26963
1.26354
1.25734
1.24938
1.22682
1.19559
1.15051
1.00591
1.08142
1.14217
1.06738
1.01156
0.942541
0.9556
1.05429
1.00508
1.20658
1.00825
1.22418
1.10909
1.1638
1.20451
1.15384
1.21323
1.16223
1.21048
1.13264
1.30106
1.30105
1.3011
1.30115
1.30118
1.30119
1.30118
1.30114
1.30107
1.30093
1.30074
1.30045
1.30007
1.29956
1.29889
1.29803
1.29695
1.2956
1.29394
1.29191
1.28947
1.28657
1.28322
1.2795
1.27546
1.27135
1.26782
1.2567
1.24252
1.24207
1.17188
1.21826
1.27377
1.16829
1.13667
1.08725
1.11291
1.16852
1.08178
1.22136
1.11251
1.24887
1.15176
1.19303
1.21965
1.17397
1.22715
1.182
1.24064
1.16582
1.29915
1.29927
1.29947
1.29967
1.29986
1.30004
1.30022
1.30038
1.30051
1.30061
1.30067
1.30068
1.30062
1.30047
1.30022
1.29984
1.29931
1.29861
1.29771
1.29659
1.29522
1.29362
1.29179
1.28979
1.28763
1.28537
1.28489
1.28233
1.27905
1.30415
1.28116
1.30884
1.36351
1.24357
1.23249
1.19489
1.23292
1.25659
1.14883
1.23488
1.17842
1.26963
1.19056
1.22052
1.23776
1.19624
1.24352
1.20441
1.26755
1.19817
1.29725
1.29751
1.29787
1.29823
1.2986
1.29898
1.29935
1.29972
1.30009
1.30044
1.30078
1.30109
1.30137
1.3016
1.30178
1.30188
1.30191
1.30185
1.3017
1.30144
1.30107
1.3006
1.30006
1.29952
1.29907
1.29878
1.30096
1.30517
1.30997
1.34921
1.35447
1.3687
1.41948
1.30169
1.30571
1.27404
1.32035
1.3251
1.20617
1.25026
1.22101
1.28627
1.22302
1.24495
1.2578
1.22051
1.26141
1.22675
1.29046
1.22798
1.29534
1.29576
1.29628
1.29683
1.29738
1.29795
1.29854
1.29913
1.29974
1.30035
1.30097
1.30159
1.30221
1.30282
1.30342
1.30401
1.30457
1.30513
1.30566
1.30619
1.30671
1.30725
1.30785
1.3086
1.30971
1.31132
1.31567
1.3247
1.3351
1.38134
1.40383
1.40649
1.44913
1.34618
1.36044
1.33557
1.3765
1.37792
1.25413
1.2663
1.25097
1.29998
1.25
1.26714
1.27838
1.24545
1.28008
1.24909
1.30897
1.25521
1.29343
1.294
1.2947
1.29542
1.29617
1.29694
1.29774
1.29856
1.29941
1.30028
1.30118
1.30211
1.30306
1.30404
1.30505
1.30608
1.30716
1.30828
1.30945
1.31069
1.31202
1.31347
1.3151
1.31699
1.31943
1.3226
1.32838
1.34037
1.35382
1.40206
1.43355
1.42757
1.46181
1.37899
1.39945
1.37999
1.41304
1.41752
1.29421
1.28346
1.27507
1.31288
1.27426
1.28809
1.29855
1.26973
1.29826
1.27154
1.32362
1.28045
1.29151
1.29223
1.2931
1.29401
1.29494
1.29591
1.29691
1.29795
1.29904
1.30017
1.30134
1.30256
1.30383
1.30516
1.30655
1.30801
1.30954
1.31118
1.31293
1.31481
1.31686
1.31911
1.32163
1.32448
1.32794
1.33229
1.33895
1.35245
1.36703
1.41427
1.44781
1.4381
1.46735
1.40233
1.42619
1.4114
1.43735
1.44349
1.3281
1.30378
1.2974
1.32608
1.2977
1.30794
1.31759
1.29255
1.3154
1.29162
1.337
1.30363
1.28958
1.29045
1.29148
1.29255
1.29367
1.29482
1.29603
1.29728
1.29859
1.29996
1.30138
1.30288
1.30445
1.3061
1.30784
1.30967
1.31163
1.31373
1.31599
1.31843
1.32108
1.324
1.32725
1.33088
1.33514
1.34034
1.34755
1.36169
1.37662
1.42115
1.45191
1.44168
1.46924
1.41799
1.44392
1.43335
1.45248
1.45764
1.35681
1.3265
1.32065
1.34087
1.32097
1.32645
1.33494
1.31346
1.33144
1.30988
1.34953
1.32328
1.28762
1.28863
1.28982
1.29105
1.29233
1.29367
1.29505
1.2965
1.29802
1.29961
1.30127
1.30302
1.30486
1.3068
1.30884
1.31102
1.31335
1.31584
1.31853
1.32144
1.3246
1.32807
1.3319
1.33615
1.34104
1.34688
1.35449
1.36886
1.3841
1.42446
1.45011
1.44101
1.46785
1.42716
1.45495
1.4484
1.46066
1.46391
1.37938
1.34993
1.34436
1.35761
1.34383
1.34347
1.3503
1.33217
1.34633
1.32671
1.36127
1.33883
1.28564
1.28678
1.28811
1.28949
1.29092
1.29242
1.29397
1.2956
1.29731
1.29909
1.30097
1.30294
1.30502
1.30721
1.30952
1.31199
1.31462
1.31746
1.32051
1.32381
1.32738
1.33128
1.33557
1.34031
1.34568
1.352
1.35994
1.37397
1.39002
1.42515
1.44509
1.43746
1.46314
1.43093
1.46082
1.45837
1.46395
1.46578
1.39616
1.372
1.36733
1.37513
1.3654
1.3589
1.36308
1.34921
1.35991
1.34181
1.37169
1.35161
1.28363
1.28489
1.28634
1.28786
1.28943
1.29106
1.29277
1.29456
1.29643
1.29839
1.30045
1.30261
1.30489
1.3073
1.30984
1.31255
1.31544
1.31854
1.32188
1.32548
1.32938
1.33361
1.33825
1.34334
1.34907
1.35576
1.36404
1.3778
1.39379
1.42371
1.43825
1.43143
1.45479
1.43024
1.4625
1.46433
1.46384
1.46344
1.40931
1.39207
1.38821
1.39184
1.38459
1.3728
1.37459
1.3639
1.37201
1.35505
1.38052
1.36249
1.2816
1.28295
1.28452
1.28614
1.28783
1.2896
1.29144
1.29336
1.29537
1.29748
1.2997
1.30203
1.30448
1.30706
1.30979
1.31268
1.31577
1.31907
1.32262
1.32645
1.33057
1.33504
1.33991
1.34525
1.35122
1.35814
1.3666
1.37999
1.39575
1.42037
1.43034
1.42278
1.44243
1.42572
1.46056
1.46677
1.46092
1.45963
1.41973
1.40943
1.40612
1.40661
1.40069
1.38492
1.385
1.37616
1.38265
1.36656
1.38791
1.37215
1.27952
1.28097
1.28263
1.28435
1.28615
1.28802
1.28997
1.29201
1.29414
1.29637
1.29872
1.30118
1.30377
1.30649
1.30936
1.3124
1.31563
1.31907
1.32276
1.32672
1.33098
1.33559
1.34058
1.34605
1.35213
1.35914
1.36759
1.38026
1.39539
1.41544
1.42146
1.41129
1.42628
1.41798
1.45548
1.46612
1.4564
1.4555
1.42742
1.42337
1.42057
1.4188
1.41349
1.3951
1.39385
1.38652
1.39193
1.37648
1.39401
1.37982
1.27742
1.27894
1.28068
1.28249
1.28437
1.28633
1.28837
1.2905
1.29273
1.29506
1.29751
1.30007
1.30277
1.3056
1.30858
1.31172
1.31505
1.31858
1.32234
1.32637
1.33068
1.33532
1.34033
1.34579
1.35185
1.35878
1.36702
1.37869
1.39253
1.40868
1.41116
1.39719
1.40745
1.40782
1.44787
1.46272
1.45128
1.45165
1.43252
1.43361
1.43142
1.42826
1.42317
1.40345
1.40117
1.39523
1.39984
1.38489
1.39903
1.38555
1.27528
1.27687
1.27867
1.28054
1.28249
1.28452
1.28664
1.28885
1.29116
1.29357
1.29609
1.29873
1.3015
1.30441
1.30746
1.31067
1.31406
1.31763
1.32142
1.32544
1.32973
1.33432
1.33925
1.34459
1.35047
1.35714
1.36496
1.37546
1.38748
1.39982
1.3993
1.38133
1.38782
1.39633
1.43858
1.45693
1.44603
1.44858
1.43549
1.44033
1.43884
1.43516
1.43018
1.41017
1.40718
1.40241
1.40643
1.39192
1.40325
1.39023
1.27312
1.27476
1.27661
1.27853
1.28054
1.28263
1.2848
1.28707
1.28944
1.2919
1.29447
1.29716
1.29998
1.30293
1.30603
1.30928
1.31269
1.31627
1.32004
1.32401
1.32822
1.33269
1.33746
1.34258
1.34816
1.35441
1.36159
1.3707
1.38059
1.38932
1.38638
1.36517
1.36948
1.38476
1.42867
1.4492
1.44087
1.44641
1.43678
1.44396
1.44321
1.43986
1.43499
1.41542
1.41201
1.40821
1.41183
1.39775
1.40678
1.39422
1.27093
1.27261
1.2745
1.27646
1.27851
1.28064
1.28286
1.28518
1.28759
1.29009
1.2927
1.29543
1.29827
1.30124
1.30435
1.3076
1.311
1.31455
1.31827
1.32217
1.32626
1.33057
1.33512
1.33994
1.34513
1.35083
1.3572
1.36481
1.37255
1.37815
1.37343
1.35033
1.35416
1.37436
1.41906
1.44038
1.43589
1.44486
1.43675
1.44512
1.44508
1.4427
1.43805
1.41935
1.41577
1.41279
1.41617
1.40252
1.40965
1.39756
1.26871
1.27044
1.27236
1.27435
1.27642
1.27859
1.28084
1.28319
1.28563
1.28817
1.29081
1.29355
1.2964
1.29938
1.30248
1.30571
1.30908
1.31258
1.31623
1.32003
1.32398
1.3281
1.3324
1.3369
1.34165
1.34676
1.35225
1.35843
1.36424
1.36739
1.36183
1.33779
1.34294
1.36594
1.41038
1.43161
1.43111
1.44336
1.43565
1.44445
1.44505
1.44398
1.43967
1.42211
1.41858
1.41627
1.41953
1.40634
1.41194
1.40037
1.26649
1.26825
1.27018
1.2722
1.27429
1.27648
1.27875
1.28112
1.28358
1.28614
1.2888
1.29156
1.29442
1.29739
1.30048
1.30368
1.307
1.31045
1.31402
1.3177
1.32151
1.32544
1.32949
1.33368
1.33801
1.34253
1.34721
1.35215
1.3564
1.35787
1.35359
1.32798
1.33511
1.35973
1.40317
1.42378
1.4265
1.44121
1.43365
1.44258
1.44372
1.44386
1.44007
1.42386
1.42058
1.41877
1.42199
1.40932
1.4137
1.40262
1.26425
1.26605
1.268
1.27003
1.27214
1.27434
1.27663
1.27901
1.28148
1.28405
1.28672
1.28949
1.29236
1.29532
1.29838
1.30155
1.30483
1.30822
1.3117
1.31529
1.31897
1.32273
1.32656
1.33046
1.33443
1.33845
1.34246
1.34639
1.34938
1.3494
1.34364
1.32503
1.3313
1.35568
1.3978
1.41743
1.42198
1.43784
1.43087
1.44002
1.44162
1.44249
1.4394
1.42476
1.42189
1.42038
1.4236
1.41156
1.41498
1.40477
1.26201
1.26384
1.26581
1.26786
1.26998
1.2722
1.27449
1.27688
1.27936
1.28193
1.2846
1.28737
1.29023
1.29319
1.29623
1.29938
1.30261
1.30594
1.30936
1.31286
1.31643
1.32005
1.32372
1.3274
1.33108
1.33472
1.33822
1.34142
1.34351
1.34279
1.33723
1.32274
1.32948
1.3532
1.39439
1.41281
1.41743
1.43289
1.42737
1.43706
1.43898
1.44014
1.43783
1.42493
1.42262
1.42121
1.42443
1.41312
1.41579
1.40637
1.25978
1.26164
1.26363
1.2657
1.26784
1.27007
1.27238
1.27477
1.27725
1.27982
1.28249
1.28524
1.28809
1.29103
1.29406
1.29718
1.30038
1.30367
1.30704
1.31047
1.31396
1.31749
1.32103
1.32456
1.32805
1.33143
1.33459
1.3373
1.33885
1.33783
1.33295
1.32152
1.32889
1.35305
1.39159
1.40973
1.41272
1.42632
1.42323
1.43385
1.43604
1.43698
1.43548
1.42443
1.4229
1.42135
1.42452
1.41411
1.41616
1.40739
1.25754
1.25946
1.26148
1.26357
1.26574
1.26799
1.27031
1.27271
1.27519
1.27775
1.28041
1.28315
1.28598
1.2889
1.29191
1.295
1.29818
1.30143
1.30477
1.30816
1.3116
1.31507
1.31854
1.32199
1.32537
1.32861
1.33157
1.33401
1.33525
1.33418
1.32996
1.32116
1.329
1.35334
1.39084
1.40793
1.4078
1.41846
1.41859
1.43045
1.43285
1.43324
1.4325
1.42378
1.42233
1.42084
1.4239
1.41462
1.41627
1.408
1.25533
1.25732
1.25939
1.26153
1.26373
1.26599
1.26832
1.27072
1.2732
1.27575
1.27838
1.2811
1.28391
1.28681
1.28979
1.29286
1.29602
1.29925
1.30256
1.30594
1.30936
1.31281
1.31626
1.31969
1.32304
1.32623
1.32912
1.33144
1.33255
1.33157
1.32797
1.32128
1.32962
1.35444
1.3913
1.40668
1.40269
1.40999
1.41372
1.42688
1.42947
1.42908
1.42899
1.42248
1.42155
1.41977
1.42257
1.41467
1.41536
1.40904
1.2532
1.25536
1.25752
1.25969
1.2619
1.26416
1.26648
1.26885
1.2713
1.27382
1.27643
1.27912
1.28189
1.28476
1.28772
1.29077
1.29391
1.29714
1.30044
1.30381
1.30724
1.3107
1.31418
1.31764
1.32102
1.32425
1.32716
1.32947
1.33058
1.32979
1.32672
1.32185
1.33085
1.35636
1.39215
1.4053
1.39757
1.40177
1.409
1.42311
1.42586
1.42474
1.4252
1.42068
1.42034
1.41842
1.42082
1.4142
1.41462
1.40943
1.2518
1.25421
1.25625
1.25832
1.26043
1.26259
1.26481
1.26712
1.2695
1.27197
1.27453
1.27717
1.27992
1.28276
1.28569
1.28873
1.29186
1.29508
1.29839
1.30177
1.30523
1.30873
1.31226
1.31579
1.31926
1.32259
1.3256
1.328
1.32922
1.32866
1.32602
1.32287
1.33286
1.3587
1.39288
1.4035
1.39275
1.39478
1.40485
1.41915
1.422
1.42047
1.42138
1.41857
1.41878
1.41667
1.41865
1.41322
1.4139
1.40943
1.25325
1.25461
1.25593
1.25752
1.2593
1.26123
1.26329
1.26547
1.26776
1.27015
1.27265
1.27525
1.27796
1.28077
1.28368
1.2867
1.28983
1.29305
1.29638
1.29979
1.30329
1.30685
1.31046
1.3141
1.3177
1.32117
1.32436
1.32693
1.32832
1.32803
1.32577
1.32426
1.33554
1.36122
1.39316
1.40132
1.38865
1.38993
1.40161
1.41509
1.41795
1.41644
1.41768
1.4162
1.41691
1.41463
1.41632
1.41183
1.41289
1.40923
1.25113
1.25267
1.25424
1.25593
1.25771
1.25961
1.26161
1.26373
1.26596
1.2683
1.27075
1.27331
1.27599
1.27877
1.28167
1.28468
1.2878
1.29104
1.29438
1.29784
1.30139
1.30502
1.30874
1.3125
1.31626
1.31992
1.32333
1.32613
1.32778
1.32776
1.3259
1.32599
1.33867
1.36371
1.3927
1.39965
1.38511
1.38791
1.39951
1.41106
1.41383
1.41278
1.41418
1.41349
1.41487
1.4124
1.41371
1.41029
1.41172
1.40889
1.24904
1.25059
1.25223
1.25398
1.25581
1.25773
1.25974
1.26184
1.26405
1.26637
1.26879
1.27133
1.27398
1.27675
1.27964
1.28264
1.28577
1.28901
1.29238
1.29587
1.29948
1.3032
1.30702
1.31092
1.31486
1.31875
1.32241
1.32551
1.32746
1.32777
1.32642
1.32807
1.34209
1.36598
1.39113
1.39533
1.38642
1.38884
1.39858
1.4072
1.40977
1.40955
1.41098
1.41098
1.41223
1.40996
1.41097
1.40867
1.41048
1.40845
1.24701
1.24861
1.25027
1.25202
1.25385
1.25577
1.25778
1.25988
1.26208
1.26438
1.26679
1.26931
1.27194
1.2747
1.27757
1.28057
1.2837
1.28695
1.29034
1.29387
1.29754
1.30134
1.30527
1.30931
1.31343
1.31755
1.32151
1.32495
1.3273
1.32804
1.32738
1.3306
1.34571
1.36806
1.38911
1.39249
1.38822
1.3922
1.39846
1.40363
1.40589
1.40671
1.408
1.40819
1.40957
1.40732
1.40827
1.40698
1.40918
1.40795
1.24504
1.24665
1.24831
1.25005
1.25188
1.25378
1.25578
1.25787
1.26006
1.26234
1.26474
1.26724
1.26986
1.2726
1.27547
1.27846
1.28158
1.28484
1.28825
1.29181
1.29552
1.29939
1.30342
1.3076
1.3119
1.31626
1.32052
1.32435
1.32719
1.32854
1.32882
1.33364
1.34951
1.37003
1.38689
1.39038
1.3909
1.39692
1.3986
1.40041
1.40226
1.40414
1.40516
1.40527
1.40695
1.4045
1.40561
1.40526
1.40786
1.40741
1.24308
1.24467
1.24632
1.24805
1.24987
1.25176
1.25375
1.25582
1.25799
1.26027
1.26264
1.26513
1.26773
1.27046
1.2733
1.27628
1.2794
1.28266
1.28607
1.28965
1.29339
1.29732
1.30143
1.30573
1.31019
1.31477
1.31934
1.3236
1.32704
1.32918
1.33069
1.33715
1.3534
1.37185
1.38465
1.38853
1.39374
1.40107
1.39897
1.39752
1.39886
1.40163
1.40237
1.40218
1.40374
1.40216
1.40312
1.40357
1.40654
1.40684
1.24111
1.24268
1.24432
1.24604
1.24783
1.24971
1.25168
1.25374
1.25589
1.25815
1.26051
1.26297
1.26556
1.26826
1.27108
1.27405
1.27715
1.2804
1.2838
1.28738
1.29114
1.2951
1.29927
1.30365
1.30824
1.31302
1.31787
1.32257
1.32668
1.32978
1.33277
1.34085
1.35707
1.37333
1.38251
1.38666
1.39555
1.4037
1.39825
1.39464
1.39554
1.39894
1.39949
1.399
1.40068
1.39962
1.40075
1.40191
1.40525
1.40623
1.23914
1.2407
1.24231
1.24401
1.24579
1.24765
1.24959
1.25163
1.25376
1.256
1.25833
1.26077
1.26333
1.266
1.2688
1.27174
1.27482
1.27804
1.28143
1.285
1.28875
1.29272
1.2969
1.30133
1.30601
1.31093
1.31603
1.32113
1.32593
1.33008
1.33465
1.34419
1.36001
1.3741
1.38027
1.3843
1.3952
1.40342
1.39582
1.39142
1.39199
1.39596
1.39642
1.3957
1.39762
1.39707
1.39853
1.40028
1.40399
1.40557
1.23717
1.23871
1.24031
1.24198
1.24374
1.24557
1.24749
1.24951
1.25161
1.25381
1.25612
1.25853
1.26105
1.2637
1.26647
1.26937
1.27241
1.2756
1.27896
1.28249
1.28622
1.29015
1.29433
1.29875
1.30346
1.30847
1.31373
1.31917
1.32459
1.32973
1.33578
1.34645
1.36154
1.37361
1.37743
1.38086
1.39186
1.39932
1.39114
1.38747
1.38839
1.39208
1.39304
1.39223
1.39449
1.39458
1.39646
1.39869
1.40277
1.40486
1.23521
1.23673
1.2383
1.23995
1.24168
1.24349
1.24538
1.24736
1.24944
1.25161
1.25388
1.25625
1.25874
1.26134
1.26407
1.26693
1.26993
1.27307
1.27638
1.27986
1.28353
1.28742
1.29153
1.29592
1.30059
1.3056
1.31094
1.31658
1.32247
1.3284
1.33561
1.34693
1.361
1.37129
1.37334
1.37566
1.38523
1.39107
1.38382
1.38233
1.38409
1.38764
1.38942
1.38853
1.3913
1.3921
1.39452
1.39715
1.40159
1.40413
1.23326
1.23476
1.23629
1.23792
1.23962
1.2414
1.24326
1.24521
1.24725
1.24938
1.25161
1.25395
1.25639
1.25895
1.26163
1.26444
1.26738
1.27047
1.27371
1.27713
1.28072
1.28452
1.28855
1.29283
1.29742
1.30234
1.30763
1.31332
1.31946
1.32588
1.33377
1.34519
1.35797
1.36665
1.36747
1.36831
1.37516
1.37895
1.3738
1.37579
1.37907
1.38247
1.3853
1.38492
1.38811
1.38966
1.39269
1.39564
1.40044
1.40338
1.23131
1.23277
1.23428
1.23587
1.23755
1.2393
1.24113
1.24304
1.24505
1.24714
1.24933
1.25162
1.25402
1.25653
1.25916
1.26191
1.26479
1.26781
1.27098
1.27431
1.27781
1.2815
1.2854
1.28955
1.29397
1.29873
1.30386
1.30944
1.31557
1.32211
1.33017
1.34113
1.35237
1.35953
1.35932
1.35856
1.36215
1.36362
1.36145
1.36791
1.37339
1.3769
1.38075
1.38112
1.38495
1.38724
1.39093
1.39414
1.3993
1.4027
1.22934
1.23077
1.23225
1.23382
1.23547
1.23719
1.23899
1.24087
1.24283
1.24489
1.24704
1.24929
1.25164
1.2541
1.25667
1.25936
1.26217
1.26512
1.2682
1.27143
1.27482
1.27838
1.28213
1.2861
1.29032
1.29484
1.29972
1.30502
1.3109
1.31723
1.32497
1.33499
1.34451
1.35013
1.34899
1.34646
1.34678
1.34617
1.34748
1.35896
1.36715
1.37091
1.37602
1.37721
1.38196
1.38489
1.38923
1.39265
1.39825
1.40201
1.22736
1.22877
1.23023
1.23177
1.23339
1.23508
1.23684
1.23869
1.24062
1.24264
1.24475
1.24695
1.24926
1.25166
1.25418
1.2568
1.25954
1.26241
1.2654
1.26852
1.27179
1.27521
1.2788
1.28257
1.28655
1.29078
1.29531
1.30022
1.30565
1.31149
1.31854
1.32726
1.33496
1.33891
1.33673
1.33249
1.3299
1.3278
1.33281
1.34942
1.36055
1.36478
1.37122
1.37357
1.37889
1.3826
1.38756
1.39121
1.39731
1.40139
1.22537
1.22676
1.2282
1.22972
1.23131
1.23296
1.2347
1.23651
1.23841
1.24039
1.24246
1.24462
1.24688
1.24923
1.25169
1.25425
1.25692
1.2597
1.2626
1.26562
1.26877
1.27204
1.27545
1.27901
1.28273
1.28664
1.29078
1.29522
1.30007
1.30522
1.31132
1.31851
1.32432
1.32646
1.32307
1.31729
1.3124
1.30962
1.31839
1.33982
1.35391
1.35878
1.36646
1.37002
1.37605
1.38043
1.38595
1.38995
1.39638
1.40092
1.2234
1.22476
1.22618
1.22767
1.22923
1.23086
1.23256
1.23435
1.23621
1.23815
1.24018
1.2423
1.24451
1.24682
1.24922
1.25172
1.25432
1.25702
1.25983
1.26275
1.26578
1.2689
1.27214
1.27549
1.27895
1.28253
1.28627
1.29019
1.2944
1.29876
1.30377
1.30931
1.31318
1.31337
1.30859
1.30145
1.29503
1.2924
1.30502
1.33065
1.3475
1.35316
1.36193
1.36671
1.37346
1.37843
1.38441
1.38879
1.39565
1.40065
1.22144
1.22278
1.22416
1.22562
1.22716
1.22876
1.23044
1.23219
1.23402
1.23593
1.23792
1.24
1.24217
1.24443
1.24678
1.24922
1.25176
1.25439
1.25712
1.25994
1.26285
1.26584
1.26892
1.27206
1.27527
1.27855
1.28189
1.2853
1.28886
1.29241
1.29626
1.30013
1.30197
1.30009
1.29375
1.28544
1.27831
1.27654
1.29323
1.32237
1.34154
1.3482
1.35775
1.36369
1.37114
1.37668
1.383
1.38778
1.39516
1.40064
1.21948
1.2208
1.22216
1.2236
1.2251
1.22668
1.22833
1.23005
1.23185
1.23373
1.23569
1.23773
1.23986
1.24207
1.24438
1.24677
1.24924
1.25181
1.25446
1.2572
1.26001
1.26288
1.26581
1.26878
1.27177
1.27476
1.27774
1.28069
1.28362
1.28638
1.28909
1.29127
1.291
1.28689
1.27879
1.2695
1.26276
1.26205
1.28322
1.31543
1.33633
1.34393
1.35397
1.36102
1.36913
1.37523
1.38183
1.38705
1.39496
1.4009
1.21751
1.2188
1.22014
1.22156
1.22305
1.22461
1.22623
1.22793
1.2297
1.23155
1.23348
1.23549
1.23758
1.23976
1.24202
1.24436
1.24679
1.2493
1.25189
1.25455
1.25727
1.26004
1.26285
1.26567
1.26847
1.27123
1.2739
1.27644
1.27882
1.28084
1.28247
1.28294
1.28045
1.2739
1.26383
1.25368
1.2467
1.25064
1.27533
1.31004
1.332
1.34038
1.35069
1.35876
1.36741
1.37412
1.38101
1.38672
1.39505
1.40142
1.21552
1.2168
1.21813
1.21953
1.221
1.22254
1.22414
1.22582
1.22757
1.22939
1.23129
1.23327
1.23533
1.23748
1.2397
1.24201
1.24439
1.24686
1.24939
1.25199
1.25464
1.25734
1.26004
1.26275
1.2654
1.26797
1.2704
1.27261
1.27453
1.2759
1.27652
1.27528
1.27044
1.26121
1.24899
1.23857
1.23183
1.24057
1.26955
1.30598
1.32859
1.3375
1.3481
1.35696
1.36598
1.37334
1.38059
1.38684
1.39544
1.40219
1.21354
1.21481
1.21613
1.21752
1.21897
1.22048
1.22207
1.22373
1.22545
1.22726
1.22913
1.23109
1.23312
1.23524
1.23743
1.23971
1.24206
1.24448
1.24698
1.24953
1.25213
1.25476
1.2574
1.26002
1.26257
1.26501
1.26725
1.26921
1.27077
1.27161
1.27131
1.26838
1.2611
1.249
1.23436
1.223
1.21975
1.23275
1.26592
1.30312
1.3259
1.33551
1.3463
1.35566
1.36486
1.37288
1.38059
1.38744
1.39616
1.40321
1.21157
1.21283
1.21413
1.21551
1.21694
1.21845
1.22001
1.22165
1.22336
1.22514
1.227
1.22893
1.23095
1.23304
1.23521
1.23746
1.23978
1.24218
1.24464
1.24716
1.24972
1.25231
1.2549
1.25747
1.25996
1.26231
1.26445
1.26626
1.26756
1.26797
1.26688
1.26237
1.25266
1.2377
1.22075
1.20936
1.20937
1.22773
1.26437
1.30147
1.32388
1.33433
1.34538
1.3549
1.36406
1.37271
1.38095
1.38849
1.39718
1.40449
1.2096
1.21085
1.21214
1.2135
1.21493
1.21642
1.21797
1.21959
1.22129
1.22305
1.22489
1.22681
1.2288
1.23087
1.23302
1.23525
1.23755
1.23993
1.24236
1.24486
1.2474
1.24997
1.25254
1.25508
1.25754
1.25987
1.26197
1.2637
1.26486
1.26499
1.26327
1.25737
1.24539
1.22774
1.20933
1.19854
1.20228
1.22601
1.26491
1.30102
1.32251
1.33388
1.34525
1.35464
1.36359
1.37279
1.38161
1.3899
1.39848
1.40601
1.20764
1.20887
1.21016
1.21151
1.21292
1.2144
1.21594
1.21755
1.21922
1.22098
1.2228
1.2247
1.22668
1.22873
1.23087
1.23308
1.23537
1.23772
1.24015
1.24263
1.24516
1.24771
1.25028
1.25282
1.25529
1.25763
1.25975
1.26149
1.26262
1.26263
1.26051
1.25351
1.23978
1.22024
1.20114
1.1919
1.19998
1.22803
1.26763
1.30166
1.32177
1.33407
1.34573
1.35477
1.36343
1.37303
1.38242
1.39152
1.39998
1.40778
1.20567
1.2069
1.20818
1.20952
1.21092
1.21238
1.21391
1.21551
1.21718
1.21891
1.22073
1.22261
1.22458
1.22662
1.22874
1.23094
1.23321
1.23556
1.23797
1.24045
1.24297
1.24553
1.2481
1.25065
1.25316
1.25555
1.25773
1.25957
1.26078
1.26083
1.25861
1.25101
1.23629
1.21606
1.19754
1.19092
1.20316
1.23405
1.27251
1.30321
1.32164
1.33468
1.34653
1.35512
1.36349
1.37338
1.38327
1.39317
1.40161
1.40978
1.2037
1.20493
1.20619
1.20753
1.20892
1.21038
1.21189
1.21348
1.21514
1.21687
1.21867
1.22054
1.2225
1.22453
1.22663
1.22882
1.23108
1.23342
1.23583
1.23829
1.24081
1.24338
1.24596
1.24855
1.2511
1.25356
1.25586
1.25784
1.25923
1.25951
1.2575
1.24997
1.23535
1.21589
1.19949
1.1963
1.21208
1.24393
1.27928
1.30554
1.32199
1.33544
1.34727
1.35539
1.36363
1.37374
1.38401
1.39465
1.40325
1.41198
1.20174
1.20296
1.20421
1.20554
1.20693
1.20837
1.20988
1.21146
1.21311
1.21482
1.21661
1.21848
1.22042
1.22244
1.22454
1.22671
1.22897
1.23129
1.23369
1.23615
1.23867
1.24124
1.24384
1.24646
1.24907
1.25162
1.25404
1.25622
1.25788
1.25853
1.25707
1.25034
1.2371
1.22
1.20713
1.20783
1.22614
1.25691
1.28745
1.30849
1.32258
1.33601
1.34749
1.35526
1.36364
1.37401
1.38453
1.39579
1.40479
1.41434
1.19978
1.20099
1.20224
1.20356
1.20493
1.20637
1.20788
1.20944
1.21108
1.21279
1.21457
1.21642
1.21836
1.22036
1.22245
1.22462
1.22686
1.22917
1.23156
1.23402
1.23653
1.2391
1.24172
1.24437
1.24702
1.24966
1.25223
1.25461
1.25659
1.25776
1.25716
1.25194
1.24124
1.22792
1.21961
1.22427
1.24389
1.27176
1.29624
1.31179
1.32315
1.33605
1.34679
1.35439
1.36332
1.37408
1.38475
1.39648
1.40609
1.41681
1.19781
1.19902
1.20026
1.20157
1.20295
1.20438
1.20587
1.20743
1.20906
1.21076
1.21253
1.21437
1.21629
1.21829
1.22037
1.22252
1.22475
1.22705
1.22942
1.23187
1.23437
1.23694
1.23956
1.24223
1.24493
1.24764
1.25034
1.25294
1.25526
1.25703
1.25749
1.25434
1.24706
1.23847
1.23526
1.24355
1.26329
1.28691
1.30474
1.3149
1.32341
1.33533
1.34488
1.35255
1.36247
1.37386
1.38461
1.39666
1.40713
1.41924
1.19585
1.19705
1.19829
1.1996
1.20096
1.20239
1.20387
1.20542
1.20704
1.20873
1.21049
1.21233
1.21423
1.21622
1.21828
1.22042
1.22263
1.22492
1.22727
1.2297
1.23219
1.23475
1.23736
1.24004
1.24276
1.24552
1.24832
1.25112
1.25378
1.25615
1.25779
1.25698
1.25356
1.25006
1.25193
1.26321
1.28207
1.30075
1.312
1.3172
1.32309
1.33371
1.34158
1.34964
1.36102
1.37329
1.38407
1.39635
1.4079
1.42148
1.19389
1.19508
1.19632
1.19762
1.19898
1.20039
1.20187
1.20342
1.20503
1.20671
1.20846
1.21028
1.21218
1.21415
1.21619
1.21831
1.22051
1.22277
1.22511
1.22751
1.22998
1.23252
1.23511
1.23777
1.2405
1.24329
1.24616
1.2491
1.25204
1.25497
1.25773
1.25925
1.25964
1.26103
1.26745
1.28094
1.29822
1.3119
1.31723
1.31811
1.32175
1.33054
1.33748
1.3458
1.35898
1.37239
1.38307
1.39554
1.40826
1.42362
1.19193
1.19311
1.19434
1.19564
1.19699
1.1984
1.19988
1.20141
1.20302
1.20469
1.20643
1.20824
1.21012
1.21208
1.21411
1.21621
1.21838
1.22062
1.22293
1.22531
1.22774
1.23025
1.23281
1.23544
1.23814
1.24093
1.24382
1.24685
1.25
1.25337
1.25706
1.26063
1.26434
1.26994
1.28005
1.29491
1.31022
1.31934
1.31985
1.31727
1.3191
1.32642
1.33225
1.3411
1.35646
1.37083
1.38194
1.39431
1.40824
1.42561
1.18996
1.19114
1.19237
1.19366
1.19501
1.19642
1.19788
1.19941
1.20101
1.20267
1.2044
1.2062
1.20807
1.21001
1.21202
1.2141
1.21625
1.21846
1.22074
1.22308
1.22548
1.22795
1.23046
1.23305
1.2357
1.23845
1.24133
1.24438
1.24764
1.25128
1.25564
1.26076
1.26705
1.27585
1.28855
1.30397
1.31718
1.32249
1.31947
1.31452
1.31523
1.3211
1.32622
1.33562
1.35381
1.36896
1.38035
1.39269
1.40792
1.42743
1.18799
1.18917
1.1904
1.19169
1.19303
1.19443
1.19589
1.19742
1.199
1.20066
1.20237
1.20416
1.20601
1.20794
1.20993
1.21199
1.21411
1.2163
1.21855
1.22085
1.22321
1.22562
1.22809
1.23061
1.2332
1.23589
1.2387
1.2417
1.24497
1.24871
1.25342
1.25952
1.26747
1.2783
1.29245
1.30767
1.31879
1.32118
1.31586
1.30972
1.30984
1.31486
1.31983
1.33093
1.3499
1.36659
1.37833
1.39078
1.40742
1.42904
1.18603
1.18721
1.18843
1.18971
1.19105
1.19245
1.19391
1.19542
1.197
1.19865
1.20035
1.20213
1.20397
1.20587
1.20785
1.20988
1.21198
1.21414
1.21635
1.21862
1.22093
1.22329
1.22569
1.22815
1.23066
1.23326
1.23597
1.23886
1.24204
1.24571
1.25047
1.25696
1.26566
1.27735
1.29178
1.30605
1.31511
1.31546
1.30901
1.3027
1.30292
1.30764
1.31303
1.32572
1.34624
1.364
1.37592
1.3887
1.40685
1.43044
1.18407
1.18524
1.18646
1.18775
1.18908
1.19048
1.19193
1.19344
1.19501
1.19664
1.19834
1.2001
1.20193
1.20382
1.20577
1.20779
1.20986
1.21199
1.21416
1.21639
1.21866
1.22096
1.2233
1.22569
1.22811
1.2306
1.23318
1.23592
1.23892
1.24237
1.24691
1.25327
1.26188
1.27334
1.28695
1.29954
1.30653
1.30551
1.29885
1.29342
1.29439
1.29939
1.30579
1.32032
1.34257
1.36109
1.37321
1.38655
1.40631
1.43161
1.18211
1.18328
1.1845
1.18578
1.18711
1.1885
1.18995
1.19145
1.19301
1.19464
1.19633
1.19808
1.19989
1.20177
1.2037
1.2057
1.20774
1.20984
1.21199
1.21418
1.2164
1.21865
1.22093
1.22324
1.22558
1.22795
1.23039
1.23294
1.2357
1.23882
1.2429
1.24868
1.2565
1.26677
1.27853
1.28872
1.29357
1.29156
1.28544
1.28163
1.28408
1.28996
1.298
1.31486
1.33878
1.35782
1.37025
1.38443
1.40583
1.43254
1.18016
1.18133
1.18254
1.18382
1.18515
1.18653
1.18797
1.18947
1.19102
1.19264
1.19432
1.19606
1.19786
1.19972
1.20164
1.20362
1.20564
1.20772
1.20983
1.21198
1.21417
1.21637
1.2186
1.22084
1.22309
1.22535
1.22764
1.22998
1.23245
1.23516
1.23862
1.24346
1.2499
1.25815
1.26713
1.27423
1.27667
1.27379
1.26888
1.26729
1.27187
1.27923
1.28958
1.30944
1.33491
1.35424
1.36711
1.38236
1.40545
1.4332
1.17821
1.17937
1.18058
1.18185
1.18318
1.18456
1.18599
1.18748
1.18904
1.19065
1.19232
1.19405
1.19584
1.19768
1.19959
1.20154
1.20355
1.2056
1.20769
1.20981
1.21196
1.21413
1.21631
1.21849
1.22066
1.22281
1.22495
1.22708
1.22925
1.23149
1.2342
1.23783
1.24239
1.2479
1.25329
1.25663
1.25626
1.2527
1.2493
1.25046
1.25753
1.26715
1.28074
1.30428
1.33107
1.3504
1.36386
1.38042
1.40513
1.43355
1.17626
1.17741
1.17861
1.17988
1.18121
1.18258
1.18401
1.1855
1.18705
1.18865
1.19031
1.19204
1.19381
1.19565
1.19754
1.19948
1.20147
1.2035
1.20557
1.20767
1.20979
1.21193
1.21406
1.2162
1.2183
1.22037
1.22237
1.22429
1.22615
1.2279
1.22979
1.23197
1.23425
1.23639
1.2375
1.23649
1.23307
1.22887
1.22727
1.23154
1.24161
1.2543
1.27207
1.29954
1.32736
1.34642
1.36062
1.37873
1.40471
1.43347
1.17429
1.17544
1.17664
1.17791
1.17923
1.1806
1.18203
1.18352
1.18506
1.18665
1.18831
1.19002
1.19179
1.19362
1.19549
1.19742
1.1994
1.20141
1.20346
1.20555
1.20765
1.20976
1.21187
1.21397
1.21603
1.21802
1.21991
1.22165
1.22321
1.22446
1.22549
1.22606
1.22571
1.22399
1.22032
1.21462
1.20813
1.20343
1.20381
1.21143
1.22492
1.2414
1.26438
1.29537
1.3238
1.34254
1.35759
1.37723
1.40403
1.43283
1.17231
1.17346
1.17466
1.17593
1.17725
1.17862
1.18005
1.18153
1.18306
1.18465
1.1863
1.18801
1.18977
1.19158
1.19345
1.19536
1.19733
1.19933
1.20137
1.20344
1.20553
1.20763
1.20972
1.2118
1.21383
1.21577
1.21757
1.21916
1.22045
1.22125
1.2214
1.22025
1.21704
1.2112
1.20257
1.19231
1.18298
1.17809
1.1806
1.19148
1.20886
1.22998
1.25841
1.29214
1.32048
1.33892
1.35491
1.37577
1.40301
1.43162
1.17033
1.17148
1.17269
1.17395
1.17527
1.17664
1.17806
1.17953
1.18106
1.18265
1.18429
1.18598
1.18773
1.18954
1.19139
1.1933
1.19525
1.19724
1.19927
1.20133
1.20342
1.20552
1.20761
1.20969
1.2117
1.21362
1.21536
1.21684
1.21791
1.21829
1.21761
1.21474
1.20861
1.19869
1.18543
1.17121
1.15981
1.15513
1.15991
1.17426
1.19545
1.22173
1.25497
1.29013
1.31755
1.33565
1.35255
1.37425
1.4016
1.42985
1.16835
1.1695
1.17071
1.17197
1.17328
1.17465
1.17606
1.17753
1.17905
1.18063
1.18226
1.18395
1.18569
1.18748
1.18932
1.19122
1.19316
1.19515
1.19717
1.19923
1.20131
1.20342
1.20552
1.20761
1.20963
1.21155
1.21328
1.21468
1.2156
1.21563
1.21422
1.20973
1.20089
1.18734
1.17038
1.15342
1.14094
1.13705
1.14415
1.16171
1.18683
1.21802
1.25454
1.28942
1.31508
1.33278
1.35038
1.37256
1.39974
1.42751
1.16638
1.16753
1.16873
1.16999
1.17129
1.17265
1.17406
1.17552
1.17703
1.1786
1.18022
1.18189
1.18362
1.1854
1.18724
1.18912
1.19105
1.19303
1.19505
1.19711
1.1992
1.20131
1.20344
1.20554
1.2076
1.20954
1.21128
1.21267
1.2135
1.2133
1.21129
1.20544
1.1944
1.17816
1.15892
1.14082
1.12852
1.12605
1.13545
1.15591
1.18465
1.21946
1.25707
1.28985
1.3131
1.33025
1.34824
1.37055
1.39737
1.42459
1.16441
1.16555
1.16675
1.168
1.16929
1.17064
1.17204
1.17349
1.17499
1.17655
1.17815
1.17982
1.18153