/*--------------------------------*- C++ -*----------------------------------*\
  =========                 |
  \\      /  F ield         | OpenFOAM: The Open Source CFD Toolbox
   \\    /   O peration     | Website:  https://openfoam.org
    \\  /    A nd           | Version:  9
     \\/     M anipulation  |
\*---------------------------------------------------------------------------*/
FoamFile
{
    format      ascii;
    class       volScalarField;
    location    "0.07";
    object      p_rgh;
}
// * * * * * * * * * * * * * * * * * * * * * * * * * * * * * * * * * * * * * //

dimensions      [1 -1 -2 0 0 0 0];

internalField   nonuniform List<scalar> 
5000
(
-0.000127266
-0.000301908
-0.000472231
-0.000663978
-0.000887282
-0.00115422
-0.00147916
-0.00187839
-0.00237083
-0.00297883
-0.00372927
-0.00465489
-0.00579606
-0.00720318
-0.0089401
-0.011089
-0.0137581
-0.0170929
-0.0212945
-0.0266449
-0.0335323
-0.0424187
-0.0535005
-0.0653111
-0.0714397
-0.0612452
-0.0502503
-0.0920447
-0.226003
-0.56521
-1.10689
-1.02956
-0.692182
-0.557014
-0.677919
-0.904946
-0.941981
-0.657617
-0.500692
-0.247583
-1.01803
-0.209728
-0.293329
-0.223097
-0.122021
-0.166698
-0.114017
-0.182695
-0.182977
-0.244777
-0.000176625
-0.000439035
-0.000671325
-0.000914321
-0.00117935
-0.00147731
-0.00182181
-0.00222869
-0.00271636
-0.00330652
-0.00402511
-0.00490344
-0.00597961
-0.00730035
-0.00892349
-0.0109209
-0.0133817
-0.0164157
-0.0201536
-0.024738
-0.0302876
-0.0368104
-0.0440681
-0.0515465
-0.0587521
-0.0649689
-0.0799641
-0.13138
-0.238959
-0.472698
-0.805537
-0.692582
-0.564206
-0.504554
-0.61908
-0.734389
-0.742443
-0.564779
-0.467457
-0.205078
-0.692197
-0.202232
-0.276007
-0.193439
-0.127279
-0.179779
-0.107318
-0.164508
-0.155166
-0.226812
-0.000117125
-0.000330872
-0.000505093
-0.000693219
-0.000904289
-0.00114516
-0.00142632
-0.00176086
-0.00216448
-0.0026561
-0.00325839
-0.00399849
-0.00490897
-0.00602912
-0.00740635
-0.00909757
-0.01117
-0.0137013
-0.0167779
-0.0204903
-0.0249249
-0.0301533
-0.0362117
-0.0430725
-0.0507484
-0.0591886
-0.0736099
-0.111943
-0.173502
-0.291703
-0.530983
-0.424149
-0.345113
-0.369356
-0.452824
-0.541898
-0.540742
-0.399607
-0.386071
-0.133779
-0.457891
-0.123895
-0.239211
-0.168433
-0.114255
-0.168532
-0.102157
-0.154951
-0.125044
-0.202428
-9.31533e-05
-0.00020893
-0.000283853
-0.000370975
-0.000477759
-0.000608852
-0.000772707
-0.000979886
-0.00124316
-0.00157795
-0.00200263
-0.00253912
-0.00321353
-0.00405715
-0.00510729
-0.00640783
-0.00800969
-0.00997152
-0.0123605
-0.0152532
-0.0187372
-0.0229079
-0.0278308
-0.0334363
-0.0395257
-0.0457292
-0.0536946
-0.0762507
-0.10748
-0.152558
-0.297159
-0.22165
-0.1609
-0.235695
-0.29151
-0.360528
-0.347469
-0.248776
-0.297992
-0.0964857
-0.29482
-0.0788926
-0.193979
-0.13927
-0.09856
-0.14923
-0.0898431
-0.140844
-0.0925866
-0.170429
-4.7907e-05
-5.47174e-05
-4.73964e-06
3.87028e-05
6.91498e-05
8.3734e-05
7.58815e-05
3.72555e-05
-4.20856e-05
-0.000173989
-0.000372503
-0.000654318
-0.00103942
-0.00155173
-0.00221949
-0.00307533
-0.00415643
-0.00550484
-0.00716735
-0.00919464
-0.0116373
-0.0145342
-0.0178842
-0.0216111
-0.0256442
-0.029755
-0.0332866
-0.0444027
-0.0585909
-0.0590416
-0.129231
-0.0828503
-0.0273377
-0.132816
-0.16444
-0.213856
-0.188202
-0.132588
-0.219323
-0.079749
-0.188599
-0.0522343
-0.149345
-0.108073
-0.0814583
-0.127136
-0.0739604
-0.119112
-0.0604725
-0.135288
6.36007e-06
0.00012754
0.000323446
0.000520017
0.00071169
0.000897492
0.00107265
0.00123104
0.00136556
0.00146781
0.00152794
0.00153411
0.00147213
0.00132504
0.00107333
0.000695266
0.000167359
-0.000534841
-0.00143575
-0.00255877
-0.00392215
-0.0055294
-0.00735928
-0.00935552
-0.0115113
-0.0137747
-0.0142583
-0.0168199
-0.0200978
0.0050054
-0.0179872
0.00969148
0.0643623
-0.0555758
-0.0666575
-0.104253
-0.0662248
-0.0425533
-0.150313
-0.0642616
-0.120722
-0.0295159
-0.108589
-0.0786306
-0.0613904
-0.102907
-0.0556268
-0.0947347
-0.0315985
-0.10098
6.43445e-05
0.000327045
0.000683949
0.00104908
0.00141788
0.00179137
0.00216653
0.00253934
0.00290538
0.00325952
0.00359573
0.00390666
0.00418343
0.00441563
0.00459186
0.00470025
0.00472954
0.00467003
0.00451343
0.00425209
0.00388369
0.00341726
0.00287524
0.00233255
0.00188913
0.00159256
0.00378076
0.00798388
0.0127901
0.052028
0.0572896
0.0715169
0.1223
0.00450765
0.0085246
-0.0231389
0.0231673
0.0279165
-0.0910099
-0.0469238
-0.0761763
-0.0109131
-0.0741603
-0.0522369
-0.0393881
-0.0766738
-0.035774
-0.0704308
-0.00672302
-0.0691991
0.000121616
0.00053438
0.00106153
0.00160453
0.00215988
0.00273058
0.00331517
0.00391165
0.00451807
0.00513228
0.00575161
0.00637264
0.00699113
0.00760241
0.0082018
0.00878549
0.00935232
0.00990357
0.0104408
0.0109657
0.0114888
0.0120327
0.012629
0.0133749
0.0144923
0.0160935
0.0204473
0.0294795
0.0398757
0.0861232
0.108609
0.111267
0.153906
0.0509555
0.0652206
0.0403522
0.0812778
0.0827021
-0.0410883
-0.0289234
-0.0442478
0.0047619
-0.0452264
-0.0280794
-0.0168384
-0.0497683
-0.0151428
-0.0461336
0.0137473
-0.0400094
0.000173637
0.000740056
0.00144058
0.00216458
0.00290964
0.0036805
0.00447717
0.00529941
0.00614753
0.00702192
0.00792281
0.00885011
0.00980358
0.0107831
0.0117892
0.0128249
0.0138974
0.0150164
0.0161908
0.0174308
0.0187593
0.0202146
0.0218449
0.0237302
0.0261687
0.0293436
0.0351166
0.0471059
0.0605623
0.108805
0.140287
0.134309
0.168555
0.0857287
0.106191
0.0867353
0.119776
0.124259
0.000945365
-0.00980374
-0.0181874
0.0196161
-0.0190047
-0.00517217
0.00529041
-0.0235335
0.00500108
-0.0217239
0.0303613
-0.0128071
0.000215527
0.000934818
0.00180638
0.00270886
0.0036409
0.00460871
0.00561359
0.00665694
0.00774099
0.00886819
0.0100411
0.0112626
0.0125356
0.0138636
0.0152514
0.0167078
0.0182465
0.0198835
0.0216336
0.0235158
0.0255594
0.0278121
0.0303323
0.0331828
0.0366385
0.0409972
0.0476509
0.0611548
0.0757303
0.122973
0.156516
0.146798
0.176054
0.111037
0.134896
0.120105
0.14605
0.152192
0.0368029
0.012481
0.00610036
0.0347822
0.00640545
0.0166385
0.0262877
0.00124794
0.0240978
0.000325795
0.0457011
0.0123319
0.000242229
0.00110949
0.00214522
0.00321903
0.0043304
0.00548678
0.00669064
0.00794483
0.00925308
0.0106195
0.0120486
0.0135453
0.0151151
0.0167642
0.0185009
0.0203392
0.0222978
0.0243961
0.0266531
0.0290924
0.0317453
0.0346684
0.0379154
0.0415468
0.0458063
0.0510073
0.0582107
0.0723512
0.0872886
0.131818
0.16257
0.152345
0.179902
0.128654
0.154584
0.144018
0.163149
0.168309
0.0674777
0.0371655
0.03131
0.0515343
0.0316307
0.0371176
0.0456048
0.0241275
0.0421004
0.0205482
0.0601898
0.0339439
0.000248938
0.00125583
0.00244529
0.00367961
0.00495884
0.00629147
0.00768097
0.00913126
0.0106472
0.0122342
0.0138983
0.0156464
0.0174853
0.0194227
0.0214702
0.0236458
0.0259719
0.0284691
0.0311593
0.0340683
0.0372297
0.0406978
0.0445261
0.0487779
0.0536685
0.0595072
0.0671138
0.0814854
0.0967225
0.13709
0.162737
0.153636
0.180479
0.139781
0.167575
0.161023
0.17329
0.176532
0.0920069
0.062561
0.0569891
0.0702406
0.0564569
0.056096
0.0629274
0.0447915
0.0589527
0.0393404
0.0738991
0.0514604
0.000231194
0.00136693
0.00269689
0.00407801
0.00551075
0.00700445
0.00856328
0.0101918
0.0118957
0.0136812
0.0155559
0.0175277
0.0196045
0.0217946
0.0241111
0.0265751
0.0292121
0.032047
0.035101
0.0383935
0.0419667
0.0458719
0.05016
0.0548934
0.0602635
0.0665913
0.0745269
0.0885577
0.104606
0.139739
0.159682
0.152049
0.177733
0.145519
0.175412
0.172959
0.17854
0.180368
0.110749
0.086593
0.0819151
0.0897165
0.0799905
0.0734931
0.0776724
0.0638002
0.0745022
0.0564006
0.0862768
0.0662022
0.000185214
0.00143768
0.0028933
0.00440568
0.00597573
0.00761328
0.00932292
0.0111096
0.0129794
0.0149393
0.0169977
0.0191632
0.0214439
0.0238492
0.0263935
0.0290977
0.0319864
0.035089
0.0384323
0.0420319
0.0459259
0.050164
0.0547988
0.0598932
0.0656189
0.0723134
0.0805884
0.0943532
0.110342
0.140262
0.154798
0.147982
0.17134
0.146788
0.179052
0.180879
0.180388
0.179991
0.125856
0.108622
0.104756
0.10839
0.101138
0.0893454
0.0911393
0.0804533
0.08856
0.0716004
0.0970692
0.0790422
0.000108084
0.00146426
0.00302979
0.00465699
0.00634718
0.00811034
0.00995111
0.0118745
0.0138867
0.0159956
0.0182103
0.0205397
0.0229913
0.0255733
0.0283003
0.0311933
0.0342779
0.0375835
0.0411364
0.044959
0.049082
0.0535516
0.0584231
0.0637633
0.0697308
0.0766546
0.0851152
0.0985066
0.114263
0.138886
0.148848
0.141288
0.160945
0.144233
0.179075
0.185282
0.179436
0.178145
0.13824
0.127946
0.124628
0.125119
0.119199
0.103432
0.103514
0.0946718
0.101165
0.0850748
0.106422
0.0906598
-1.78831e-06
0.00144469
0.00310399
0.00482917
0.00662203
0.00849243
0.0104448
0.0124839
0.0146156
0.0168479
0.0191904
0.0216523
0.0242413
0.0269657
0.0298377
0.0328745
0.0361006
0.0395464
0.0432347
0.0471953
0.0514566
0.0560593
0.0610574
0.0665202
0.0726026
0.0796135
0.088061
0.100734
0.115865
0.135913
0.141932
0.131767
0.146754
0.138452
0.175953
0.18659
0.176876
0.17597
0.147893
0.143847
0.141043
0.139277
0.133961
0.115573
0.114322
0.106993
0.112404
0.096954
0.11448
0.100298
-0.000144537
0.00137926
0.00311653
0.00492322
0.00680167
0.00876135
0.0108062
0.0129401
0.0151686
0.0174999
0.0199438
0.0225097
0.0252052
0.0280383
0.0310192
0.0341605
0.0374834
0.0410158
0.0447783
0.0488018
0.0531143
0.0577533
0.0627687
0.0682277
0.0742814
0.0812137
0.0894514
0.101131
0.114971
0.131119
0.1336
0.119631
0.129886
0.130259
0.170302
0.185159
0.173712
0.174088
0.154958
0.156047
0.153859
0.150695
0.14561
0.125884
0.123601
0.117664
0.122272
0.107323
0.121466
0.107987
-0.000319086
0.00126976
0.00306979
0.00494236
0.00689027
0.00892235
0.0110419
0.0132519
0.0155572
0.017965
0.0204846
0.0231255
0.0258957
0.0288042
0.0318597
0.0350711
0.0384545
0.0420302
0.0458161
0.0498403
0.0541289
0.0587172
0.06365
0.0689874
0.0748694
0.0815432
0.0893603
0.0998604
0.111883
0.124218
0.123698
0.105725
0.112216
0.120727
0.162978
0.181328
0.170428
0.172978
0.159887
0.164724
0.163237
0.159557
0.154575
0.13457
0.131574
0.126805
0.130823
0.116318
0.127649
0.114631
-0.000522761
0.00112044
0.00296941
0.00489364
0.00689655
0.00898604
0.0111643
0.0134332
0.0157964
0.0182604
0.0208337
0.0235248
0.0263419
0.0292947
0.0323911
0.0356377
0.0390462
0.042628
0.0463967
0.0503747
0.0545833
0.059053
0.0638212
0.0689379
0.0745208
0.0807698
0.0879472
0.0970607
0.106955
0.115679
0.112736
0.0915255
0.0958427
0.111125
0.155029
0.175561
0.167232
0.172771
0.163143
0.170324
0.169572
0.166216
0.161352
0.141783
0.138368
0.13457
0.138189
0.124109
0.13314
0.120579
-0.000751699
0.000937224
0.00282357
0.00478699
0.00683121
0.00896363
0.0111862
0.0135001
0.0159077
0.018414
0.0210255
0.0237486
0.0265905
0.0295611
0.0326684
0.0359182
0.0393193
0.0428761
0.0465963
0.050495
0.0545856
0.0588907
0.0634373
0.0682625
0.0734527
0.0791549
0.0855202
0.0931335
0.100873
0.106467
0.101749
0.0786552
0.0824802
0.102682
0.147383
0.168702
0.16421
0.173185
0.165075
0.173439
0.173401
0.171025
0.16637
0.147669
0.144088
0.141111
0.14449
0.130839
0.137975
0.125887
-0.00100166
0.000725594
0.00263969
0.00463247
0.00670755
0.00887137
0.0111259
0.0134724
0.0159128
0.0184508
0.0210902
0.0238342
0.0266882
0.0296608
0.0327598
0.0359906
0.03936
0.042868
0.0465172
0.050315
0.0542662
0.0583836
0.0626818
0.0671822
0.071937
0.0770393
0.0825321
0.0887106
0.0945286
0.0976729
0.0921152
0.0680737
0.0732258
0.096227
0.140667
0.161892
0.161394
0.173642
0.165934
0.174731
0.175331
0.174261
0.169952
0.15239
0.14886
0.146555
0.149814
0.136626
0.142223
0.130657
-0.00126621
0.000495303
0.00243048
0.00444446
0.00654096
0.00872593
0.0110013
0.0133687
0.0158307
0.0183905
0.0210501
0.0238095
0.0266706
0.0296396
0.0327223
0.0359233
0.039248
0.0426944
0.0462614
0.0499502
0.053758
0.0576875
0.0617402
0.0659218
0.0702529
0.0747778
0.0794581
0.0843943
0.0886477
0.090116
0.0858338
0.0602221
0.0673524
0.0919724
0.135412
0.15603
0.158749
0.17346
0.1659
0.174829
0.175967
0.176108
0.172315
0.156107
0.152822
0.151012
0.154233
0.14157
0.145945
0.134865
-0.00153949
0.000254264
0.00220704
0.0042378
0.00634951
0.00854812
0.0108361
0.0132156
0.0156896
0.0182616
0.0209324
0.0237002
0.0265642
0.0295275
0.0325928
0.0357628
0.0390412
0.0424257
0.0459128
0.0494986
0.0531747
0.056935
0.0607704
0.0646718
0.0686347
0.072662
0.0766689
0.0806011
0.0835919
0.0836128
0.077849
0.0592338
0.0655094
0.0898877
0.132004
0.15164
0.156189
0.172051
0.165082
0.174231
0.175824
0.176699
0.173611
0.158968
0.156099
0.154587
0.15781
0.145767
0.149189
0.138983
-0.00181585
1.09887e-05
0.00198078
0.00402825
0.00615505
0.00836574
0.0106628
0.013049
0.0155276
0.0181024
0.0207741
0.0235408
0.0264009
0.0293554
0.0324039
0.0355463
0.0387842
0.0421153
0.0455342
0.0490333
0.0526007
0.0562242
0.0598871
0.0635688
0.0672454
0.0708891
0.0743878
0.0775864
0.0796802
0.078963
0.0734022
0.0589055
0.0656524
0.0893684
0.130563
0.148976
0.153601
0.169059
0.163544
0.17323
0.175149
0.176307
0.174001
0.161101
0.158794
0.157377
0.1606
0.149293
0.151957
0.142535
-0.00209109
-0.000226111
0.00176415
0.00383116
0.0059764
0.00820228
0.0105101
0.0129021
0.0153821
0.0179534
0.0206179
0.0233748
0.0262235
0.0291638
0.032194
0.0353116
0.0385163
0.0418051
0.0451717
0.0486059
0.0520937
0.0556199
0.0591631
0.0626947
0.0661775
0.0695618
0.0727177
0.0754369
0.0769792
0.0759652
0.0710826
0.0596536
0.067026
0.0911779
0.12972
0.147858
0.150856
0.16445
0.161362
0.171978
0.174168
0.175111
0.173615
0.162561
0.161033
0.159479
0.162655
0.152242
0.154292
0.145527
-0.00236233
-0.00044899
0.00157164
0.00366628
0.00583579
0.00808127
0.0104031
0.012803
0.0152836
0.0178483
0.0205002
0.023241
0.0260712
0.0289913
0.0319997
0.0350937
0.0382714
0.0415291
0.0448598
0.048252
0.0516912
0.0551607
0.0586372
0.0620868
0.0654639
0.068704
0.0716645
0.0741045
0.0753432
0.0742715
0.0700582
0.0612574
0.0690962
0.0934391
0.130931
0.148025
0.147893
0.158558
0.158683
0.170547
0.172939
0.173336
0.172595
0.163879
0.162427
0.160934
0.163998
0.154713
0.15636
0.148094
-0.00261762
-0.000625632
0.00144694
0.00358303
0.00578248
0.00804687
0.0103788
0.012781
0.0152561
0.0178079
0.0204411
0.0231598
0.0259662
0.0288615
0.0318457
0.0349171
0.0380734
0.0413105
0.0446207
0.0479927
0.0514122
0.0548625
0.0583198
0.061748
0.0650964
0.0682901
0.0711769
0.073492
0.0746026
0.0736254
0.0700238
0.0633344
0.0716731
0.0964977
0.133357
0.148732
0.14475
0.152043
0.155779
0.168939
0.171526
0.171132
0.171044
0.164535
0.163607
0.16183
0.164623
0.15673
0.15742
0.1511
-0.00278659
-0.000619321
0.00153577
0.0037114
0.00592227
0.00817947
0.0104935
0.0128721
0.0153201
0.0178426
0.0204458
0.0231347
0.0259122
0.0287801
0.0317396
0.0347907
0.0379312
0.0411567
0.0444602
0.0478311
0.0512563
0.0547197
0.0581983
0.061656
0.0650399
0.0682674
0.0711783
0.073489
0.0746014
0.0738066
0.0707364
0.0658724
0.0748653
0.100377
0.136165
0.14932
0.141585
0.145784
0.153021
0.167127
0.169876
0.168756
0.16922
0.164698
0.164357
0.16244
0.164841
0.158219
0.158637
0.153449
-0.00222029
0.000192336
0.00223456
0.00429863
0.00640573
0.00856669
0.0107947
0.0130981
0.0154816
0.0179492
0.0205056
0.0231545
0.0258978
0.0287367
0.0316727
0.0347065
0.0378364
0.0410586
0.0443671
0.0477532
0.0512054
0.0547086
0.0582417
0.0617706
0.0652421
0.0685685
0.0715822
0.0739837
0.0751977
0.0746416
0.0720052
0.0688505
0.0788425
0.104683
0.138858
0.149476
0.13873
0.140756
0.150829
0.165132
0.167976
0.166446
0.167362
0.164555
0.164761
0.162651
0.164633
0.159205
0.159878
0.155409
0.001192
0.00255425
0.00387644
0.00546688
0.00724685
0.0091759
0.0112351
0.0134123
0.0156997
0.0180933
0.0205914
0.0231936
0.0258999
0.0287102
0.0316253
0.0346456
0.0377698
0.0409955
0.0443188
0.0477331
0.0512289
0.0547929
0.0584066
0.0620391
0.0656392
0.0691167
0.072298
0.0748686
0.0762651
0.0759741
0.0737091
0.0722017
0.0834801
0.109165
0.141103
0.149262
0.136593
0.137868
0.149551
0.163033
0.165889
0.164379
0.165619
0.164139
0.164853
0.162574
0.16426
0.159771
0.160837
0.157171
0.00103797
0.00257479
0.00414137
0.00582955
0.00761807
0.00951153
0.0115154
0.0136316
0.0158604
0.0182012
0.0206534
0.0232165
0.0258909
0.0286771
0.0315755
0.0345862
0.037709
0.0409436
0.0442883
0.0477395
0.0512899
0.0549287
0.0586412
0.0624009
0.0661598
0.0698283
0.0732309
0.076038
0.0776797
0.0776615
0.0758001
0.0758914
0.088576
0.113616
0.142606
0.14955
0.135019
0.13781
0.149415
0.16096
0.16373
0.162682
0.164084
0.163395
0.164771
0.162306
0.16361
0.160196
0.161627
0.158789
0.000901902
0.00245386
0.00410073
0.00585013
0.0076802
0.00959553
0.011603
0.0137087
0.0159181
0.0182348
0.020661
0.023199
0.0258512
0.0286197
0.0315055
0.0345096
0.0376336
0.0408795
0.0442485
0.0477396
0.0513487
0.0550689
0.0588898
0.0627902
0.066727
0.0706139
0.0742773
0.0773782
0.0793294
0.0796354
0.0782851
0.0799399
0.0939538
0.117849
0.142992
0.147193
0.138281
0.140709
0.150447
0.159064
0.161636
0.161414
0.162846
0.162845
0.164098
0.161823
0.162835
0.160539
0.162341
0.160313
0.00084232
0.00243535
0.00410022
0.00585036
0.00768204
0.00959901
0.0116051
0.0137051
0.0159041
0.0182065
0.0206162
0.0231371
0.0257732
0.0285275
0.0314025
0.0344007
0.0375257
0.0407819
0.0441731
0.0477014
0.0513667
0.0551668
0.0590964
0.0631404
0.0672626
0.0713832
0.075335
0.0787791
0.0811257
0.0818731
0.0812057
0.0844271
0.0995368
0.121889
0.142941
0.146319
0.142051
0.146027
0.152283
0.157462
0.159718
0.160542
0.161824
0.162023
0.163395
0.16115
0.162102
0.160807
0.163006
0.161778
0.000835206
0.00244035
0.00410351
0.00584511
0.0076675
0.00957466
0.0115707
0.0136596
0.0158457
0.0181334
0.0205275
0.0230326
0.0256531
0.0283931
0.031256
0.0342461
0.0373692
0.0406313
0.0440385
0.0475963
0.0513092
0.05518
0.0592092
0.0633887
0.067691
0.072048
0.0763058
0.0801401
0.0829821
0.0843326
0.0846054
0.0894319
0.105303
0.125817
0.142677
0.146171
0.14669
0.152709
0.154395
0.156205
0.158052
0.159927
0.160953
0.161055
0.162741
0.160292
0.161398
0.16105
0.163647
0.163203
0.000827532
0.0024223
0.00407502
0.00580672
0.0076183
0.00951405
0.0114982
0.0135743
0.0157461
0.0180182
0.0203956
0.0228834
0.0254864
0.0282092
0.0310569
0.0340351
0.0371508
0.0404115
0.0438252
0.0474007
0.0511473
0.0550728
0.0591834
0.0634788
0.0679429
0.072524
0.0770902
0.08135
0.0847875
0.0869308
0.0884388
0.0949073
0.111149
0.129599
0.142405
0.146286
0.151491
0.158824
0.156721
0.15527
0.156611
0.159377
0.16012
0.159929
0.161496
0.159912
0.160869
0.161322
0.164292
0.164591
0.000819713
0.00239759
0.00403402
0.00575021
0.00754639
0.0094266
0.0113947
0.0134542
0.0156086
0.0178625
0.0202207
0.0226881
0.0252698
0.0279715
0.0307993
0.0337599
0.0368608
0.0401104
0.0435186
0.0470972
0.0508591
0.0548169
0.0589825
0.0633637
0.0679578
0.0727331
0.0775887
0.082284
0.0863921
0.0894968
0.0924863
0.100569
0.116783
0.133045
0.142226
0.146375
0.155265
0.163418
0.157963
0.154358
0.155257
0.158654
0.159205
0.158712
0.160396
0.159335
0.160468
0.161626
0.164961
0.16594
0.000812134
0.00237238
0.0039899
0.00568703
0.00746401
0.0093242
0.0112713
0.0133089
0.0154412
0.0176723
0.0200065
0.0224484
0.0250038
0.0276792
0.0304811
0.0334166
0.0364934
0.0397206
0.0431096
0.0466742
0.0504301
0.0543932
0.0585805
0.0630084
0.0676877
0.0726093
0.0777083
0.0828104
0.087607
0.0917559
0.0963282
0.105867
0.121683
0.135777
0.14195
0.145978
0.156879
0.165096
0.157492
0.153101
0.153663
0.157638
0.1581
0.157374
0.159298
0.158751
0.160204
0.161957
0.165664
0.167242
0.000806771
0.00234885
0.00394424
0.00561938
0.00737406
0.00921066
0.0111328
0.0131446
0.01525
0.0174528
0.0197573
0.0221683
0.0246919
0.0273348
0.0301037
0.0330053
0.0360476
0.0392403
0.0425954
0.0461276
0.0498538
0.0537923
0.0579642
0.0623932
0.0671023
0.0721046
0.0773726
0.0828052
0.0882253
0.0933667
0.0994143
0.110085
0.125176
0.137252
0.141072
0.144494
0.155495
0.162957
0.154777
0.151107
0.152028
0.155714
0.156681
0.155868
0.158129
0.158215
0.160098
0.162328
0.166408
0.168499
0.000811246
0.00233155
0.00389934
0.00554912
0.00727804
0.00908758
0.0109816
0.0129639
0.0150382
0.0172081
0.0194779
0.0218531
0.0243395
0.0269437
0.0296719
0.0325307
0.0355281
0.0386741
0.0419805
0.0454616
0.049134
0.0530173
0.0571352
0.0615163
0.0661934
0.0711975
0.0765356
0.0821759
0.0880656
0.0940019
0.101206
0.112534
0.126602
0.13689
0.138944
0.141259
0.150832
0.156674
0.149421
0.147928
0.149689
0.153239
0.155019
0.154134
0.156902
0.157704
0.160125
0.162748
0.167194
0.169731
0.000824507
0.00231744
0.00385525
0.00547814
0.00717872
0.00895832
0.0108211
0.0127707
0.0148101
0.0169434
0.019175
0.0215103
0.0239549
0.0265145
0.029195
0.0320029
0.034946
0.0380338
0.0412773
0.0446892
0.0482852
0.0520842
0.056111
0.0603961
0.0649775
0.0698984
0.0751925
0.0808843
0.0870209
0.0934423
0.101335
0.112757
0.125529
0.134215
0.135031
0.13587
0.142722
0.146514
0.141367
0.143357
0.146632
0.150033
0.152861
0.15248
0.155676
0.157218
0.160249
0.163204
0.167999
0.170943
0.000829816
0.00229179
0.00380234
0.00539902
0.00707111
0.00882045
0.0106512
0.0125664
0.0145695
0.0166645
0.0188559
0.0211487
0.0235477
0.0260581
0.0286855
0.031436
0.0343171
0.0373368
0.0405048
0.0438318
0.0473315
0.0510213
0.0549242
0.0590696
0.0634957
0.0682512
0.0733858
0.0789611
0.0850909
0.0916383
0.0996973
0.110657
0.121892
0.129053
0.128848
0.12808
0.131678
0.133147
0.130976
0.137436
0.142919
0.146429
0.15027
0.150648
0.154477
0.156768
0.160459
0.163664
0.16882
0.172229
0.000821708
0.00225522
0.00374099
0.005311
0.00695441
0.00867355
0.0104721
0.0123531
0.01432
0.0163768
0.0185275
0.0207764
0.0231276
0.0255861
0.0281571
0.0308461
0.0336594
0.0366036
0.0396863
0.0429164
0.0463049
0.049866
0.0536189
0.057589
0.0618101
0.0663294
0.0712016
0.0765051
0.0823857
0.0887169
0.0964608
0.106479
0.115999
0.121616
0.120479
0.117942
0.118265
0.117655
0.118967
0.130448
0.138631
0.142399
0.147504
0.148699
0.153444
0.15638
0.160719
0.164137
0.169736
0.173494
0.000805472
0.0022147
0.00367694
0.00521998
0.00683462
0.00852341
0.0102898
0.0121369
0.0140681
0.0160869
0.0181967
0.0204011
0.0227041
0.0251099
0.0276234
0.0302489
0.0329912
0.0358554
0.0388471
0.0419731
0.0452411
0.0486611
0.0522468
0.0560167
0.0599973
0.0642281
0.068759
0.073667
0.0791018
0.0849393
0.0919886
0.100708
0.108404
0.112357
0.110177
0.10594
0.103347
0.101252
0.106254
0.122872
0.134002
0.138232
0.144665
0.147015
0.152335
0.156047
0.161012
0.164658
0.170758
0.174841
0.000785034
0.00217364
0.00361338
0.00512972
0.00671613
0.00837523
0.0101103
0.0119243
0.0138203
0.0158014
0.0178705
0.0200311
0.0222866
0.0246407
0.0270972
0.0296593
0.03233
0.0351132
0.0380127
0.0410326
0.0441771
0.0474509
0.0508613
0.054419
0.0581402
0.0620527
0.0661936
0.0706257
0.0754813
0.0806347
0.0867329
0.093922
0.099734
0.101869
0.0984793
0.0927027
0.0878139
0.085027
0.0937988
0.115234
0.129325
0.134188
0.141874
0.145433
0.151459
0.155836
0.161362
0.165365
0.171792
0.176328
0.000768047
0.00213661
0.0035501
0.00503946
0.00659911
0.00823026
0.00993571
0.0117182
0.0135805
0.0155252
0.0175553
0.0196739
0.0218841
0.0241887
0.0265902
0.0290906
0.0316921
0.0343968
0.0372069
0.0401237
0.0431473
0.0462773
0.0495142
0.0528601
0.0563201
0.0599073
0.0636415
0.0675621
0.0717715
0.0761373
0.081142
0.0866859
0.0905502
0.0907451
0.0859652
0.0788256
0.0724004
0.0697766
0.0823893
0.108026
0.124872
0.130534
0.139301
0.144082
0.15083
0.155803
0.161781
0.166159
0.173018
0.178023
0.000769407
0.00211307
0.00349573
0.00495851
0.00649187
0.00809538
0.00977185
0.0115239
0.0133537
0.0152641
0.0172576
0.0193371
0.0215048
0.0237627
0.0261123
0.028555
0.0310918
0.0337237
0.0364508
0.0392714
0.0421818
0.0451768
0.0482506
0.0513969
0.0546093
0.0578851
0.0612242
0.0646386
0.0681928
0.0717406
0.0755967
0.0794603
0.0813006
0.0794238
0.0730852
0.0647695
0.057646
0.0558715
0.0725684
0.101707
0.12087
0.127534
0.137081
0.143027
0.150478
0.156016
0.162334
0.167119
0.174497
0.179976
0.000778636
0.002094
0.00345166
0.00489188
0.00640012
0.00797662
0.00962487
0.0113474
0.0131464
0.0150245
0.0169839
0.0190269
0.021155
0.0233696
0.0256717
0.028062
0.0305408
0.0331077
0.0357605
0.0384949
0.0413039
0.0441783
0.0471066
0.050075
0.0530658
0.056061
0.0590401
0.0619857
0.0649208
0.0676749
0.0703911
0.0725666
0.0722915
0.0681861
0.0600875
0.0508003
0.0440564
0.0433436
0.0645127
0.0967268
0.117622
0.125231
0.135266
0.142317
0.150422
0.15653
0.16313
0.168351
0.176259
0.182197
0.000765411
0.00205709
0.00340048
0.00482261
0.00630968
0.00786375
0.0094882
0.0111854
0.0129576
0.0148071
0.0167359
0.0187458
0.020838
0.0230138
0.0252738
0.0276184
0.030047
0.0325576
0.0351463
0.0378066
0.0405292
0.0433014
0.0461072
0.0489259
0.0517301
0.0544877
0.0571585
0.0596965
0.0620801
0.0641022
0.0657295
0.0662029
0.0637097
0.0571539
0.0470925
0.0369335
0.0299593
0.0338934
0.0585906
0.0932983
0.115259
0.123639
0.133953
0.142018
0.150664
0.157377
0.16427
0.169974
0.178306
0.184675
0.000741002
0.00202033
0.00335124
0.004755
0.00622289
0.00775746
0.00936144
0.011037
0.0127862
0.014611
0.0165129
0.0184937
0.0205546
0.0226969
0.0249211
0.0272272
0.0296136
0.0320773
0.0346129
0.0372126
0.0398653
0.042556
0.0452651
0.0479663
0.0506242
0.0531946
0.0556197
0.0578263
0.0597464
0.0611223
0.0617389
0.060499
0.0556626
0.046434
0.0342055
0.0237907
0.0170536
0.0257897
0.0547663
0.0911966
0.113807
0.122721
0.133318
0.142179
0.151202
0.158561
0.165813
0.172056
0.180662
0.187408
0.000722781
0.00199399
0.00331171
0.00469911
0.00615025
0.0076671
0.00925225
0.0109079
0.012636
0.0144381
0.016316
0.0182713
0.0203054
0.0224196
0.0246142
0.0268885
0.0292404
0.0316662
0.0341598
0.0367125
0.0393124
0.0419428
0.0445816
0.0471983
0.0497519
0.0521889
0.0544367
0.0563968
0.057954
0.0587874
0.0584906
0.055565
0.0482812
0.0361869
0.0215471
0.0101843
0.00693463
0.0199349
0.0531017
0.0903028
0.113078
0.122693
0.133479
0.142847
0.152044
0.160065
0.16777
0.174621
0.183339
0.190395
0.000712542
0.00197319
0.00327782
0.00465164
0.00608867
0.00759027
0.00915898
0.0107969
0.012506
0.014288
0.0161448
0.0180783
0.02009
0.0221809
0.0243511
0.0265995
0.0289238
0.03132
0.0337819
0.0363007
0.0388638
0.0414539
0.0440472
0.0466113
0.0491017
0.0514587
0.0535985
0.0554005
0.056703
0.0571142
0.056028
0.0515163
0.0418
0.0268406
0.00989324
-0.00149571
-0.00148478
0.0168758
0.0535141
0.0906142
0.113023
0.123471
0.134529
0.144048
0.153207
0.161859
0.170099
0.177635
0.186326
0.193633
0.00070714
0.0019565
0.00324923
0.00461094
0.00603517
0.00752312
0.00907725
0.0106996
0.0123922
0.0141572
0.0159965
0.0179121
0.0199054
0.0219771
0.0241273
0.0263548
0.0286575
0.0310316
0.0334711
0.0359671
0.0385072
0.041074
0.0436438
0.0461837
0.0486485
0.0509756
0.0530741
0.0548059
0.0559663
0.056094
0.0543809
0.0484716
0.0364926
0.0188483
0.00043853
-0.0103573
-0.00661404
0.017117
0.0560118
0.0921276
0.113615
0.124989
0.136359
0.145744
0.154692
0.163899
0.172714
0.181007
0.189585
0.19712
0.000703702
0.00194327
0.00322597
0.00457692
0.00598951
0.00746498
0.0090059
0.0106145
0.012293
0.0140436
0.0158683
0.0177691
0.019747
0.0218028
0.0239365
0.0261474
0.0284335
0.0307915
0.0332158
0.0356977
0.0382255
0.0407827
0.0433466
0.0458861
0.0483573
0.0506984
0.0528162
0.0545613
0.0556932
0.0556966
0.053581
0.0465824
0.0328442
0.0133115
-0.00578829
-0.0150318
-0.00695598
0.0210972
0.0606957
0.0947305
0.114837
0.127136
0.138796
0.147839
0.156498
0.166101
0.175491
0.184588
0.193052
0.200851
0.000700506
0.00193156
0.00320558
0.004547
0.00594927
0.00741377
0.0089432
0.01054
0.0122064
0.0139448
0.0157571
0.0176449
0.0196095
0.0216517
0.0237717
0.0259692
0.0282426
0.0305888
0.0330027
0.0354763
0.037999
0.0405559
0.0431269
0.0456836
0.0481862
0.0505765
0.0527643
0.0545974
0.0558107
0.0558625
0.0536399
0.046041
0.0313227
0.0110894
-0.00743427
-0.0140543
-0.00180641
0.0290853
0.0675354
0.0982404
0.116671
0.129714
0.141561
0.150146
0.158525
0.168408
0.178297
0.188196
0.19664
0.204812
0.00069719
0.00192048
0.00318659
0.00451941
0.00591259
0.00736759
0.00888722
0.0104739
0.01213
0.0138576
0.0156586
0.0175348
0.0194875
0.0215177
0.0236261
0.0258123
0.028075
0.0304116
0.0328174
0.0352856
0.0378068
0.0403688
0.0429542
0.0455392
0.0480894
0.0505534
0.0528496
0.0548316
0.0562253
0.0564977
0.0544947
0.046961
0.0323457
0.0128792
-0.00352165
-0.0067042
0.00907058
0.040918
0.0762754
0.102531
0.118979
0.132433
0.144259
0.152382
0.160624
0.170733
0.180998
0.191638
0.200246
0.208974
0.000694186
0.00191036
0.00316924
0.00449437
0.00587952
0.00732618
0.00883713
0.0104147
0.0120612
0.0137786
0.0155691
0.0174344
0.0193762
0.0213955
0.023493
0.0256687
0.0279214
0.0302485
0.0326462
0.0351089
0.0376292
0.0401972
0.0427993
0.0454164
0.048021
0.0505713
0.0529991
0.0551734
0.0568297
0.0574846
0.056029
0.049299
0.0360503
0.0189579
0.0060802
0.00678907
0.0250911
0.0558627
0.0864016
0.107443
0.121539
0.13496
0.146443
0.154211
0.162598
0.172967
0.183481
0.194743
0.203746
0.213296
0.000692136
0.00190185
0.00315414
0.00447242
0.00585038
0.00728939
0.00879217
0.010361
0.0119981
0.0137057
0.0154859
0.0173407
0.0192719
0.0212805
0.0233672
0.0255318
0.0277732
0.0300893
0.0324771
0.0349322
0.0374491
0.0400203
0.0426358
0.0452818
0.0479384
0.0505752
0.0531416
0.0555309
0.0575075
0.0586782
0.058072
0.0528524
0.0421547
0.0288367
0.0205257
0.025186
0.0448073
0.0726729
0.0971576
0.112701
0.124062
0.136969
0.14771
0.155304
0.164232
0.175
0.185662
0.197391
0.207007
0.217728
0.000691357
0.00189504
0.00314126
0.00445329
0.00582452
0.00725623
0.00875105
0.0103113
0.0119392
0.0136371
0.0154072
0.0172517
0.0191721
0.0211695
0.0232443
0.0253962
0.0276241
0.0299266
0.0323011
0.0347447
0.0372532
0.0398214
0.0424426
0.045108
0.0478058
0.0505179
0.0532136
0.0558174
0.0581398
0.059908
0.060373
0.0572145
0.0499423
0.0413492
0.0381382
0.0464233
0.0661637
0.0897869
0.107617
0.117783
0.126289
0.138207
0.147763
0.155424
0.165349
0.17674
0.187486
0.19954
0.210009
0.222113
0.000691411
0.00188919
0.00312973
0.00443589
0.00580071
0.00722534
0.00871246
0.0102644
0.0118835
0.013572
0.0153322
0.0171661
0.0190751
0.0210601
0.0231212
0.0252582
0.02747
0.0297555
0.0321129
0.0345397
0.037033
0.0395894
0.0422049
0.0448756
0.0475971
0.0503634
0.0531643
0.0559589
0.0586156
0.060995
0.0626269
0.0618176
0.0584001
0.0549052
0.0567669
0.0680531
0.0869103
0.105594
0.116837
0.122036
0.127932
0.138549
0.146417
0.154484
0.165859
0.178133
0.188907
0.201188
0.212744
0.226322
0.000691191
0.00188311
0.00311847
0.00441918