/*--------------------------------*- C++ -*----------------------------------*\
  =========                 |
  \\      /  F ield         | OpenFOAM: The Open Source CFD Toolbox
   \\    /   O peration     | Website:  https://openfoam.org
    \\  /    A nd           | Version:  9
     \\/     M anipulation  |
\*---------------------------------------------------------------------------*/
FoamFile
{
    format      ascii;
    class       volScalarField;
    location    "0.07";
    object      rAU;
}
// * * * * * * * * * * * * * * * * * * * * * * * * * * * * * * * * * * * * * //

dimensions      [-1 3 1 0 0 0 0];

internalField   nonuniform List<scalar> 
5000
(
1.25482e-05
1.45524e-05
1.47223e-05
1.48837e-05
1.50369e-05
1.51827e-05
1.53218e-05
1.54549e-05
1.55829e-05
1.57065e-05
1.58266e-05
1.5944e-05
1.60595e-05
1.61741e-05
1.62887e-05
1.64045e-05
1.6523e-05
1.6646e-05
1.67758e-05
1.69163e-05
1.7074e-05
1.72602e-05
1.74901e-05
1.77522e-05
1.78917e-05
1.75491e-05
1.66457e-05
1.55845e-05
1.46038e-05
1.38764e-05
2.49828e-05
2.48207e-05
1.35287e-05
1.34581e-05
1.33731e-05
2.36469e-05
2.38582e-05
1.33589e-05
1.35162e-05
1.46084e-05
2.49348e-05
1.59046e-05
1.40795e-05
1.41998e-05
1.49772e-05
1.86484e-05
1.48234e-05
1.43917e-05
1.44385e-05
1.41942e-05
1.54746e-05
1.86263e-05
1.88893e-05
1.91377e-05
1.9372e-05
1.95929e-05
1.98012e-05
1.99978e-05
2.01835e-05
2.03593e-05
2.0526e-05
2.06844e-05
2.08356e-05
2.09804e-05
2.11199e-05
2.1255e-05
2.13869e-05
2.1517e-05
2.1647e-05
2.17796e-05
2.19187e-05
2.20712e-05
2.22454e-05
2.24339e-05
2.25524e-05
2.23997e-05
2.18728e-05
2.1156e-05
2.04363e-05
1.99175e-05
2.5608e-05
2.60505e-05
1.99498e-05
1.97401e-05
1.96511e-05
2.53892e-05
2.55758e-05
1.9762e-05
1.98249e-05
2.06897e-05
2.58471e-05
2.17323e-05
2.02388e-05
2.02931e-05
2.08967e-05
2.32212e-05
2.07558e-05
2.04018e-05
2.04439e-05
2.02496e-05
1.54755e-05
1.86272e-05
1.88901e-05
1.91385e-05
1.93727e-05
1.95935e-05
1.98017e-05
1.99981e-05
2.01836e-05
2.03591e-05
2.05255e-05
2.06837e-05
2.08345e-05
2.0979e-05
2.1118e-05
2.12527e-05
2.13843e-05
2.1514e-05
2.16438e-05
2.1776e-05
2.19146e-05
2.20656e-05
2.22352e-05
2.24145e-05
2.25286e-05
2.23992e-05
2.19109e-05
2.12054e-05
2.04899e-05
1.99978e-05
2.49879e-05
2.57543e-05
2.01109e-05
1.97969e-05
1.97431e-05
2.50709e-05
2.52173e-05
1.98605e-05
1.98999e-05
2.0814e-05
2.54738e-05
2.18915e-05
2.02787e-05
2.03044e-05
2.09439e-05
2.32002e-05
2.07873e-05
2.04032e-05
2.04507e-05
2.0258e-05
1.5478e-05
1.86295e-05
1.88925e-05
1.91408e-05
1.9375e-05
1.95958e-05
1.98039e-05
2.00002e-05
2.01856e-05
2.03609e-05
2.05272e-05
2.06852e-05
2.08359e-05
2.09802e-05
2.11191e-05
2.12537e-05
2.13852e-05
2.15149e-05
2.16447e-05
2.1777e-05
2.19152e-05
2.20645e-05
2.22295e-05
2.24002e-05
2.2511e-05
2.24092e-05
2.19739e-05
2.12992e-05
2.05897e-05
2.01164e-05
2.44281e-05
2.54493e-05
2.02855e-05
1.98539e-05
1.98447e-05
2.47384e-05
2.48684e-05
1.99533e-05
1.99568e-05
2.0923e-05
2.51555e-05
2.20567e-05
2.03149e-05
2.0312e-05
2.09935e-05
2.31648e-05
2.0824e-05
2.04141e-05
2.04651e-05
2.02827e-05
1.54828e-05
1.86337e-05
1.88967e-05
1.9145e-05
1.93792e-05
1.95999e-05
1.9808e-05
2.00043e-05
2.01896e-05
2.03649e-05
2.05311e-05
2.0689e-05
2.08397e-05
2.0984e-05
2.1123e-05
2.12577e-05
2.13893e-05
2.15193e-05
2.16493e-05
2.17817e-05
2.19198e-05
2.20678e-05
2.22287e-05
2.23923e-05
2.25019e-05
2.24279e-05
2.20502e-05
2.14201e-05
2.07238e-05
2.02595e-05
2.39499e-05
2.51188e-05
2.04399e-05
1.99072e-05
1.99368e-05
2.44034e-05
2.45509e-05
2.00434e-05
2.00065e-05
2.10024e-05
2.48845e-05
2.22175e-05
2.03496e-05
2.03188e-05
2.10446e-05
2.31163e-05
2.08616e-05
2.04334e-05
2.04842e-05
2.03187e-05
1.54901e-05
1.864e-05
1.8903e-05
1.91513e-05
1.93855e-05
1.96062e-05
1.98142e-05
2.00105e-05
2.01958e-05
2.03711e-05
2.05373e-05
2.06953e-05
2.0846e-05
2.09905e-05
2.11296e-05
2.12645e-05
2.13965e-05
2.15268e-05
2.16573e-05
2.17901e-05
2.19282e-05
2.2075e-05
2.22326e-05
2.23906e-05
2.25004e-05
2.24522e-05
2.21313e-05
2.15539e-05
2.08799e-05
2.0418e-05
2.35735e-05
2.47739e-05
2.05605e-05
1.99562e-05
2.00119e-05
2.40759e-05
2.42722e-05
2.01302e-05
2.00528e-05
2.10573e-05
2.46562e-05
2.23649e-05
2.03819e-05
2.03274e-05
2.10969e-05
2.30562e-05
2.0898e-05
2.04583e-05
2.05054e-05
2.03608e-05
1.55002e-05
1.86486e-05
1.89116e-05
1.91599e-05
1.9394e-05
1.96147e-05
1.98228e-05
2.0019e-05
2.02043e-05
2.03797e-05
2.05459e-05
2.0704e-05
2.08549e-05
2.09995e-05
2.11388e-05
2.12741e-05
2.14065e-05
2.15373e-05
2.16683e-05
2.18016e-05
2.19397e-05
2.20857e-05
2.22405e-05
2.23943e-05
2.25053e-05
2.24802e-05
2.22118e-05
2.16905e-05
2.10455e-05
2.05864e-05
2.32974e-05
2.44616e-05
2.06707e-05
2.00016e-05
2.00692e-05
2.37627e-05
2.40324e-05
2.01984e-05
2.00771e-05
2.10893e-05
2.44613e-05
2.2493e-05
2.04126e-05
2.03404e-05
2.11506e-05
2.29862e-05
2.0933e-05
2.04881e-05
2.05273e-05
2.04053e-05
1.55133e-05
1.86597e-05
1.89226e-05
1.91709e-05
1.9405e-05
1.96256e-05
1.98336e-05
2.00298e-05
2.02152e-05
2.03905e-05
2.05568e-05
2.0715e-05
2.08661e-05
2.10109e-05
2.11505e-05
2.12862e-05
2.1419e-05
2.15503e-05
2.16819e-05
2.18156e-05
2.19538e-05
2.20991e-05
2.22517e-05
2.24023e-05
2.25152e-05
2.25104e-05
2.22888e-05
2.18231e-05
2.12115e-05
2.07606e-05
2.31094e-05
2.41953e-05
2.07736e-05
2.00455e-05
2.01113e-05
2.34673e-05
2.38259e-05
2.02605e-05
2.00877e-05
2.1099e-05
2.42872e-05
2.25972e-05
2.04433e-05
2.03599e-05
2.1206e-05
2.29087e-05
2.09647e-05
2.05219e-05
2.05503e-05
2.04514e-05
1.55295e-05
1.86734e-05
1.89362e-05
1.91843e-05
1.94183e-05
1.96389e-05
1.98468e-05
2.00429e-05
2.02282e-05
2.04036e-05
2.057e-05
2.07282e-05
2.08794e-05
2.10244e-05
2.11644e-05
2.13004e-05
2.14336e-05
2.15654e-05
2.16974e-05
2.18315e-05
2.19699e-05
2.21145e-05
2.22653e-05
2.24137e-05
2.25286e-05
2.25412e-05
2.23605e-05
2.1947e-05
2.13717e-05
2.0938e-05
2.29885e-05
2.398e-05
2.08794e-05
2.00915e-05
2.01431e-05
2.31938e-05
2.36087e-05
2.02936e-05
2.00891e-05
2.10875e-05
2.41154e-05
2.26664e-05
2.04749e-05
2.03868e-05
2.12628e-05
2.28264e-05
2.0992e-05
2.05575e-05
2.05747e-05
2.04979e-05
1.55487e-05
1.86895e-05
1.89522e-05
1.92001e-05
1.9434e-05
1.96543e-05
1.98621e-05
2.00581e-05
2.02434e-05
2.04187e-05
2.0585e-05
2.07434e-05
2.08946e-05
2.10398e-05
2.118e-05
2.13163e-05
2.14498e-05
2.15821e-05
2.17145e-05
2.18489e-05
2.19873e-05
2.21313e-05
2.22807e-05
2.24274e-05
2.2544e-05
2.2571e-05
2.24253e-05
2.20594e-05
2.15228e-05
2.11171e-05
2.29152e-05
2.37999e-05
2.09846e-05
2.01412e-05
2.01697e-05
2.29454e-05
2.34103e-05
2.03245e-05
2.00898e-05
2.10618e-05
2.39279e-05
2.26904e-05
2.05068e-05
2.04206e-05
2.13204e-05
2.27419e-05
2.10147e-05
2.05918e-05
2.05991e-05
2.05433e-05
1.55707e-05
1.87079e-05
1.89704e-05
1.92181e-05
1.94517e-05
1.96719e-05
1.98794e-05
2.00753e-05
2.02604e-05
2.04356e-05
2.06019e-05
2.07602e-05
2.09114e-05
2.10567e-05
2.1197e-05
2.13335e-05
2.14673e-05
2.15998e-05
2.17325e-05
2.18671e-05
2.20053e-05
2.21488e-05
2.22968e-05
2.24421e-05
2.25604e-05
2.25995e-05
2.24837e-05
2.21605e-05
2.16643e-05
2.1297e-05
2.28764e-05
2.36506e-05
2.10872e-05
2.01948e-05
2.01953e-05
2.27241e-05
2.32325e-05
2.03567e-05
2.00867e-05
2.10274e-05
2.37433e-05
2.26857e-05
2.05376e-05
2.04602e-05
2.13772e-05
2.2658e-05
2.10329e-05
2.0625e-05
2.0624e-05
2.05866e-05
1.55953e-05
1.87285e-05
1.89907e-05
1.92381e-05
1.94714e-05
1.96912e-05
1.98985e-05
2.00941e-05
2.0279e-05
2.0454e-05
2.06201e-05
2.07783e-05
2.09295e-05
2.10748e-05
2.12151e-05
2.13516e-05
2.14856e-05
2.16182e-05
2.1751e-05
2.18855e-05
2.20235e-05
2.21662e-05
2.23129e-05
2.24569e-05
2.25764e-05
2.26254e-05
2.25349e-05
2.22497e-05
2.17967e-05
2.1477e-05
2.28633e-05
2.35233e-05
2.1184e-05
2.02514e-05
2.02226e-05
2.25314e-05
2.30734e-05
2.03955e-05
2.00866e-05
2.09876e-05
2.35603e-05
2.26542e-05
2.05657e-05
2.05033e-05
2.1431e-05
2.25768e-05
2.10475e-05
2.06562e-05
2.06489e-05
2.0628e-05
1.56222e-05
1.8751e-05
1.90127e-05
1.92598e-05
1.94927e-05
1.97122e-05
1.99191e-05
2.01144e-05
2.02989e-05
2.04736e-05
2.06395e-05
2.07975e-05
2.09485e-05
2.10936e-05
2.12339e-05
2.13703e-05
2.15042e-05
2.16367e-05
2.17693e-05
2.19036e-05
2.2041e-05
2.21828e-05
2.23281e-05
2.24707e-05
2.25911e-05
2.26482e-05
2.25796e-05
2.23301e-05
2.19235e-05
2.16577e-05
2.28707e-05
2.34107e-05
2.12714e-05
2.03091e-05
2.02526e-05
2.23673e-05
2.29314e-05
2.04384e-05
2.00921e-05
2.09478e-05
2.33808e-05
2.26002e-05
2.05895e-05
2.05473e-05
2.1479e-05
2.24974e-05
2.1059e-05
2.06848e-05
2.06724e-05
2.06668e-05
1.5651e-05
1.8775e-05
1.90364e-05
1.9283e-05
1.95154e-05
1.97344e-05
1.99409e-05
2.01358e-05
2.03199e-05
2.04943e-05
2.06598e-05
2.08174e-05
2.09682e-05
2.1113e-05
2.1253e-05
2.13892e-05
2.15227e-05
2.1655e-05
2.17872e-05
2.19209e-05
2.20575e-05
2.21981e-05
2.23418e-05
2.24826e-05
2.26034e-05
2.26673e-05
2.2618e-05
2.24034e-05
2.20481e-05
2.18398e-05
2.28962e-05
2.33086e-05
2.13465e-05
2.0366e-05
2.02852e-05
2.22308e-05
2.28075e-05
2.04869e-05
2.0104e-05
2.09114e-05
2.32075e-05
2.25299e-05
2.06089e-05
2.05902e-05
2.15214e-05
2.24213e-05
2.10681e-05
2.07102e-05
2.06936e-05
2.07032e-05
1.56815e-05
1.88004e-05
1.90613e-05
1.93073e-05
1.95392e-05
1.97577e-05
1.99637e-05
2.0158e-05
2.03417e-05
2.05156e-05
2.06806e-05
2.08378e-05
2.09881e-05
2.11325e-05
2.12721e-05
2.14078e-05
2.15409e-05
2.16726e-05
2.18041e-05
2.1937e-05
2.20724e-05
2.22114e-05
2.2353e-05
2.24919e-05
2.26124e-05
2.26819e-05
2.26501e-05
2.24709e-05
2.21744e-05
2.20278e-05
2.29395e-05
2.32161e-05
2.14088e-05
2.04212e-05
2.03198e-05
2.21185e-05
2.26976e-05
2.05382e-05
2.0122e-05
2.08804e-05
2.30429e-05
2.24496e-05
2.06245e-05
2.06304e-05
2.15565e-05
2.23492e-05
2.10757e-05
2.07322e-05
2.07119e-05
2.07368e-05
1.57133e-05
1.88269e-05
1.90873e-05
1.93327e-05
1.95639e-05
1.97818e-05
1.99872e-05
2.0181e-05
2.03641e-05
2.05374e-05
2.07019e-05
2.08585e-05
2.10082e-05
2.1152e-05
2.12909e-05
2.1426e-05
2.15584e-05
2.16892e-05
2.18197e-05
2.19513e-05
2.20852e-05
2.22221e-05
2.23612e-05
2.24976e-05
2.2617e-05
2.26909e-05
2.26753e-05
2.25322e-05
2.22984e-05
2.22181e-05
2.29986e-05
2.31349e-05
2.146e-05
2.04746e-05
2.0356e-05
2.20268e-05
2.26029e-05
2.05915e-05
2.01451e-05
2.08557e-05
2.2889e-05
2.23652e-05
2.06374e-05
2.06671e-05
2.15835e-05
2.22816e-05
2.10821e-05
2.07508e-05
2.07274e-05
2.07663e-05
1.57461e-05
1.88542e-05
1.9114e-05
1.93588e-05
1.95893e-05
1.98065e-05
2.00112e-05
2.02043e-05
2.03867e-05
2.05594e-05
2.07232e-05
2.08791e-05
2.10281e-05
2.11712e-05
2.13093e-05
2.14435e-05
2.15748e-05
2.17045e-05
2.18338e-05
2.19637e-05
2.20955e-05
2.22299e-05
2.23659e-05
2.2499e-05
2.26167e-05
2.26937e-05
2.2693e-05
2.25874e-05
2.24208e-05
2.2408e-05
2.30699e-05
2.30676e-05
2.15041e-05
2.05276e-05
2.03939e-05
2.19519e-05
2.25224e-05
2.06461e-05
2.01718e-05
2.08368e-05
2.27465e-05
2.22814e-05
2.06491e-05
2.06999e-05
2.16026e-05
2.22188e-05
2.10881e-05
2.07662e-05
2.07402e-05
2.07924e-05
1.57795e-05
1.8882e-05
1.91413e-05
1.93853e-05
1.96151e-05
1.98316e-05
2.00355e-05
2.02279e-05
2.04095e-05
2.05813e-05
2.07444e-05
2.08994e-05
2.10476e-05
2.11897e-05
2.13268e-05
2.146e-05
2.15901e-05
2.17184e-05
2.1846e-05
2.19739e-05
2.21032e-05
2.22345e-05
2.23669e-05
2.24961e-05
2.26111e-05
2.26782e-05
2.26798e-05
2.26249e-05
2.25393e-05
2.25921e-05
2.31484e-05
2.30163e-05
2.15456e-05
2.05816e-05
2.04342e-05
2.18899e-05
2.2454e-05
2.0701e-05
2.02005e-05
2.08222e-05
2.26152e-05
2.22013e-05
2.06605e-05
2.07289e-05
2.16143e-05
2.21608e-05
2.10938e-05
2.07788e-05
2.07507e-05
2.08154e-05
1.58131e-05
1.89099e-05
1.91686e-05
1.9412e-05
1.9641e-05
1.98566e-05
2.00598e-05
2.02513e-05
2.04321e-05
2.06031e-05
2.07652e-05
2.09193e-05
2.10665e-05
2.12075e-05
2.13435e-05
2.14753e-05
2.16041e-05
2.17307e-05
2.18563e-05
2.19819e-05
2.21084e-05
2.22362e-05
2.23644e-05
2.24893e-05
2.25972e-05
2.26583e-05
2.26751e-05
2.26665e-05
2.26514e-05
2.27643e-05
2.32276e-05
2.29816e-05
2.15886e-05
2.06382e-05
2.04779e-05
2.18378e-05
2.23951e-05
2.07551e-05
2.02293e-05
2.08101e-05
2.24938e-05
2.21265e-05
2.06722e-05
2.07541e-05
2.16195e-05
2.21074e-05
2.10995e-05
2.07888e-05
2.0759e-05
2.08355e-05
1.58465e-05
1.89376e-05
1.91958e-05
1.94385e-05
1.96667e-05
1.98815e-05
2.00838e-05
2.02744e-05
2.04543e-05
2.06243e-05
2.07854e-05
2.09385e-05
2.10846e-05
2.12244e-05
2.13591e-05
2.14895e-05
2.16166e-05
2.17414e-05
2.18648e-05
2.19878e-05
2.21112e-05
2.22353e-05
2.23592e-05
2.24795e-05
2.2579e-05
2.26419e-05
2.26832e-05
2.27123e-05
2.2755e-05
2.29184e-05
2.33005e-05
2.2962e-05
2.16354e-05
2.06986e-05
2.05258e-05
2.17939e-05
2.23426e-05
2.08071e-05
2.0257e-05
2.07983e-05
2.23811e-05
2.20575e-05
2.06844e-05
2.07756e-05
2.16191e-05
2.20585e-05
2.11053e-05
2.07966e-05
2.07654e-05
2.0853e-05
1.58794e-05
1.89648e-05
1.92225e-05
1.94645e-05
1.96919e-05
1.99058e-05
2.01072e-05
2.02969e-05
2.04758e-05
2.06449e-05
2.08049e-05
2.09569e-05
2.11018e-05
2.12404e-05
2.13736e-05
2.15025e-05
2.16279e-05
2.17507e-05
2.18718e-05
2.19921e-05
2.21123e-05
2.22327e-05
2.23523e-05
2.24682e-05
2.25651e-05
2.2636e-05
2.27022e-05
2.27609e-05
2.28481e-05
2.30497e-05
2.33616e-05
2.29548e-05
2.16872e-05
2.07636e-05
2.0579e-05
2.17585e-05
2.22937e-05
2.08555e-05
2.02824e-05
2.07854e-05
2.22755e-05
2.19936e-05
2.06971e-05
2.07937e-05
2.16142e-05
2.20138e-05
2.11113e-05
2.08026e-05
2.077e-05
2.08681e-05
1.59115e-05
1.89913e-05
1.92484e-05
1.94897e-05
1.97163e-05
1.99294e-05
2.01299e-05
2.03186e-05
2.04966e-05
2.06646e-05
2.08235e-05
2.09744e-05
2.1118e-05
2.12553e-05
2.13871e-05
2.15144e-05
2.16379e-05
2.17587e-05
2.18776e-05
2.19952e-05
2.21124e-05
2.22292e-05
2.23449e-05
2.24571e-05
2.25559e-05
2.26389e-05
2.27159e-05
2.27979e-05
2.29294e-05
2.31561e-05
2.34068e-05
2.29537e-05
2.17428e-05
2.08332e-05
2.06383e-05
2.17333e-05
2.22468e-05
2.08988e-05
2.03054e-05
2.07709e-05
2.21764e-05
2.19339e-05
2.07099e-05
2.08087e-05
2.16059e-05
2.19729e-05
2.11173e-05
2.0807e-05
2.07732e-05
2.08812e-05
1.59424e-05
1.90168e-05
1.92734e-05
1.95139e-05
1.97398e-05
1.9952e-05
2.01516e-05
2.03394e-05
2.05164e-05
2.06834e-05
2.08412e-05
2.09909e-05
2.11333e-05
2.12692e-05
2.13996e-05
2.15253e-05
2.16471e-05
2.17659e-05
2.18826e-05
2.19977e-05
2.21121e-05
2.22257e-05
2.23382e-05
2.24476e-05
2.25502e-05
2.26427e-05
2.27293e-05
2.28336e-05
2.29983e-05
2.32373e-05
2.34361e-05
2.29532e-05
2.18001e-05
2.09073e-05
2.0705e-05
2.17209e-05
2.22014e-05
2.09357e-05
2.03263e-05
2.07553e-05
2.20834e-05
2.18772e-05
2.07224e-05
2.08214e-05
2.15954e-05
2.19357e-05
2.11233e-05
2.08101e-05
2.07751e-05
2.08929e-05
1.5972e-05
1.90412e-05
1.92972e-05
1.95371e-05
1.97622e-05
1.99736e-05
2.01723e-05
2.03593e-05
2.05353e-05
2.07012e-05
2.0858e-05
2.10065e-05
2.11477e-05
2.12823e-05
2.14113e-05
2.15355e-05
2.16556e-05
2.17726e-05
2.18872e-05
2.20002e-05
2.2112e-05
2.22231e-05
2.2333e-05
2.24406e-05
2.25435e-05
2.26411e-05
2.2741e-05
2.28677e-05
2.30553e-05
2.32965e-05
2.34524e-05
2.29524e-05
2.18572e-05
2.09858e-05
2.07814e-05
2.17245e-05
2.21585e-05
2.09654e-05
2.03457e-05
2.07405e-05
2.19977e-05
2.18234e-05
2.07346e-05
2.08327e-05
2.1584e-05
2.19021e-05
2.11293e-05
2.08121e-05
2.07758e-05
2.09026e-05
1.6e-05
1.90644e-05
1.93198e-05
1.95591e-05
1.97835e-05
1.99941e-05
2.0192e-05
2.03781e-05
2.05532e-05
2.07181e-05
2.08739e-05
2.10213e-05
2.11613e-05
2.12947e-05
2.14224e-05
2.15451e-05
2.16637e-05
2.17791e-05
2.18919e-05
2.20029e-05
2.21128e-05
2.22218e-05
2.233e-05
2.24366e-05
2.25408e-05
2.26439e-05
2.27559e-05
2.29e-05
2.31015e-05
2.33374e-05
2.34567e-05
2.29498e-05
2.1912e-05
2.10682e-05
2.08699e-05
2.17468e-05
2.21202e-05
2.09881e-05
2.03648e-05
2.07284e-05
2.19194e-05
2.17717e-05
2.07461e-05
2.08436e-05
2.15729e-05
2.18723e-05
2.11351e-05
2.08134e-05
2.07753e-05
2.0911e-05
1.60267e-05
1.90864e-05
1.93414e-05
1.958e-05
1.98037e-05
2.00137e-05
2.02108e-05
2.0396e-05
2.05702e-05
2.07342e-05
2.0889e-05
2.10354e-05
2.11743e-05
2.13066e-05
2.1433e-05
2.15544e-05
2.16717e-05
2.17856e-05
2.18969e-05
2.20063e-05
2.21146e-05
2.22222e-05
2.23293e-05
2.24358e-05
2.2542e-05
2.26508e-05
2.2773e-05
2.293e-05
2.31386e-05
2.33642e-05
2.34517e-05
2.29446e-05
2.1963e-05
2.1153e-05
2.09713e-05
2.17891e-05
2.20887e-05
2.10048e-05
2.03844e-05
2.07213e-05
2.185e-05
2.17221e-05
2.07568e-05
2.08552e-05
2.15637e-05
2.18463e-05
2.11409e-05
2.08142e-05
2.07733e-05
2.09185e-05
1.60522e-05
1.91075e-05
1.93621e-05
1.96001e-05
1.98231e-05
2.00323e-05
2.02287e-05
2.04131e-05
2.05865e-05
2.07496e-05
2.09035e-05
2.10489e-05
2.11868e-05
2.1318e-05
2.14433e-05
2.15636e-05
2.16796e-05
2.17923e-05
2.19024e-05
2.20106e-05
2.21177e-05
2.22243e-05
2.2331e-05
2.2438e-05
2.25466e-05
2.26608e-05
2.27917e-05
2.29578e-05
2.31685e-05
2.33807e-05
2.34399e-05
2.29165e-05
2.19901e-05
2.12393e-05
2.10859e-05
2.18505e-05
2.20661e-05
2.10176e-05
2.04058e-05
2.0721e-05
2.17903e-05
2.16751e-05
2.07669e-05
2.08679e-05
2.15571e-05
2.18241e-05
2.11468e-05
2.08153e-05
2.07709e-05
2.09247e-05
1.60769e-05
1.91278e-05
1.93819e-05
1.96193e-05
1.98417e-05
2.00502e-05
2.02458e-05
2.04295e-05
2.0602e-05
2.07643e-05
2.09173e-05
2.10619e-05
2.11988e-05
2.1329e-05
2.14534e-05
2.15726e-05
2.16877e-05
2.17993e-05
2.19084e-05
2.20157e-05
2.2122e-05
2.22282e-05
2.23348e-05
2.24429e-05
2.25541e-05
2.26733e-05
2.28112e-05
2.29836e-05
2.31931e-05
2.33904e-05
2.3415e-05
2.28723e-05
2.19788e-05
2.13004e-05
2.12122e-05
2.19282e-05
2.2054e-05
2.10294e-05
2.04297e-05
2.0728e-05
2.17401e-05
2.16309e-05
2.07766e-05
2.08825e-05
2.15542e-05
2.18056e-05
2.11525e-05
2.08154e-05
2.07683e-05
2.09302e-05
1.61014e-05
1.91476e-05
1.9401e-05
1.96378e-05
1.98595e-05
2.00673e-05
2.02622e-05
2.04451e-05
2.06169e-05
2.07785e-05
2.09307e-05
2.10744e-05
2.12105e-05
2.13398e-05
2.14633e-05
2.15817e-05
2.16959e-05
2.18067e-05
2.1915e-05
2.20216e-05
2.2126e-05
2.22297e-05
2.2336e-05
2.2447e-05
2.25631e-05
2.26874e-05
2.28312e-05
2.30078e-05
2.32138e-05
2.33954e-05
2.33725e-05
2.28111e-05
2.19623e-05
2.13627e-05
2.13468e-05
2.20167e-05
2.2053e-05
2.10429e-05
2.04565e-05
2.07418e-05
2.16982e-05
2.15902e-05
2.0786e-05
2.08992e-05
2.15551e-05
2.17908e-05
2.11591e-05
2.08153e-05
2.07653e-05
2.0935e-05
2.04504e-05
1.91643e-05
1.94179e-05
1.96546e-05
1.98759e-05
2.00833e-05
2.02776e-05
2.046e-05
2.06311e-05
2.0792e-05
2.09435e-05
2.10865e-05
2.12218e-05
2.13498e-05
2.14709e-05
2.15864e-05
2.16974e-05
2.18049e-05
2.191e-05
2.20136e-05
2.2117e-05
2.22215e-05
2.23288e-05
2.24413e-05
2.25628e-05
2.26983e-05
2.28511e-05
2.30304e-05
2.32319e-05
2.33868e-05
2.33177e-05
2.27462e-05
2.19437e-05
2.14156e-05
2.1474e-05
2.21099e-05
2.20632e-05
2.10606e-05
2.04858e-05
2.07602e-05
2.16626e-05
2.15529e-05
2.07954e-05
2.09177e-05
2.15595e-05
2.17796e-05
2.11663e-05
2.08156e-05
2.07623e-05
2.09393e-05
2.04323e-05
1.91488e-05
1.94035e-05
1.96414e-05
1.9864e-05
2.00724e-05
2.02676e-05
2.04505e-05
2.0622e-05
2.07829e-05
2.09341e-05
2.10764e-05
2.12108e-05
2.13381e-05
2.14592e-05
2.1575e-05
2.16863e-05
2.17942e-05
2.18996e-05
2.20036e-05
2.21074e-05
2.22124e-05
2.23203e-05
2.24335e-05
2.25558e-05
2.26933e-05
2.28544e-05
2.30424e-05
2.32332e-05
2.33481e-05
2.32455e-05
2.26792e-05
2.19268e-05
2.14653e-05
2.15933e-05
2.22009e-05
2.20829e-05
2.1084e-05
2.05165e-05
2.07802e-05
2.16305e-05
2.15192e-05
2.08047e-05
2.09375e-05
2.1567e-05
2.17721e-05
2.11749e-05
2.08165e-05
2.07596e-05
2.09435e-05
2.04148e-05
1.91329e-05
1.9388e-05
1.96264e-05
1.98494e-05
2.00583e-05
2.02539e-05
2.04371e-05
2.06089e-05
2.07702e-05
2.09217e-05
2.10643e-05
2.1199e-05
2.13266e-05
2.14479e-05
2.15639e-05
2.16754e-05
2.17835e-05
2.1889e-05
2.19931e-05
2.20971e-05
2.22022e-05
2.23102e-05
2.24234e-05
2.25456e-05
2.26826e-05
2.28414e-05
2.30228e-05
2.31983e-05
2.32881e-05
2.31675e-05
2.26124e-05
2.19157e-05
2.15231e-05
2.17101e-05
2.22844e-05
2.21092e-05
2.11138e-05
2.05471e-05
2.07978e-05
2.15987e-05
2.14885e-05
2.0814e-05
2.09577e-05
2.15765e-05
2.17673e-05
2.11846e-05
2.08184e-05
2.07573e-05
2.09478e-05
2.03977e-05
1.91182e-05
1.93736e-05
1.96123e-05
1.98357e-05
2.00448e-05
2.02408e-05
2.04244e-05
2.05965e-05
2.0758e-05
2.09098e-05
2.10527e-05
2.11876e-05
2.13154e-05
2.14369e-05
2.1553e-05
2.16647e-05
2.17728e-05
2.18783e-05
2.19823e-05
2.2086e-05
2.21908e-05
2.22984e-05
2.2411e-05
2.25322e-05
2.26674e-05
2.28225e-05
2.29955e-05
2.31538e-05
2.32185e-05
2.30849e-05
2.25493e-05
2.19142e-05
2.15903e-05
2.1821e-05
2.23564e-05
2.21399e-05
2.11494e-05
2.05759e-05
2.08091e-05
2.1564e-05
2.14601e-05
2.08229e-05
2.09768e-05
2.15868e-05
2.17654e-05
2.11957e-05
2.08213e-05
2.07556e-05
2.09523e-05
2.03809e-05
1.91042e-05
1.93599e-05
1.9599e-05
1.98226e-05
2.00321e-05
2.02283e-05
2.04122e-05
2.05846e-05
2.07464e-05
2.08984e-05
2.10415e-05
2.11766e-05
2.13046e-05
2.14262e-05
2.15424e-05
2.1654e-05
2.1762e-05
2.18673e-05
2.19711e-05
2.20743e-05
2.21785e-05
2.22851e-05
2.23964e-05
2.25158e-05
2.26481e-05
2.27979e-05
2.29604e-05
2.30996e-05
2.314e-05
2.30002e-05
2.24934e-05
2.19258e-05
2.16683e-05
2.19246e-05
2.24134e-05
2.21714e-05
2.11898e-05
2.06017e-05
2.08113e-05
2.1524e-05
2.14332e-05
2.08311e-05
2.09937e-05
2.15965e-05
2.17661e-05
2.12088e-05
2.08253e-05
2.07545e-05
2.09572e-05
2.03649e-05
1.90908e-05
1.93469e-05
1.95863e-05
1.98102e-05
2.002e-05
2.02165e-05
2.04006e-05
2.05733e-05
2.07353e-05
2.08876e-05
2.10309e-05
2.11661e-05
2.12941e-05
2.14158e-05
2.1532e-05
2.16435e-05
2.17513e-05
2.18563e-05
2.19596e-05
2.20621e-05
2.21653e-05
2.22706e-05
2.238e-05
2.24968e-05
2.2625e-05
2.2768e-05
2.2918e-05
2.3037e-05
2.30551e-05
2.29168e-05
2.24487e-05
2.19535e-05
2.1759e-05
2.20221e-05
2.24547e-05
2.21996e-05
2.12332e-05
2.06238e-05
2.08026e-05
2.14772e-05
2.14068e-05
2.08384e-05
2.10069e-05
2.1604e-05
2.17686e-05
2.12237e-05
2.08304e-05
2.07539e-05
2.09623e-05
2.03495e-05
1.90781e-05
1.93345e-05
1.95742e-05
1.97984e-05
2.00084e-05
2.02052e-05
2.03896e-05
2.05625e-05
2.07248e-05
2.08772e-05
2.10207e-05
2.1156e-05
2.12841e-05
2.14058e-05
2.15219e-05
2.16333e-05
2.17408e-05
2.18454e-05
2.1948e-05
2.20497e-05
2.21516e-05
2.22552e-05
2.23623e-05
2.24758e-05
2.25991e-05
2.27338e-05
2.28697e-05
2.29682e-05
2.2968e-05
2.28392e-05
2.24189e-05
2.19996e-05
2.18646e-05
2.21169e-05
2.24819e-05
2.2221e-05
2.12772e-05
2.06425e-05
2.07834e-05
2.14233e-05
2.13801e-05
2.08443e-05
2.10153e-05
2.16083e-05
2.1773e-05
2.12408e-05
2.08362e-05
2.07535e-05
2.09675e-05
2.03347e-05
1.90659e-05
1.93226e-05
1.95626e-05
1.97872e-05
1.99975e-05
2.01945e-05
2.03792e-05
2.05523e-05
2.07148e-05
2.08674e-05
2.1011e-05
2.11465e-05
2.12746e-05
2.13962e-05
2.15122e-05
2.16234e-05
2.17306e-05
2.18347e-05
2.19365e-05
2.20372e-05
2.21378e-05
2.22395e-05
2.23439e-05
2.24536e-05
2.25712e-05
2.26967e-05
2.28179e-05
2.28973e-05
2.28839e-05
2.27723e-05
2.2407e-05
2.20655e-05
2.19863e-05
2.22128e-05
2.24988e-05
2.22331e-05
2.13187e-05
2.06586e-05
2.07557e-05
2.13636e-05
2.1353e-05
2.08488e-05
2.10178e-05
2.16078e-05
2.17788e-05
2.12602e-05
2.08428e-05
2.0753e-05
2.09725e-05
2.03202e-05
1.9054e-05
1.93112e-05
1.95516e-05
1.97765e-05
1.99871e-05
2.01844e-05
2.03693e-05
2.05427e-05
2.07054e-05
2.08581e-05
2.10019e-05
2.11374e-05
2.12656e-05
2.13872e-05
2.15031e-05
2.1614e-05
2.17208e-05
2.18244e-05
2.19255e-05
2.20251e-05
2.21242e-05
2.22239e-05
2.23256e-05
2.24313e-05
2.25428e-05
2.26588e-05
2.27656e-05
2.28286e-05
2.28083e-05
2.27203e-05
2.2415e-05
2.21512e-05
2.21239e-05
2.23132e-05
2.25107e-05
2.22361e-05
2.13556e-05
2.06729e-05
2.07229e-05
2.13003e-05
2.13256e-05
2.08519e-05
2.10143e-05
2.16015e-05
2.17853e-05
2.12819e-05
2.08501e-05
2.0752e-05
2.09768e-05
2.03065e-05
1.90429e-05
1.93005e-05
1.95413e-05
1.97665e-05
1.99773e-05
2.01749e-05
2.03601e-05
2.05337e-05
2.06965e-05
2.08494e-05
2.09933e-05
2.11289e-05
2.12571e-05
2.13787e-05
2.14945e-05
2.16052e-05
2.17117e-05
2.18147e-05
2.19151e-05
2.20137e-05
2.21114e-05
2.22091e-05
2.2308e-05
2.24098e-05
2.25153e-05
2.2622e-05
2.2716e-05
2.27668e-05
2.2746e-05
2.26862e-05
2.24437e-05
2.22551e-05
2.22594e-05
2.24037e-05
2.25232e-05
2.22324e-05
2.13857e-05
2.06863e-05
2.06892e-05
2.12369e-05
2.12987e-05
2.08539e-05
2.10044e-05
2.15887e-05
2.17917e-05
2.13058e-05
2.08578e-05
2.07503e-05
2.09802e-05
2.02943e-05
1.90329e-05
1.92909e-05
1.95319e-05
1.97572e-05
1.99683e-05
2.01661e-05
2.03515e-05
2.05252e-05
2.06882e-05
2.08413e-05
2.09853e-05
2.1121e-05
2.12493e-05
2.13708e-05
2.14865e-05
2.1597e-05
2.17032e-05
2.18058e-05
2.19056e-05
2.20032e-05
2.20996e-05
2.21955e-05
2.22919e-05
2.239e-05
2.24901e-05
2.25885e-05
2.26722e-05
2.27154e-05
2.27002e-05
2.26716e-05
2.24919e-05
2.23738e-05
2.23923e-05
2.24876e-05
2.25396e-05
2.22252e-05
2.14087e-05
2.06994e-05
2.06586e-05
2.11776e-05
2.12734e-05
2.08556e-05
2.09891e-05
2.1569e-05
2.17971e-05
2.13316e-05
2.08661e-05
2.07476e-05
2.09826e-05
2.02838e-05
1.90241e-05
1.92821e-05
1.95232e-05
1.97487e-05
1.99599e-05
2.01578e-05
2.03434e-05
2.05173e-05
2.06805e-05
2.08337e-05
2.09778e-05
2.11136e-05
2.12419e-05
2.13635e-05
2.14792e-05
2.15896e-05
2.16955e-05
2.17978e-05
2.1897e-05
2.19939e-05
2.20892e-05
2.21836e-05
2.22779e-05
2.23728e-05
2.24682e-05
2.256e-05
2.26364e-05
2.26768e-05
2.26723e-05
2.26761e-05
2.25571e-05
2.25031e-05
2.25276e-05
2.25726e-05
2.25618e-05
2.2218e-05
2.14252e-05
2.07126e-05
2.06346e-05
2.11263e-05
2.12515e-05
2.08576e-05
2.09693e-05
2.15427e-05
2.18006e-05
2.1359e-05
2.0875e-05
2.0744e-05
2.09835e-05
2.02741e-05
1.90158e-05
1.92738e-05
1.95149e-05
1.97405e-05
1.99518e-05
2.01499e-05
2.03356e-05
2.05098e-05
2.06731e-05
2.08265e-05
2.09708e-05
2.11068e-05
2.12352e-05
2.13568e-05
2.14725e-05
2.15829e-05
2.16887e-05
2.17907e-05
2.18895e-05
2.19859e-05
2.20804e-05
2.21736e-05
2.22662e-05
2.23587e-05
2.24505e-05
2.25377e-05
2.261e-05
2.26519e-05
2.26621e-05
2.26981e-05
2.26359e-05
2.26382e-05
2.26607e-05
2.2656e-05
2.25889e-05
2.22123e-05
2.14362e-05
2.07267e-05
2.06201e-05
2.10865e-05
2.12346e-05
2.08608e-05
2.09466e-05
2.15108e-05
2.18014e-05
2.13872e-05
2.08847e-05
2.07397e-05
2.09829e-05
2.02646e-05
1.90076e-05
1.92654e-05
1.95066e-05
1.97323e-05
1.99439e-05
2.01422e-05
2.03281e-05
2.05025e-05
2.06661e-05
2.08197e-05
2.09642e-05
2.11003e-05
2.12289e-05
2.13507e-05
2.14664e-05
2.15768e-05
2.16826e-05
2.17845e-05
2.18831e-05
2.19791e-05
2.20731e-05
2.21656e-05
2.22571e-05
2.2348e-05
2.24375e-05
2.2522e-05
2.25933e-05
2.26404e-05
2.26679e-05
2.27347e-05
2.27245e-05
2.2766e-05
2.27791e-05
2.27339e-05
2.26176e-05
2.22077e-05
2.14428e-05
2.07419e-05
2.06167e-05
2.10607e-05
2.12244e-05
2.08661e-05
2.09223e-05
2.14742e-05
2.17987e-05
2.14157e-05
2.08955e-05
2.07351e-05
2.09812e-05
2.02546e-05
1.8999e-05
1.92568e-05
1.94981e-05
1.97241e-05
1.9936e-05
2.01345e-05
2.03207e-05
2.04954e-05
2.06592e-05
2.08131e-05
2.09578e-05
2.10942e-05
2.12229e-05
2.13449e-05
2.14608e-05
2.15713e-05
2.16772e-05
2.17791e-05
2.18777e-05
2.19736e-05
2.20673e-05
2.21595e-05
2.22505e-05
2.23406e-05
2.2429e-05
2.25128e-05
2.25857e-05
2.26408e-05
2.26871e-05
2.2783e-05
2.28192e-05
2.28634e-05
2.286e-05
2.28029e-05
2.26436e-05
2.2202e-05
2.1445e-05
2.07585e-05
2.06254e-05
2.10505e-05
2.1222e-05
2.08741e-05
2.08983e-05
2.14341e-05
2.17922e-05
2.14436e-05
2.09074e-05
2.07305e-05
2.09787e-05
2.02435e-05
1.89898e-05
1.92478e-05
1.94894e-05
1.97157e-05
1.99279e-05
2.01269e-05
2.03134e-05
2.04883e-05
2.06524e-05
2.08066e-05
2.09516e-05
2.10882e-05
2.12172e-05
2.13394e-05
2.14555e-05
2.15663e-05
2.16723e-05
2.17744e-05
2.18731e-05
2.19691e-05
2.20629e-05
2.21551e-05
2.22461e-05
2.23361e-05
2.24247e-05
2.25094e-05
2.25862e-05
2.26511e-05
2.27169e-05
2.28397e-05
2.29168e-05
2.2957e-05
2.2931e-05
2.28604e-05
2.26624e-05
2.21921e-05
2.14428e-05
2.07767e-05
2.06458e-05
2.10562e-05
2.12282e-05
2.08858e-05
2.08759e-05
2.13918e-05
2.17816e-05
2.14703e-05
2.09209e-05
2.07267e-05
2.09756e-05
2.02326e-05
1.89808e-05
1.9239e-05
1.94808e-05
1.97074e-05
1.99199e-05
2.01192e-05
2.0306e-05
2.04813e-05
2.06457e-05
2.08002e-05
2.09455e-05
2.10824e-05
2.12117e-05
2.13342e-05
2.14505e-05
2.15615e-05
2.16679e-05
2.17702e-05
2.18692e-05
2.19654e-05
2.20595e-05
2.2152e-05
2.22435e-05
2.23342e-05
2.24238e-05
2.25109e-05
2.2593e-05
2.26691e-05
2.27542e-05
2.29019e-05
2.29869e-05
2.30183e-05
2.29933e-05
2.29057e-05
2.26712e-05
2.21755e-05
2.14362e-05
2.07975e-05
2.06788e-05
2.10776e-05
2.1244e-05
2.09017e-05
2.08565e-05
2.13487e-05
2.17668e-05
2.14952e-05
2.09357e-05
2.07239e-05
2.09723e-05
2.02225e-05
1.89723e-05
1.92305e-05
1.94724e-05
1.96992e-05
1.9912e-05
2.01115e-05
2.02986e-05
2.04742e-05
2.06389e-05
2.07937e-05
2.09393e-05
2.10765e-05
2.12061e-05
2.13289e-05
2.14456e-05
2.15569e-05
2.16635e-05
2.17662e-05
2.18655e-05
2.19622e-05
2.20568e-05
2.21499e-05
2.22422e-05
2.23341e-05
2.24255e-05
2.25159e-05
2.26045e-05
2.26923e-05
2.27962e-05
2.29669e-05
2.30509e-05
2.30715e-05
2.30488e-05
2.29394e-05
2.26688e-05
2.21507e-05
2.14249e-05
2.082e-05
2.07229e-05
2.11124e-05
2.12681e-05
2.09224e-05
2.08412e-05
2.13056e-05
2.17478e-05
2.15178e-05
2.09521e-05
2.07225e-05
2.09688e-05
2.02124e-05
1.89634e-05
1.92217e-05
1.94637e-05
1.96907e-05
1.99037e-05
2.01036e-05
2.0291e-05
2.04669e-05
2.06319e-05
2.0787e-05
2.0933e-05
2.10705e-05
2.12005e-05
2.13236e-05
2.14406e-05
2.15522e-05
2.16592e-05
2.17622e-05
2.1862e-05
2.19591e-05
2.20543e-05
2.21483e-05
2.22416e-05
2.2335e-05
2.24288e-05
2.25232e-05
2.26187e-05
2.27184e-05
2.28402e-05
2.30138e-05
2.30982e-05
2.31269e-05
2.30999e-05
2.29639e-05
2.26567e-05
2.2119e-05
2.14106e-05
2.08457e-05
2.07773e-05
2.116e-05
2.13005e-05
2.09486e-05
2.08306e-05
2.12631e-05
2.17243e-05
2.15375e-05
2.09701e-05
2.07227e-05
2.0965e-05
2.02012e-05
1.89537e-05
1.9212e-05
1.94543e-05
1.96817e-05
1.9895e-05
2.00952e-05
2.0283e-05
2.04592e-05
2.06247e-05
2.07801e-05
2.09264e-05
2.10643e-05
2.11946e-05
2.1318e-05
2.14353e-05
2.15473e-05
2.16547e-05
2.17581e-05
2.18583e-05
2.1956e-05
2.20519e-05
2.21467e-05
2.22412e-05
2.23363e-05
2.24327e-05
2.25313e-05
2.26339e-05
2.27451e-05
2.28836e-05
2.30594e-05
2.31477e-05
2.31861e-05
2.31492e-05
2.29824e-05
2.2638e-05
2.20833e-05
2.13963e-05
2.08763e-05
2.08409e-05
2.12177e-05
2.13407e-05
2.09809e-05
2.08253e-05
2.12214e-05
2.16961e-05
2.15538e-05
2.09897e-05
2.07244e-05
2.09605e-05
2.01887e-05
1.89432e-05
1.92017e-05
1.94444e-05
1.96721e-05
1.98859e-05
2.00865e-05
2.02747e-05
2.04513e-05
2.0617e-05
2.07728e-05
2.09195e-05
2.10577e-05
2.11883e-05
2.13121e-05
2.14298e-05
2.15421e-05