/*--------------------------------*- C++ -*----------------------------------*\
  =========                 |
  \\      /  F ield         | OpenFOAM: The Open Source CFD Toolbox
   \\    /   O peration     | Website:  https://openfoam.org
    \\  /    A nd           | Version:  9
     \\/     M anipulation  |
\*---------------------------------------------------------------------------*/
FoamFile
{
    format      ascii;
    class       volScalarField;
    location    "0.12";
    object      alpha.water;
}
// * * * * * * * * * * * * * * * * * * * * * * * * * * * * * * * * * * * * * //

dimensions      [0 0 0 0 0 0 0];

internalField   nonuniform List<scalar> 
20000
(
2.43416e-319
2.3308e-319
2.2314e-319
2.13585e-319
2.04405e-319
1.95591e-319
1.87132e-319
1.7901e-319
1.71223e-319
1.63753e-319
1.56599e-319
1.49732e-319
1.4316e-319
1.36856e-319
1.30829e-319
1.25058e-319
1.19544e-319
1.14258e-319
1.09208e-319
1.04386e-319
9.97617e-320
9.53547e-320
9.11255e-320
8.70939e-320
8.32204e-320
7.9505e-320
7.59478e-320
7.25585e-320
6.93273e-320
6.62443e-320
5.44856e-320
5.46239e-320
5.4782e-320
5.49203e-320
5.50192e-320
5.51081e-320
5.5197e-320
5.53354e-320
5.5612e-320
5.60468e-320
5.61456e-320
5.50784e-320
5.34579e-320
5.20943e-320
5.11259e-320
1.232e-319
1.2656e-319
5.09382e-320
5.0948e-320
5.0869e-320
5.03058e-320
4.98216e-320
1.22627e-319
1.21619e-319
4.98611e-320
5.03354e-320
5.04737e-320
5.1699e-320
1.21165e-319
5.16002e-320
5.10469e-320
5.13038e-320
5.09975e-320
5.03354e-320
4.96437e-320
1.22528e-319
1.2155e-319
4.98216e-320
5.06714e-320
5.14026e-320
6.32503e-320
6.67384e-320
7.02957e-320
7.4011e-320
7.86355e-320
8.7667e-320
1.9652e-319
9.46531e-320
9.60661e-320
1.00048e-319
1.04722e-319
1.09663e-319
1.14801e-319
1.20137e-319
1.25671e-319
1.31451e-319
1.37469e-319
1.43743e-319
1.50295e-319
1.57113e-319
1.64247e-319
1.71678e-319
1.79415e-319
1.87488e-319
1.95907e-319
2.04672e-319
2.13802e-319
2.23298e-319
2.33179e-319
2.43456e-319
2.43426e-319
2.3308e-319
2.2314e-319
2.13594e-319
2.04405e-319
1.95591e-319
1.87132e-319
1.7901e-319
1.71223e-319
1.63753e-319
1.56599e-319
1.49732e-319
1.4316e-319
1.36856e-319
1.30829e-319
1.25058e-319
1.19544e-319
1.14258e-319
1.09208e-319
1.04386e-319
9.97617e-320
9.53547e-320
9.11255e-320
8.7084e-320
8.32204e-320
7.9505e-320
7.59478e-320
7.25486e-320
6.93273e-320
6.62443e-320
5.44856e-320
5.46239e-320
5.47721e-320
5.49105e-320
5.50192e-320
5.50982e-320
5.5197e-320
5.53354e-320
5.55923e-320
5.60073e-320
5.61259e-320
5.50982e-320
5.34875e-320
5.20943e-320
5.12148e-320
1.21866e-319
1.25354e-319
5.13828e-320
5.10864e-320
5.09085e-320
5.02959e-320
4.98216e-320
1.2157e-319
1.21343e-319
5.01971e-320
5.04737e-320
5.05429e-320
5.17978e-320
1.20335e-319
5.17978e-320
5.1116e-320
5.13334e-320
5.09876e-320
5.02959e-320
4.9624e-320
1.21184e-319
1.21234e-319
5.01477e-320
5.08492e-320
5.15014e-320
6.33392e-320
6.67977e-320
7.03352e-320
7.40506e-320
7.86948e-320
8.73706e-320
1.93614e-319
9.53151e-320
9.67282e-320
1.00473e-319
1.04979e-319
1.09821e-319
1.149e-319
1.20206e-319
1.2573e-319
1.31491e-319
1.37508e-319
1.43773e-319
1.50315e-319
1.57133e-319
1.64257e-319
1.71678e-319
1.79425e-319
1.87508e-319
1.95917e-319
2.04682e-319
2.13812e-319
2.23308e-319
2.33199e-319
2.43476e-319
2.43436e-319
2.331e-319
2.2316e-319
2.13594e-319
2.04425e-319
1.9561e-319
1.87142e-319
1.7902e-319
1.71223e-319
1.63753e-319
1.56599e-319
1.49741e-319
1.4316e-319
1.36866e-319
1.30829e-319
1.25058e-319
1.19544e-319
1.14268e-319
1.09208e-319
1.04386e-319
9.97617e-320
9.53547e-320
9.11255e-320
8.7084e-320
8.32105e-320
7.9505e-320
7.59478e-320
7.25486e-320
6.93273e-320
6.62443e-320
5.44856e-320
5.46239e-320
5.47622e-320
5.49006e-320
5.50192e-320
5.50982e-320
5.5197e-320
5.53354e-320
5.55923e-320
5.59875e-320
5.60863e-320
5.51476e-320
5.35765e-320
5.2203e-320
5.14619e-320
1.20335e-319
1.23635e-319
5.17386e-320
5.1205e-320
5.09876e-320
5.03453e-320
4.99006e-320
1.20078e-319
1.20532e-319
5.05034e-320
5.06417e-320
5.06516e-320
5.19559e-320
1.19159e-319
5.19955e-320
5.12148e-320
5.14026e-320
5.10271e-320
5.03453e-320
4.9703e-320
1.19564e-319
1.20177e-319
5.04342e-320
5.10271e-320
5.162e-320
6.34578e-320
6.68866e-320
7.04241e-320
7.42087e-320
7.90011e-320
8.71927e-320
1.90443e-319
9.55128e-320
9.71728e-320
1.00799e-319
1.05216e-319
1.09999e-319
1.15028e-319
1.20295e-319
1.25809e-319
1.3155e-319
1.37548e-319
1.43813e-319
1.50344e-319
1.57162e-319
1.64287e-319
1.71698e-319
1.79445e-319
1.87508e-319
1.95927e-319
2.04682e-319
2.13812e-319
2.23318e-319
2.33199e-319
2.43476e-319
2.43456e-319
2.3311e-319
2.2316e-319
2.13614e-319
2.04425e-319
1.9561e-319
1.87152e-319
1.7903e-319
1.71243e-319
1.63773e-319
1.56599e-319
1.49741e-319
1.4316e-319
1.36876e-319
1.30838e-319
1.25068e-319
1.19544e-319
1.14268e-319
1.09208e-319
1.04386e-319
9.97617e-320
9.53547e-320
9.11255e-320
8.7084e-320
8.32105e-320
7.9505e-320
7.59478e-320
7.25486e-320
6.93273e-320
6.62443e-320
5.44856e-320
5.46239e-320
5.47622e-320
5.49006e-320
5.50192e-320
5.50982e-320
5.5197e-320
5.53354e-320
5.55923e-320
5.5948e-320
5.60468e-320
5.52069e-320
5.37049e-320
5.2371e-320
5.17583e-320
1.18734e-319
1.21955e-319
5.19955e-320
5.1284e-320
5.10666e-320
5.04342e-320
5.00093e-320
1.18418e-319
1.19396e-319
5.07504e-320
5.07899e-320
5.08097e-320
5.21437e-320
1.17884e-319
5.21733e-320
5.13235e-320
5.14816e-320
5.10963e-320
5.04441e-320
4.98611e-320
1.18013e-319
1.18783e-319
5.06714e-320
5.11852e-320
5.17386e-320
6.35764e-320
6.69953e-320
7.05526e-320
7.44063e-320
7.93469e-320
8.69951e-320
1.87784e-319
9.54535e-320
9.74594e-320
1.01027e-319
1.05374e-319
1.10117e-319
1.15137e-319
1.20374e-319
1.25868e-319
1.31599e-319
1.37587e-319
1.43852e-319
1.50374e-319
1.57192e-319
1.64306e-319
1.71717e-319
1.79464e-319
1.87528e-319
1.95937e-319
2.04701e-319
2.13822e-319
2.23318e-319
2.33199e-319
2.43476e-319
2.43476e-319
2.3312e-319
2.23179e-319
2.13624e-319
2.04444e-319
1.9563e-319
1.87162e-319
1.7904e-319
1.71243e-319
1.63773e-319
1.56619e-319
1.49741e-319
1.4317e-319
1.36876e-319
1.30848e-319
1.25078e-319
1.19544e-319
1.14268e-319
1.09218e-319
1.04386e-319
9.97617e-320
9.53547e-320
9.11255e-320
8.70939e-320
8.32204e-320
7.9505e-320
7.59478e-320
7.25585e-320
6.93273e-320
6.62443e-320
5.44856e-320
5.46239e-320
5.47622e-320
5.49006e-320
5.50093e-320
5.50982e-320
5.5197e-320
5.53551e-320
5.55923e-320
5.59282e-320
5.60172e-320
5.52761e-320
5.3863e-320
5.25686e-320
5.20943e-320
1.17331e-319
1.20404e-319
5.21635e-320
5.13433e-320
5.11457e-320
5.05528e-320
5.01378e-320
1.16856e-319
1.18101e-319
5.09382e-320
5.09184e-320
5.09678e-320
5.23314e-320
1.16669e-319
5.23117e-320
5.14421e-320
5.15805e-320
5.1205e-320
5.05726e-320
5.0039e-320
1.16619e-319
1.17291e-319
5.08295e-320
5.13038e-320
5.18571e-320
6.36752e-320
6.70941e-320
7.06711e-320
7.46039e-320
7.96434e-320
8.67777e-320
1.85798e-319
9.52756e-320
9.76274e-320
1.01204e-319
1.05513e-319
1.10216e-319
1.15216e-319
1.20443e-319
1.25927e-319
1.31649e-319
1.37627e-319
1.43872e-319
1.50403e-319
1.57212e-319
1.64326e-319
1.71737e-319
1.79464e-319
1.87537e-319
1.95946e-319
2.04701e-319
2.13812e-319
2.23318e-319
2.33199e-319
2.43466e-319
2.43495e-319
2.3315e-319
2.23199e-319
2.13644e-319
2.04464e-319
1.9564e-319
1.87172e-319
1.79049e-319
1.71263e-319
1.63793e-319
1.56619e-319
1.49761e-319
1.4318e-319
1.36876e-319
1.30848e-319
1.25078e-319
1.19564e-319
1.14268e-319
1.09228e-319
1.04386e-319
9.97716e-320
9.53547e-320
9.11353e-320
8.70939e-320
8.32204e-320
7.9505e-320
7.59478e-320
7.25585e-320
6.93273e-320
6.62542e-320
5.44954e-320
5.46239e-320
5.47622e-320
5.49006e-320
5.50192e-320
5.51081e-320
5.52168e-320
5.53551e-320
5.55923e-320
5.59085e-320
5.59875e-320
5.53354e-320
5.4031e-320
5.2786e-320
5.24401e-320
1.16224e-319
1.1903e-319
5.22721e-320
5.13631e-320
5.12148e-320
5.06714e-320
5.02761e-320
1.15493e-319
1.16807e-319
5.10666e-320
5.10271e-320
5.11358e-320
5.24994e-320
1.15572e-319
5.24302e-320
5.15607e-320
5.16694e-320
5.13038e-320
5.07109e-320
5.02168e-320
1.15404e-319
1.15888e-319
5.0948e-320
5.14125e-320
5.19362e-320
6.3774e-320
6.71929e-320
7.07897e-320
7.47917e-320
7.98805e-320
8.65603e-320
9.21729e-320
9.50385e-320
9.77262e-320
1.01323e-319
1.05611e-319
1.10295e-319
1.15275e-319
1.20493e-319
1.25967e-319
1.31678e-319
1.37666e-319
1.43902e-319
1.50423e-319
1.57231e-319
1.64336e-319
1.71747e-319
1.79484e-319
1.87537e-319
1.95946e-319
2.04701e-319
2.13812e-319
2.23298e-319
2.33179e-319
2.43446e-319
2.43515e-319
2.33179e-319
2.23219e-319
2.13664e-319
2.04484e-319
1.9566e-319
1.87192e-319
1.79069e-319
1.71273e-319
1.63793e-319
1.56639e-319
1.49771e-319
1.4319e-319
1.36896e-319
1.30868e-319
1.25088e-319
1.19564e-319
1.14287e-319
1.09228e-319
1.04396e-319
9.97815e-320
9.53646e-320
9.11452e-320
8.70939e-320
8.32204e-320
7.9505e-320
7.59577e-320
7.25684e-320
6.93273e-320
6.62641e-320
5.45053e-320
5.46239e-320
5.47721e-320
5.49006e-320
5.50192e-320
5.5118e-320
5.52168e-320
5.53749e-320
5.55923e-320
5.58887e-320
5.59678e-320
5.53946e-320
5.41891e-320
5.30132e-320
5.28057e-320
1.15473e-319
1.17845e-319
5.23413e-320
5.13631e-320
5.12741e-320
5.07899e-320
5.04243e-320
1.14366e-319
1.15552e-319
5.11654e-320
5.11259e-320
5.12939e-320
5.26674e-320
1.14633e-319
5.25291e-320
5.16793e-320
5.17484e-320
5.14224e-320
5.08295e-320
5.03947e-320
1.14347e-319
1.14623e-319
5.10271e-320
5.14915e-320
5.20152e-320
6.3853e-320
6.72819e-320
7.09083e-320
7.49596e-320
8.00584e-320
8.63528e-320
9.16393e-320
9.4831e-320
9.77558e-320
1.01402e-319
1.05691e-319
1.10355e-319
1.15315e-319
1.20532e-319
1.25997e-319
1.31718e-319
1.37686e-319
1.43921e-319
1.50433e-319
1.57241e-319
1.64346e-319
1.71747e-319
1.79474e-319
1.87528e-319
1.95927e-319
2.04682e-319
2.13792e-319
2.23278e-319
2.33159e-319
2.43416e-319
2.43555e-319
2.33199e-319
2.23258e-319
2.13693e-319
2.04504e-319
1.9568e-319
1.87211e-319
1.79089e-319
1.71283e-319
1.63812e-319
1.56648e-319
1.49781e-319
1.432e-319
1.36906e-319
1.30868e-319
1.25097e-319
1.19574e-319
1.14287e-319
1.09238e-319
1.04406e-319
9.97815e-320
9.53744e-320
9.11452e-320
8.70939e-320
8.32204e-320
7.95149e-320
7.59675e-320
7.25684e-320
6.93372e-320
6.62641e-320
5.45053e-320
5.46338e-320
5.47721e-320
5.49006e-320
5.50192e-320
5.5118e-320
5.52267e-320
5.53749e-320
5.56021e-320
5.58689e-320
5.59579e-320
5.5444e-320
5.43373e-320
5.32306e-320
5.3201e-320
1.15038e-319
1.16856e-319
5.24105e-320
5.13828e-320
5.13235e-320
5.08986e-320
5.05726e-320
1.13477e-319
1.14386e-319
5.12247e-320
5.1205e-320
5.14421e-320
5.28453e-320
1.13862e-319
5.26081e-320
5.17781e-320
5.18275e-320
5.15212e-320
5.0948e-320
5.05528e-320
1.13428e-319
5.67583e-320
5.10864e-320
5.15508e-320
5.20745e-320
6.39222e-320
6.7351e-320
7.10071e-320
7.51177e-320
8.01869e-320
8.6165e-320
9.12243e-320
9.46333e-320
9.77657e-320
1.01471e-319
1.0575e-319
1.10404e-319
1.15354e-319
1.20562e-319
1.26026e-319
1.31728e-319
1.37696e-319
1.43931e-319
1.50443e-319
1.57241e-319
1.64336e-319
1.71737e-319
1.79464e-319
1.87518e-319
1.95907e-319
2.04662e-319
2.13772e-319
2.23249e-319
2.3312e-319
2.43377e-319
2.43594e-319
2.33239e-319
2.23288e-319
2.13723e-319
2.04533e-319
1.95709e-319
1.87231e-319
1.79109e-319
1.71312e-319
1.63832e-319
1.56668e-319
1.49801e-319
1.4322e-319
1.36915e-319
1.30888e-319
1.25117e-319
1.19584e-319
1.14307e-319
1.09248e-319
1.04416e-319
9.98013e-320
9.53744e-320
9.11452e-320
8.71038e-320
8.32303e-320
7.95248e-320
7.59675e-320
7.25782e-320
6.93471e-320
6.6274e-320
5.45053e-320
5.46437e-320
5.4782e-320
5.49105e-320
5.50192e-320
5.5118e-320
5.52365e-320
5.53946e-320
5.56021e-320
5.58492e-320
5.59381e-320
5.54836e-320
5.44559e-320
5.34381e-320
5.3616e-320
1.14841e-319
1.16007e-319
5.24797e-320
5.14125e-320
5.13729e-320
5.09876e-320
5.07405e-320
5.63828e-320
5.66594e-320
5.12643e-320
5.12643e-320
5.15607e-320
5.30034e-320
1.1324e-319
5.2697e-320
5.18571e-320
5.18967e-320
5.162e-320
5.10469e-320
5.06911e-320
5.63037e-320
5.63037e-320
5.11358e-320
5.16002e-320
5.2114e-320
6.39716e-320
6.74202e-320
7.1096e-320
7.52462e-320
8.02857e-320
8.60069e-320
9.08883e-320
9.44555e-320
9.77459e-320
1.01511e-319
1.05789e-319
1.10434e-319
1.15374e-319
1.20582e-319
1.26026e-319
1.31738e-319
1.37706e-319
1.43931e-319
1.50433e-319
1.57231e-319
1.64326e-319
1.71727e-319
1.79445e-319
1.87498e-319
1.95887e-319
2.04622e-319
2.13733e-319
2.23199e-319
2.33061e-319
2.43317e-319
2.43634e-319
2.33278e-319
2.23318e-319
2.13753e-319
2.04563e-319
1.95729e-319
1.87261e-319
1.79128e-319
1.71332e-319
1.63852e-319
1.56688e-319
1.4982e-319
1.4324e-319
1.36935e-319
1.30898e-319
1.25117e-319
1.19603e-319
1.14307e-319
1.09258e-319
1.04426e-319
9.98013e-320
9.53843e-320
9.1165e-320
8.71137e-320
8.32402e-320
7.95248e-320
7.59774e-320
7.25881e-320
6.93471e-320
6.62838e-320
5.45152e-320
5.46437e-320
5.4782e-320
5.49105e-320
5.50192e-320
5.51278e-320
5.52365e-320
5.53946e-320
5.56021e-320
5.58294e-320
5.59282e-320
5.55132e-320
5.45646e-320
5.36456e-320
5.4031e-320
1.14821e-319
1.15285e-319
5.25488e-320
5.14619e-320
5.14224e-320
5.10765e-320
5.08986e-320
5.61259e-320
5.62049e-320
5.1284e-320
5.13334e-320
5.16793e-320
5.31615e-320
5.63729e-320
5.2786e-320
5.19362e-320
5.19559e-320
5.1699e-320
5.11358e-320
5.08097e-320
5.5948e-320
5.59183e-320
5.11654e-320
5.16299e-320
5.21536e-320
6.40111e-320
6.74696e-320
7.11751e-320
7.53549e-320
8.03548e-320
8.58686e-320
9.06314e-320
9.42974e-320
9.77262e-320
1.0154e-319
1.05809e-319
1.10453e-319
1.15394e-319
1.20592e-319
1.26036e-319
1.31738e-319
1.37696e-319
1.43931e-319
1.50433e-319
1.57222e-319
1.64306e-319
1.71698e-319
1.79425e-319
1.87468e-319
1.95848e-319
2.04583e-319
2.13674e-319
2.2314e-319
2.33001e-319
2.43238e-319
2.43693e-319
2.33327e-319
2.23367e-319
2.13792e-319
2.04602e-319
1.95769e-319
1.8729e-319
1.79158e-319
1.71362e-319
1.63872e-319
1.56708e-319
1.4984e-319
1.43259e-319
1.36955e-319
1.30918e-319
1.25137e-319
1.19613e-319
1.14327e-319
1.09268e-319
1.04436e-319
9.9821e-320
9.53942e-320
9.1165e-320
8.71235e-320
8.32402e-320
7.95347e-320
7.59873e-320
7.25881e-320
6.93668e-320
6.62838e-320
5.45251e-320
5.46437e-320
5.4782e-320
5.49203e-320
5.5029e-320
5.51377e-320
5.52464e-320
5.53946e-320
5.55923e-320
5.58195e-320
5.59085e-320
5.5533e-320
5.46437e-320
5.38334e-320
5.44164e-320
1.1486e-319
1.14683e-319
5.26081e-320
5.15212e-320
5.14816e-320
5.11457e-320
5.10469e-320
5.58986e-320
5.58097e-320
5.13235e-320
5.13828e-320
5.17781e-320
5.32998e-320
5.61654e-320
5.28749e-320
5.20152e-320
5.20053e-320
5.17583e-320
5.1205e-320
5.09085e-320
5.56219e-320
5.55923e-320
5.1205e-320
5.16496e-320
5.21733e-320
6.40408e-320
6.75091e-320
7.12443e-320
7.54537e-320
8.03944e-320
8.57303e-320
9.03943e-320
9.41491e-320
9.76867e-320
1.0154e-319
1.05829e-319
1.10473e-319
1.15404e-319
1.20592e-319
1.26036e-319
1.31728e-319
1.37686e-319
1.43911e-319
1.50413e-319
1.57192e-319
1.64287e-319
1.71678e-319
1.79385e-319
1.87419e-319
1.95798e-319
2.04523e-319
2.13614e-319
2.23081e-319
2.32922e-319
2.43159e-319
2.43752e-319
2.33377e-319
2.23416e-319
2.13832e-319
2.04642e-319
1.95808e-319
1.8733e-319
1.79188e-319
1.71381e-319
1.63911e-319
1.56737e-319
1.4986e-319
1.43279e-319
1.36975e-319
1.30927e-319
1.25157e-319
1.19623e-319
1.14347e-319
1.09287e-319
1.04445e-319
9.9821e-320
9.54041e-320
9.11848e-320
8.71334e-320
8.32599e-320
7.95446e-320
7.59873e-320
7.26079e-320
6.93668e-320
6.63036e-320
5.45251e-320
5.46535e-320
5.47919e-320
5.49203e-320
5.5029e-320
5.51377e-320
5.52464e-320
5.53946e-320
5.55923e-320
5.57998e-320
5.58788e-320
5.55429e-320
5.47128e-320
5.40113e-320
5.4782e-320
1.1492e-319
1.14169e-319
5.26773e-320
5.16002e-320
5.1531e-320
5.1205e-320
5.11951e-320
5.57108e-320
5.54836e-320
5.13433e-320
5.14421e-320
5.18769e-320
5.34184e-320
5.60073e-320
5.29638e-320
5.20745e-320
5.20548e-320
5.18176e-320
5.12544e-320
5.09876e-320
5.53156e-320
5.53156e-320
5.12247e-320
5.16496e-320
5.21931e-320
6.40606e-320
6.75487e-320
7.12838e-320
7.55229e-320
8.0424e-320
8.56117e-320
9.01966e-320
9.40207e-320
9.76471e-320
1.0155e-319
1.05849e-319
1.10473e-319
1.15404e-319
1.20592e-319
1.26026e-319
1.31718e-319
1.37666e-319
1.43892e-319
1.50384e-319
1.57172e-319
1.64247e-319
1.71638e-319
1.79336e-319
1.87369e-319
1.95729e-319
2.04464e-319
2.13535e-319
2.22992e-319
2.32823e-319
2.43041e-319
2.43812e-319
2.33436e-319
2.23466e-319
2.13891e-319
2.04682e-319
1.95848e-319
1.87369e-319
1.79227e-319
1.71421e-319
1.63931e-319
1.56757e-319
1.4988e-319
1.43299e-319
1.36995e-319
1.30947e-319
1.25176e-319
1.19643e-319
1.14356e-319
1.09297e-319
1.04465e-319
9.98408e-320
9.5414e-320
9.11848e-320
8.71334e-320
8.32599e-320
7.95545e-320
7.60071e-320
7.26079e-320
6.93866e-320
6.63036e-320
5.4535e-320
5.46634e-320
5.47919e-320
5.49203e-320
5.5029e-320
5.51377e-320
5.52563e-320
5.53946e-320
5.55725e-320
5.57701e-320
5.58492e-320
5.55527e-320
5.4782e-320
5.41891e-320
5.50982e-320
1.14959e-319
1.13714e-319
5.27464e-320
5.16793e-320
5.15805e-320
5.12445e-320
5.13235e-320
5.5533e-320
5.52069e-320
5.13729e-320
5.14816e-320
5.19658e-320
5.3537e-320
5.58788e-320
5.30528e-320
5.21536e-320
5.20943e-320
5.18571e-320
5.12939e-320
5.10469e-320
5.50389e-320
5.50784e-320
5.12544e-320
5.16397e-320
5.21931e-320
6.40704e-320
6.75684e-320
7.13332e-320
7.55822e-320
8.04339e-320
8.54931e-320
9.00188e-320
9.38922e-320
9.75977e-320
1.0154e-319
1.05849e-319
1.10473e-319
1.15394e-319
1.20572e-319
1.26007e-319
1.31698e-319
1.37647e-319
1.43852e-319
1.50354e-319
1.57133e-319
1.64208e-319
1.71579e-319
1.79287e-319
1.8731e-319
1.9567e-319
2.04385e-319
2.13456e-319
2.22893e-319
2.32715e-319
2.42922e-319
2.43871e-319
2.33495e-319
2.23515e-319
2.1393e-319
2.04721e-319
1.95887e-319
1.87399e-319
1.79267e-319
1.71451e-319
1.63961e-319
1.56787e-319
1.49909e-319
1.43319e-319
1.37014e-319
1.30967e-319
1.25196e-319
1.19663e-319
1.14366e-319
1.09307e-319
1.04475e-319
9.98507e-320
9.54337e-320
9.12045e-320
8.71532e-320
8.32797e-320
7.95643e-320
7.60071e-320
7.26178e-320
6.93866e-320
6.63135e-320
5.45448e-320
5.46634e-320
5.48018e-320
5.49203e-320
5.5029e-320
5.51377e-320
5.52464e-320
5.53946e-320
5.55725e-320
5.57504e-320
5.58294e-320
5.55527e-320
5.48512e-320
5.43472e-320
5.53749e-320
1.14939e-319
5.66496e-320
5.28057e-320
5.17682e-320
5.16397e-320
5.12939e-320
5.14224e-320
5.53749e-320
5.49796e-320
5.14026e-320
5.1531e-320
5.20548e-320
5.36259e-320
5.57701e-320
5.31417e-320
5.22129e-320
5.21239e-320
5.18868e-320
5.13235e-320
5.10864e-320
5.4782e-320
5.4861e-320
5.1284e-320
5.162e-320
5.21931e-320
6.40704e-320
6.75882e-320
7.13727e-320
7.56316e-320
8.0424e-320
8.53745e-320
8.98607e-320
9.37835e-320
9.75483e-320
1.0153e-319
1.05849e-319
1.10473e-319
1.15394e-319
1.20562e-319
1.25987e-319
1.31678e-319
1.37617e-319
1.43832e-319
1.50315e-319
1.57083e-319
1.64148e-319
1.7152e-319
1.79217e-319
1.87231e-319
1.95591e-319
2.04286e-319
2.13357e-319
2.22784e-319
2.32596e-319
2.42794e-319
2.4394e-319
2.33555e-319
2.23575e-319
2.1399e-319
2.0478e-319
1.95927e-319
1.87449e-319
1.79296e-319
1.7148e-319
1.6399e-319
1.56816e-319
1.49939e-319
1.43348e-319
1.37034e-319
1.30997e-319
1.25216e-319
1.19682e-319
1.14386e-319
1.09327e-319
1.04485e-319
9.98605e-320
9.54436e-320
9.12045e-320
8.71631e-320
8.32797e-320
7.95643e-320
7.60268e-320
7.26276e-320
6.93965e-320
6.63234e-320
5.45448e-320
5.46634e-320
5.48018e-320
5.49203e-320
5.5029e-320
5.51377e-320
5.52365e-320
5.53749e-320
5.55527e-320
5.57306e-320
5.58097e-320
5.55527e-320
5.49203e-320
5.45251e-320
5.5612e-320
1.1488e-319
5.64618e-320
5.28551e-320
5.18472e-320
5.16793e-320
5.13235e-320
5.15014e-320
5.5197e-320
5.4782e-320
5.14322e-320
5.15706e-320
5.21239e-320
5.37049e-320
5.56713e-320
5.32306e-320
5.22721e-320
5.21536e-320
5.19164e-320
5.13631e-320
5.11259e-320
5.45547e-320
5.46733e-320
5.13038e-320
5.16002e-320
5.21733e-320
6.40704e-320
6.75882e-320
7.14024e-320
7.56513e-320
8.04141e-320
8.52757e-320
8.97124e-320
9.36748e-320
9.7489e-320
1.01511e-319
1.05829e-319
1.10463e-319
1.15374e-319
1.20542e-319
1.25967e-319
1.31639e-319
1.37587e-319
1.43793e-319
1.50275e-319
1.57034e-319
1.64099e-319
1.71461e-319
1.79148e-319
1.87152e-319
1.95502e-319
2.04197e-319
2.13249e-319
2.22666e-319
2.32468e-319
2.42646e-319
2.44009e-319
2.33624e-319
2.23634e-319
2.14049e-319
2.0483e-319
1.95986e-319
1.87488e-319
1.79336e-319
1.7152e-319
1.6403e-319
1.56846e-319
1.49959e-319
1.43378e-319
1.37054e-319
1.31016e-319
1.25236e-319
1.19702e-319
1.14406e-319
1.09347e-319
1.04505e-319
9.98803e-320
9.54535e-320
9.12243e-320
8.71729e-320
8.32995e-320
7.95841e-320
7.60268e-320
7.26375e-320
6.94063e-320
6.63333e-320
5.45448e-320
5.46733e-320
5.48018e-320
5.49203e-320
5.5029e-320
5.51278e-320
5.52365e-320
5.53749e-320
5.5533e-320
5.57108e-320
5.578e-320
5.55626e-320
5.49994e-320
5.47029e-320
5.58097e-320
1.14762e-319
5.62741e-320
5.29045e-320
5.19164e-320
5.17188e-320
5.13631e-320
5.15607e-320
5.5029e-320
5.46041e-320
5.14619e-320
5.16002e-320
5.21931e-320
5.37741e-320
5.55923e-320
5.33196e-320
5.23216e-320
5.21733e-320
5.19461e-320
5.13927e-320
5.11654e-320
5.43472e-320
5.45053e-320
5.13334e-320
5.15805e-320
5.21635e-320
6.40606e-320
6.75981e-320
7.14221e-320
7.5681e-320
8.03845e-320
8.5167e-320
8.9584e-320
9.35662e-320
9.74396e-320
1.01481e-319
1.05819e-319
1.10453e-319
1.15354e-319
1.20522e-319
1.25937e-319
1.31619e-319
1.37548e-319
1.43743e-319
1.50216e-319
1.56975e-319
1.6403e-319
1.71401e-319
1.79069e-319
1.87073e-319
1.95413e-319
2.04089e-319
2.1314e-319
2.22547e-319
2.32329e-319
2.42497e-319
2.44088e-319
2.33693e-319
2.23703e-319
2.14108e-319
2.04879e-319
1.96025e-319
1.87528e-319
1.79385e-319
1.71559e-319
1.64069e-319
1.56876e-319
1.49998e-319
1.43398e-319
1.37093e-319
1.31046e-319
1.25256e-319
1.19722e-319
1.14426e-319
1.09366e-319
1.04525e-319
9.99001e-320
9.54732e-320
9.12342e-320
8.71828e-320
8.32995e-320
7.95841e-320
7.60367e-320
7.26474e-320
6.94063e-320
6.63431e-320
5.45547e-320
5.46733e-320
5.48018e-320
5.49203e-320
5.50192e-320
5.5118e-320
5.52365e-320
5.5365e-320
5.55132e-320
5.56812e-320
5.57504e-320
5.55725e-320
5.50982e-320
5.48808e-320
5.59776e-320
1.14623e-319
5.61061e-320
5.29441e-320
5.19955e-320
5.17583e-320
5.13828e-320
5.16002e-320
5.4861e-320
5.44658e-320
5.15014e-320
5.16299e-320
5.22524e-320
5.38334e-320
5.5533e-320
5.34085e-320
5.2371e-320
5.21931e-320
5.19658e-320
5.14224e-320
5.1205e-320
5.41694e-320
5.4367e-320
5.13631e-320
5.15607e-320
5.21437e-320
6.40507e-320
6.76079e-320
7.14419e-320
7.56909e-320
8.03548e-320
8.50682e-320
8.94456e-320
9.34673e-320
9.73803e-320
1.01461e-319
1.05799e-319
1.10434e-319
1.15335e-319
1.20493e-319
1.25908e-319
1.3158e-319
1.37508e-319
1.43694e-319
1.50166e-319
1.56915e-319
1.63971e-319
1.71322e-319
1.7899e-319
1.86974e-319
1.95314e-319
2.0398e-319
2.13011e-319
2.22409e-319
2.32181e-319
2.42329e-319
2.44167e-319
2.33772e-319
2.23772e-319
2.14168e-319
2.04938e-319
1.96085e-319
1.87587e-319
1.79425e-319
1.71599e-319
1.64109e-319
1.56915e-319
1.50028e-319
1.43437e-319
1.37113e-319
1.31066e-319
1.25275e-319
1.19742e-319
1.14445e-319
1.09386e-319
1.04544e-319
9.991e-320
9.54831e-320
9.1244e-320
8.71927e-320
8.33192e-320
7.96039e-320
7.60466e-320
7.26474e-320
6.94261e-320
6.63431e-320
5.45547e-320
5.46832e-320
5.48018e-320
5.49203e-320
5.50192e-320
5.5118e-320
5.52267e-320
5.53551e-320
5.55033e-320
5.56516e-320
5.57306e-320
5.55824e-320
5.51773e-320
5.50587e-320
5.61259e-320
1.14465e-319
5.59381e-320
5.29836e-320
5.20548e-320
5.17978e-320
5.14026e-320
5.162e-320
5.46931e-320
5.43275e-320
5.15212e-320
5.16496e-320
5.23117e-320
5.38927e-320
5.54737e-320
5.34974e-320
5.24302e-320
5.22129e-320
5.19856e-320
5.1452e-320
5.12445e-320
5.40211e-320
5.42385e-320
5.13828e-320
5.15409e-320
5.21239e-320
6.40408e-320
6.76079e-320
7.14518e-320
7.57106e-320
8.03153e-320
8.49694e-320
8.93271e-320
9.33685e-320
9.73211e-320
1.01422e-319
1.0577e-319
1.10414e-319
1.15305e-319
1.20463e-319
1.25868e-319
1.3154e-319
1.37459e-319
1.43645e-319
1.50117e-319
1.56856e-319
1.63891e-319
1.71243e-319
1.78901e-319
1.86875e-319
1.95195e-319
2.03861e-319
2.12883e-319
2.2226e-319
2.32023e-319
2.42151e-319
2.44256e-319
2.33851e-319
2.23841e-319
2.14227e-319
2.04998e-319
1.96144e-319
1.87626e-319
1.79464e-319
1.71638e-319
1.64148e-319
1.56955e-319
1.50058e-319
1.43457e-319
1.37143e-319
1.31085e-319
1.25305e-319
1.19762e-319
1.14465e-319
1.09406e-319
1.04564e-319
9.99198e-320
9.5493e-320
9.12638e-320
8.72125e-320
8.33192e-320
7.96039e-320
7.60565e-320
7.26672e-320
6.94261e-320
6.6353e-320
5.45646e-320
5.46832e-320
5.48018e-320
5.49203e-320
5.50192e-320
5.5118e-320
5.52168e-320
5.53354e-320
5.54935e-320
5.56318e-320
5.57108e-320
5.55923e-320
5.52761e-320
5.52464e-320
5.62642e-320
1.14297e-319
5.57899e-320
5.30231e-320
5.2114e-320
5.18176e-320
5.14322e-320
5.16496e-320
5.45448e-320
5.4199e-320
5.15607e-320
5.16694e-320
5.2371e-320
5.3952e-320
5.54342e-320
5.35765e-320
5.24895e-320
5.22326e-320
5.19955e-320
5.14816e-320
5.1284e-320
5.38927e-320
5.41298e-320
5.14224e-320
5.15212e-320
5.2114e-320
6.40309e-320
6.76079e-320
7.14617e-320
7.57106e-320
8.02758e-320
8.48805e-320
8.92184e-320
9.32796e-320
9.72618e-320
1.01382e-319
1.0575e-319
1.10374e-319
1.15275e-319
1.20433e-319
1.25829e-319
1.31491e-319
1.3741e-319
1.43595e-319
1.50048e-319
1.56787e-319
1.63822e-319
1.71164e-319
1.78812e-319
1.86777e-319
1.95077e-319
2.03733e-319
2.12745e-319
2.22112e-319
2.31855e-319
2.41974e-319
2.44345e-319
2.3393e-319
2.23911e-319
2.14306e-319
2.05057e-319
1.96193e-319
1.87686e-319
1.79524e-319
1.71688e-319
1.64188e-319
1.56994e-319
1.50097e-319
1.43496e-319
1.37172e-319
1.31125e-319
1.25335e-319
1.19781e-319
1.14485e-319
1.09426e-319
1.04574e-319
9.99396e-320
9.55128e-320
9.12737e-320
8.72125e-320
8.3339e-320
7.96236e-320
7.60663e-320
7.26672e-320
6.9436e-320
6.63629e-320
5.45646e-320
5.46832e-320
5.48018e-320
5.49105e-320
5.50093e-320
5.50982e-320
5.52069e-320
5.53255e-320
5.54737e-320
5.5612e-320
5.56911e-320
5.5612e-320
5.53749e-320
5.54243e-320
5.63828e-320
1.14139e-319
5.56713e-320
5.30627e-320
5.21733e-320
5.18571e-320
5.14619e-320
5.16793e-320
5.44065e-320
5.40804e-320
5.15805e-320
5.16793e-320
5.24204e-320
5.40113e-320
5.53946e-320
5.36555e-320
5.25389e-320
5.22524e-320
5.20152e-320
5.15014e-320
5.13038e-320
5.37741e-320
5.40409e-320
5.1452e-320
5.15113e-320
5.20943e-320
6.4021e-320
6.76079e-320
7.14715e-320
7.57007e-320
8.02363e-320
8.47817e-320
8.91097e-320
9.31808e-320
9.72025e-320
1.01343e-319
1.0571e-319
1.10355e-319
1.15246e-319
1.20394e-319
1.25789e-319
1.31441e-319
1.3735e-319
1.43536e-319
1.49979e-319
1.56718e-319
1.63743e-319
1.71065e-319
1.78713e-319
1.86668e-319
1.94958e-319
2.03595e-319
2.12587e-319
2.21954e-319
2.31677e-319
2.41776e-319
2.44434e-319
2.34009e-319
2.2399e-319
2.14365e-319
2.05126e-319
1.96253e-319
1.87745e-319
1.79563e-319
1.71737e-319
1.64227e-319
1.57024e-319
1.50137e-319
1.43526e-319
1.37202e-319
1.31145e-319
1.25354e-319
1.19811e-319
1.14505e-319
1.09445e-319
1.04594e-319
9.99594e-320
9.55325e-320
9.12836e-320
8.72322e-320
8.3339e-320
7.96236e-320
7.60762e-320
7.26771e-320
6.94459e-320
6.63629e-320
5.45646e-320
5.46832e-320
5.48018e-320
5.49006e-320
5.49994e-320
5.50982e-320
5.5197e-320
5.53156e-320
5.54539e-320
5.55923e-320
5.56713e-320
5.56219e-320
5.54638e-320
5.55923e-320
5.64915e-320
1.13981e-319
5.55626e-320
5.31219e-320
5.22425e-320
5.18868e-320
5.14816e-320
5.1699e-320
5.42879e-320
5.39717e-320
5.162e-320
5.1699e-320
5.24698e-320
5.40705e-320
5.5365e-320
5.37445e-320
5.25883e-320
5.22524e-320
5.20152e-320
5.15113e-320
5.13433e-320
5.36555e-320
5.39618e-320
5.14915e-320
5.15014e-320
5.20745e-320
6.40111e-320
6.76079e-320
7.14715e-320
7.56909e-320
8.01869e-320
8.47026e-320
8.90109e-320
9.31017e-320
9.71333e-320
1.01303e-319
1.05691e-319
1.10315e-319
1.15216e-319
1.20354e-319
1.2575e-319
1.31402e-319
1.37301e-319
1.43477e-319
1.49919e-319
1.56639e-319
1.63654e-319
1.70966e-319
1.78595e-319
1.86559e-319
1.9484e-319
2.03456e-319
2.12438e-319
2.21776e-319
2.31499e-319
2.41578e-319
2.44523e-319
2.34098e-319
2.24069e-319
2.14444e-319
2.05195e-319
1.96322e-319
1.87794e-319
1.79623e-319
1.71777e-319
1.64267e-319
1.57063e-319
1.50166e-319
1.43556e-319
1.37232e-319
1.31174e-319
1.25374e-319
1.19841e-319
1.14524e-319
1.09465e-319
1.04613e-319
9.99791e-320
9.55424e-320
9.13033e-320
8.72421e-320
8.33588e-320
7.96434e-320
7.60861e-320
7.26869e-320
6.94459e-320
6.63728e-320
5.45646e-320
5.46832e-320
5.48018e-320
5.49006e-320
5.49994e-320
5.50883e-320
5.51871e-320
5.52958e-320
5.54342e-320
5.55725e-320
5.56516e-320
5.56318e-320
5.55527e-320
5.57504e-320
1.13181e-319
1.13852e-319
5.54737e-320
5.31812e-320
5.23117e-320
5.19263e-320
5.15212e-320
5.17386e-320
5.41891e-320
5.3863e-320
5.16397e-320
5.17188e-320
5.25291e-320
5.41298e-320
5.53452e-320
5.38334e-320
5.26476e-320
5.22721e-320
5.20152e-320
5.15212e-320
5.13631e-320
5.35567e-320
5.38927e-320
5.1531e-320
5.15014e-320
5.20646e-320
6.40013e-320
6.75981e-320
7.14715e-320
7.5681e-320
8.01374e-320
8.46137e-320
8.89121e-320
9.30227e-320
9.7074e-320
1.01264e-319
1.05651e-319
1.10285e-319
1.15177e-319
1.20315e-319
1.257e-319
1.31342e-319
1.37242e-319
1.43407e-319
1.4984e-319
1.5656e-319
1.63565e-319
1.70868e-319
1.78496e-319
1.86431e-319
1.94701e-319
2.03318e-319
2.1228e-319
2.21608e-319
2.31302e-319
2.41361e-319
2.44622e-319
2.34187e-319
2.24158e-319
2.14523e-319
2.05265e-319
1.96381e-319
1.87854e-319
1.79672e-319
1.71836e-319
1.64306e-319
1.57113e-319
1.50206e-319
1.43595e-319
1.37261e-319
1.31204e-319
1.25404e-319
1.1986e-319
1.14554e-319
1.09485e-319
1.04623e-319
9.99989e-320
9.55523e-320
9.13132e-320
8.7252e-320
8.33686e-320
7.96434e-320
7.60861e-320
7.26968e-320
6.94557e-320
6.63827e-320
5.45646e-320
5.46832e-320
5.48018e-320
5.49006e-320
5.49994e-320
5.50784e-320
5.51773e-320
5.52859e-320
5.54144e-320
5.55527e-320
5.56417e-320
5.56516e-320
5.56318e-320
5.59085e-320
1.13339e-319
1.13714e-319
5.54045e-320
5.32405e-320
5.2371e-320
5.19658e-320
5.15508e-320
5.17781e-320
5.41101e-320
5.37543e-320
5.16595e-320
5.17484e-320
5.25883e-320
5.41891e-320
5.53354e-320
5.39124e-320
5.27069e-320
5.22919e-320
5.20152e-320
5.1531e-320
5.13729e-320
5.34579e-320
5.38433e-320
5.15706e-320
5.14816e-320
5.20548e-320
6.39914e-320
6.75981e-320
7.14715e-320
7.56711e-320