/*--------------------------------*- C++ -*----------------------------------*\
  =========                 |
  \\      /  F ield         | OpenFOAM: The Open Source CFD Toolbox
   \\    /   O peration     | Website:  https://openfoam.org
    \\  /    A nd           | Version:  9
     \\/     M anipulation  |
\*---------------------------------------------------------------------------*/
FoamFile
{
    format      ascii;
    class       volScalarField;
    location    "0.12";
    object      p;
}
// * * * * * * * * * * * * * * * * * * * * * * * * * * * * * * * * * * * * * //

dimensions      [1 -1 -2 0 0 0 0];

internalField   nonuniform List<scalar> 
20000
(
2.24851
2.24854
2.24856
2.24858
2.24859
2.24861
2.24861
2.24862
2.24862
2.24861
2.2486
2.24857
2.24853
2.24847
2.24839
2.24827
2.24809
2.24786
2.24754
2.24712
2.24658
2.24592
2.24514
2.24425
2.24328
2.24222
2.24099
2.23943
2.23726
2.23412
2.22918
2.22183
2.21286
2.20346
2.19483
2.18665
2.17656
2.16071
2.13422
2.09718
2.08976
2.1745
2.19217
2.05555
1.57786
0.900427
1.91467
1.79504
1.85127
1.83661
1.68544
1.31518
0.714452
0.791388
1.36355
1.63195
1.68199
1.91497
0.977452
1.98434
1.87028
1.94238
1.87548
1.69172
1.27923
0.689532
0.831267
1.3584
1.74687
1.95355
2.05835
2.11108
2.129
2.10611
2.00065
1.76244
1.15535
1.86296
2.06896
2.15465
2.19664
2.21642
2.22705
2.23342
2.23757
2.24046
2.24255
2.24412
2.24531
2.24622
2.24691
2.24744
2.24784
2.24814
2.24835
2.2485
2.24859
2.24863
2.24863
2.24857
2.24656
2.24661
2.24666
2.24671
2.24676
2.2468
2.24684
2.24687
2.2469
2.24692
2.24693
2.24693
2.24692
2.24689
2.24683
2.24674
2.24661
2.24644
2.24621
2.24591
2.24554
2.24511
2.2446
2.24403
2.24336
2.24254
2.24148
2.24002
2.23797
2.23512
2.23096
2.22519
2.21858
2.21177
2.20514
2.19817
2.18939
2.17723
2.16177
2.14726
2.14671
2.19001
2.17744
2.07979
1.76817
1.52679
1.92075
2.10615
1.98053
1.89834
1.75504
1.42792
1.09004
1.15835
1.45999
1.70042
1.66862
1.98527
1.28032
2.05372
1.86506
1.9542
1.87679
1.73122
1.36489
1.04691
1.17606
1.46769
1.80082
1.95203
2.04055
2.08371
2.09064
2.05825
1.98243
1.9252
1.75325
2.00426
2.06506
2.12364
2.16894
2.195
2.21153
2.22231
2.22948
2.2344
2.23787
2.24035
2.24217
2.2435
2.24449
2.24522
2.24575
2.24614
2.2464
2.24658
2.24668
2.24672
2.24669
2.24661
2.24459
2.24467
2.24476
2.24486
2.24495
2.24505
2.24514
2.24524
2.24533
2.24542
2.24551
2.24559
2.24566
2.24572
2.24576
2.24578
2.24577
2.24573
2.24564
2.24551
2.24532
2.24508
2.24477
2.24438
2.24391
2.24328
2.24245
2.24129
2.23968
2.23747
2.23428
2.22993
2.22497
2.21982
2.21478
2.20959
2.2035
2.19596
2.18772
2.1816
2.18182
2.21283
2.20835
2.1824
2.10147
1.94384
2.15426
2.42416
2.15026
2.02334
1.89858
1.67875
1.4418
1.49744
1.68672
1.86026
1.75684
2.13358
1.5644
2.1336
1.90999
2.01713
1.92405
1.84225
1.61344
1.42255
1.49558
1.68857
1.92161
1.99848
2.06599
2.10011
2.11135
2.10553
2.08688
2.08755
2.01692
2.13641
2.1405
2.1659
2.18811
2.20236
2.21367
2.22206
2.22814
2.23258
2.23584
2.23824
2.24001
2.24132
2.24229
2.24301
2.24353
2.24391
2.24417
2.24435
2.24446
2.24452
2.24456
2.24457
2.24265
2.24276
2.2429
2.24304
2.24318
2.24333
2.24348
2.24364
2.2438
2.24397
2.24413
2.24429
2.24445
2.2446
2.24475
2.24488
2.24499
2.24508
2.24515
2.24518
2.24516
2.2451
2.24499
2.24481
2.24455
2.24417
2.24363
2.24284
2.24173
2.24019
2.23794
2.23485
2.23134
2.22778
2.22444
2.2213
2.21806
2.21455
2.21134
2.21096
2.2144
2.24489
2.258
2.27615
2.32377
2.21973
2.3879
2.63363
2.28793
2.16027
2.05669
1.91005
1.75413
1.81696
1.94767
2.02891
1.89103
2.24971
1.82484
2.22793
1.98488
2.10234
2.00054
1.97423
1.86593
1.76512
1.80219
1.93464
2.03753
2.06148
2.11031
2.13501
2.15001
2.16023
2.1657
2.17361
2.14709
2.20381
2.19704
2.20644
2.21374
2.21871
2.22389
2.22821
2.23171
2.23449
2.23666
2.23833
2.2396
2.24054
2.24124
2.24174
2.2421
2.24234
2.24249
2.24258
2.24263
2.24264
2.24263
2.24262
2.2407
2.24086
2.24105
2.24125
2.24145
2.24166
2.24188
2.24211
2.24234
2.24259
2.24284
2.24309
2.24334
2.24359
2.24385
2.2441
2.24435
2.24458
2.2448
2.245
2.24517
2.24531
2.24541
2.24548
2.24548
2.2454
2.24519
2.24483
2.24425
2.24338
2.24208
2.24025
2.23824
2.23634
2.2348
2.23373
2.23316
2.23328
2.23474
2.24021
2.24719
2.27611
2.30076
2.33398
2.43718
2.39076
2.537
2.73462
2.37125
2.27686
2.18941
2.10204
2.01221
2.07676
2.15936
2.16547
2.02891
2.32828
2.03172
2.30783
2.07056
2.18262
2.08383
2.08975
2.06822
2.03817
2.04132
2.12763
2.12643
2.12512
2.15671
2.17082
2.18356
2.1954
2.20733
2.21593
2.21267
2.23331
2.22503
2.22757
2.22938
2.23097
2.23307
2.23486
2.23642
2.23774
2.2388
2.23963
2.24024
2.24068
2.24098
2.24116
2.24124
2.24126
2.24123
2.24116
2.24106
2.24094
2.24082
2.24071
2.23876
2.23897
2.23922
2.23947
2.23973
2.24001
2.2403
2.24061
2.24092
2.24125
2.24159
2.24193
2.24229
2.24265
2.24303
2.24341
2.24379
2.24418
2.24456
2.24493
2.2453
2.24565
2.246
2.24632
2.24661
2.24685
2.24702
2.2471
2.24708
2.24691
2.24653
2.24596
2.24541
2.24514
2.24538
2.24632
2.24827
2.25165
2.25709
2.26663
2.27797
2.30442
2.33725
2.37466
2.50094
2.49152
2.60385
2.75331
2.43708
2.36754
2.29301
2.25593
2.21991
2.25722
2.30652
2.27058
2.15134
2.38526
2.1813
2.36699
2.15279
2.25108
2.16325
2.18384
2.21497
2.22534
2.21365
2.25927
2.19507
2.18294
2.198
2.20248
2.21104
2.22007
2.23262
2.24107
2.24486
2.2513
2.24309
2.24115
2.23993
2.23967
2.24004
2.2404
2.24075
2.24104
2.24124
2.24134
2.24135
2.24129
2.24116
2.24098
2.24075
2.2405
2.24023
2.23995
2.23966
2.23937
2.23909
2.23882
2.23682
2.23708
2.23738
2.2377
2.23802
2.23837
2.23873
2.23911
2.23951
2.23992
2.24035
2.24079
2.24125
2.24172
2.24222
2.24273
2.24325
2.24379
2.24433
2.24489
2.24545
2.24602
2.2466
2.2472
2.24778
2.24835
2.24891
2.24946
2.24999
2.2505
2.25101
2.2516
2.2524
2.25363
2.25551
2.25836
2.2626
2.26872
2.2772
2.28972
2.30434
2.32987
2.3696
2.41081
2.54728
2.55298
2.62117
2.73406
2.48068
2.43541
2.37355
2.376
2.3749
2.38424
2.40535
2.35388
2.2546
2.4314
2.28901
2.41165
2.22909
2.30643
2.23543
2.26142
2.32346
2.3521
2.33387
2.34799
2.25249
2.23323
2.23368
2.23085
2.23553
2.24179
2.25191
2.258
2.26182
2.26402
2.25735
2.25317
2.24981
2.24776
2.24652
2.2456
2.24491
2.24432
2.24377
2.24323
2.24269
2.24214
2.24159
2.24104
2.24049
2.23994
2.23941
2.23888
2.23837
2.23787
2.2374
2.23695
2.23488
2.23519
2.23555
2.23592
2.23631
2.23673
2.23716
2.23762
2.23809
2.23859
2.23911
2.23965
2.24021
2.2408
2.24141
2.24205
2.24272
2.2434
2.24411
2.24484
2.24559
2.24638
2.24721
2.24806
2.24894
2.24984
2.25079
2.2518
2.25288
2.25403
2.25538
2.25703
2.25904
2.26161
2.26499
2.26958
2.2758
2.28416
2.29497
2.30966
2.32714
2.35262
2.39712
2.44182
2.57936
2.58918
2.61909
2.68787
2.50425
2.48453
2.43554
2.4688
2.48824
2.4737
2.47089
2.4197
2.33844
2.46818
2.36731
2.44581
2.29353
2.35495
2.29932
2.32536
2.4033
2.43738
2.41828
2.40922
2.30062
2.27549
2.2645
2.25629
2.25721
2.26003
2.26629
2.26952
2.27211
2.27258
2.26731
2.26257
2.25829
2.25506
2.2526
2.25061
2.24899
2.24759
2.24634
2.2452
2.24413
2.24312
2.24216
2.24123
2.24035
2.2395
2.23868
2.23789
2.23714
2.23642
2.23574
2.23509
2.23294
2.2333
2.23372
2.23415
2.23461
2.23509
2.2356
2.23613
2.23669
2.23727
2.23788
2.23852
2.23918
2.23988
2.24062
2.24139
2.24219
2.24303
2.24389
2.2448
2.24575
2.24675
2.24781
2.24893
2.2501
2.25133
2.25266
2.25413
2.25573
2.25749
2.25961
2.26225
2.26536
2.26912
2.27382
2.27992
2.28781
2.29796
2.31068
2.32703
2.34682
2.37241
2.41967
2.46457
2.59533
2.60426
2.60209
2.63817
2.51621
2.51847
2.48125
2.53852
2.56868
2.53221
2.5124
2.46945
2.40291
2.49545
2.42181
2.4717
2.3467
2.39581
2.35293
2.37611
2.4574
2.49011
2.47545
2.45055
2.33861
2.3096
2.29037
2.27799
2.27507
2.27419
2.27672
2.27784
2.27926
2.27853
2.27392
2.26912
2.26458
2.26081
2.25765
2.25494
2.25262
2.25057
2.24873
2.24706
2.24552
2.24407
2.24272
2.24144
2.24023
2.23908
2.23798
2.23694
2.23594
2.23499
2.23408
2.23323
2.23099
2.23141
2.23189
2.23238
2.2329
2.23345
2.23403
2.23464
2.23528
2.23595
2.23665
2.23739
2.23816
2.23897
2.23983
2.24073
2.24167
2.24265
2.24368
2.24476
2.2459
2.24712
2.24842
2.2498
2.25125
2.25281
2.25451
2.25641
2.25851
2.26083
2.26368
2.26722
2.27133
2.27614
2.28198
2.28935
2.2986
2.31019
2.32439
2.3419
2.36336
2.38885
2.43557
2.48098
2.59754
2.60267
2.57644
2.59113
2.5202
2.53993
2.51265
2.58735
2.62006
2.5674
2.53754
2.50503
2.44854
2.51599
2.45807
2.49129
2.38931
2.42878
2.39548
2.4147
2.48983
2.51743
2.51108
2.4771
2.36685
2.33598
2.31104
2.29553
2.28917
2.28505
2.2846
2.28422
2.28462
2.28307
2.27872
2.2739
2.26924
2.26517
2.26159
2.25843
2.25562
2.25309
2.25079
2.24868
2.24672
2.2449
2.24319
2.24159
2.24007
2.23863
2.23726
2.23597
2.23473
2.23355
2.23243
2.23136
2.22905
2.22952
2.23005
2.23061
2.2312
2.23182
2.23247
2.23315
2.23387
2.23463
2.23542
2.23625
2.23713
2.23805
2.23903
2.24005
2.24113
2.24226
2.24345
2.2447
2.24603
2.24746
2.24899
2.25062
2.25235
2.25422
2.25629
2.2586
2.26115
2.264
2.26751
2.27187
2.27687
2.28262
2.28946
2.29785
2.30816
2.32083
2.33612
2.35437
2.3769
2.40229
2.44786
2.48988
2.58947
2.59051
2.54871
2.55087
2.51886
2.55168
2.53232
2.61826
2.64783
2.58694
2.553
2.52971
2.48094
2.52982
2.48191
2.50658
2.4228
2.45445
2.42795
2.44317
2.50667
2.52719
2.53144
2.49348
2.38697
2.35577
2.32689
2.30929
2.30014
2.29365
2.29087
2.28929
2.28878
2.28669
2.28247
2.27766
2.27292
2.26861
2.26473
2.26122
2.25804
2.25513
2.25246
2.24999
2.24769
2.24554
2.24352
2.24162
2.23982
2.23812
2.2365
2.23496
2.23349
2.23209
2.23076
2.2295
2.2271
2.22762
2.22822
2.22884
2.22949
2.23017
2.2309
2.23166
2.23246
2.2333
2.23418
2.23511
2.23608
2.23712
2.23821
2.23936
2.24058
2.24185
2.24319
2.24461
2.24613
2.24776
2.24952
2.25138
2.25338
2.25555
2.25796
2.26065
2.26363
2.26695
2.27105
2.27614
2.28191
2.28848
2.29617
2.30538
2.3165
2.32996
2.34596
2.3646
2.38756
2.41264
2.45617
2.49359
2.57499
2.57316
2.52356
2.52122
2.51503
2.55661
2.5431
2.63445
2.65815
2.59734
2.5635
2.5461
2.50371
2.53828
2.49825
2.51895
2.44868
2.47408
2.45215
2.46373
2.51375
2.52692
2.54129
2.50276
2.40076
2.37033
2.33871
2.31999
2.30878
2.30044
2.29594
2.29341
2.29211
2.28959
2.28542
2.28063
2.27583
2.27136
2.26724
2.26346
2.25998
2.25677
2.25379
2.25102
2.24842
2.24598
2.24369
2.24152
2.23946
2.23752
2.23566
2.2339
2.23222
2.23061
2.22908
2.22763
2.22515
2.22572
2.22637
2.22706
2.22777
2.22852
2.22931
2.23015
2.23103
2.23195
2.23292
2.23394
2.23502
2.23616
2.23736
2.23864
2.23999
2.2414
2.24289
2.24447
2.24617
2.248
2.24997
2.25206
2.25431
2.25676
2.25949
2.26254
2.26592
2.26966
2.27428
2.27998
2.28639
2.29365
2.30205
2.31191
2.32361
2.33757
2.35392
2.37264
2.39547
2.41991
2.46047
2.49383
2.55748
2.55459
2.50334
2.50317
2.51071
2.55716
2.54738
2.63886
2.65714
2.60201
2.57122
2.55613
2.51901
2.542
2.51061
2.52889
2.46842
2.48889
2.46985
2.47817
2.51523
2.52062
2.54488
2.50681
2.4095
2.38086
2.34722
2.32822
2.31548
2.30579
2.30006
2.29677
2.2948
2.29192
2.28772
2.28293
2.27809
2.2735
2.2692
2.26521
2.26149
2.25803
2.25479
2.25176
2.24891
2.24622
2.24368
2.24127
2.23899
2.23682
2.23475
2.23278
2.2309
2.2291
2.22739
2.22576
2.2232
2.22382
2.22453
2.22527
2.22604
2.22686
2.22772
2.22863
2.22959
2.23059
2.23164
2.23275
2.23393
2.23517
2.23649
2.23788
2.23936
2.2409
2.24253
2.24427
2.24614
2.24817
2.25034
2.25265
2.25513
2.25784
2.26087
2.26425
2.26798
2.27212
2.2772
2.2834
2.29032
2.29813
2.30708
2.3174
2.32948
2.34368
2.36009
2.37865
2.40092
2.4245
2.46152
2.49177
2.53976
2.5372
2.48851
2.4953
2.50652
2.55486
2.54687
2.63399
2.64652
2.60532
2.57701
2.56145
2.52883
2.54162
2.52068
2.53493
2.48476
2.4998
2.48246
2.48787
2.51408
2.51495
2.54039
2.50639
2.41409
2.38825
2.35304
2.33442
2.32052
2.30995
2.30339
2.29949
2.29695
2.29375
2.28948
2.28467
2.2798
2.27511
2.27068
2.26652
2.26261
2.25894
2.25549
2.25223
2.24916
2.24625
2.2435
2.24088
2.23839
2.23602
2.23375
2.23159
2.22953
2.22755
2.22567
2.22388
2.22125
2.22192
2.22267
2.22347
2.2243
2.22518
2.22611
2.22709
2.22812
2.22921
2.23034
2.23154
2.23281
2.23415
2.23558
2.23709
2.23868
2.24036
2.24212
2.24401
2.24605
2.24825
2.25061
2.25313
2.25583
2.25878
2.26208
2.26575
2.2698
2.2743
2.2798
2.28643
2.29375
2.30198
2.31132
2.32195
2.33423
2.34847
2.36472
2.38291
2.40435
2.42695
2.46027
2.48821
2.52367
2.52225
2.48147
2.48928
2.50346
2.55038
2.54292
2.62286
2.63215
2.60522
2.58069
2.5634
2.535
2.54092
2.52685
2.53719
2.49821
2.50707
2.491
2.49385
2.51152
2.5105
2.53034
2.50248
2.41539
2.39306
2.35688
2.33896
2.32418
2.31309
2.306
2.30162
2.2986
2.29513
2.29078
2.28595
2.28104
2.27628
2.27174
2.26744
2.26338
2.25953
2.2559
2.25246
2.24919
2.2461
2.24315
2.24034
2.23767
2.23511
2.23267
2.23034
2.22811
2.22597
2.22393
2.22199
2.21929
2.22
2.22081
2.22166
2.22255
2.22349
2.22449
2.22554
2.22664
2.2278
2.22902
2.2303
2.23165
2.23309
2.23462
2.23624
2.23795
2.23975
2.24165
2.24368
2.24587
2.24825
2.25079
2.25349
2.25639
2.25957
2.26311
2.26703
2.27135
2.27617
2.28205
2.28905
2.29671
2.30525
2.31487
2.32567
2.33801
2.35214
2.36806
2.38572
2.40616
2.42767
2.4574
2.48356
2.50968
2.50923
2.47635
2.48664
2.5003
2.5436
2.53658
2.608
2.61541
2.60267
2.58199
2.5629
2.53847
2.54006
2.53012
2.5387
2.50642
2.51112
2.49627
2.49683
2.50797
2.50501
2.51897
2.49617
2.4139
2.39607
2.35952
2.34164
2.32663
2.31537
2.30794
2.3032
2.29979
2.29609
2.29168
2.28683
2.28189
2.27708
2.27245
2.26803
2.26383
2.25984
2.25605
2.25245
2.24902
2.24576
2.24264
2.23967
2.23683
2.23412
2.23152
2.22904
2.22665
2.22436
2.22218
2.22012
2.21732
2.21808
2.21894
2.21984
2.22079
2.22179
2.22285
2.22396
2.22514
2.22637
2.22766
2.22902
2.23046
2.23199
2.23362
2.23535
2.23717
2.23908
2.24111
2.24327
2.24561
2.24814
2.25085
2.25373
2.25682
2.26021
2.26396
2.2681
2.27264
2.27771
2.2839
2.29123
2.29916
2.30794
2.31772
2.3286
2.3409
2.35477
2.37026
2.38724
2.40655
2.42691
2.45332
2.47797
2.49742
2.49746
2.47124
2.48368
2.49549
2.53583
2.52922
2.5917
2.59824
2.59725
2.58042
2.56058
2.53981
2.53865
2.53136
2.53903
2.51099
2.51284
2.49893
2.49744
2.50385
2.49911
2.50672
2.485
2.4175
2.39364
2.36076
2.34316
2.32815
2.31689
2.30928
2.30427
2.30055
2.29666
2.2922
2.28735
2.28239
2.27753
2.27283
2.26832
2.26401
2.2599
2.25598
2.25223
2.24866
2.24525
2.24199
2.23887
2.23589
2.23303
2.23029
2.22766
2.22514
2.22272
2.22041
2.21823
2.21536
2.21616
2.21706
2.21801
2.21901
2.22007
2.22119
2.22237
2.22361
2.22491
2.22627
2.22771
2.22923
2.23085
2.23257
2.2344
2.23632
2.23835
2.24049
2.24278
2.24526
2.24794
2.25081
2.25385
2.2571
2.26068
2.26464
2.26898
2.27369
2.27894
2.28537
2.29294
2.30107
2.31001
2.31987
2.33074
2.34289
2.3564
2.37135
2.38756
2.40568
2.42483
2.4483
2.47153
2.48627
2.48616
2.46478
2.47873
2.49025
2.52594
2.52162
2.57555
2.58206
2.58873
2.57583
2.55679
2.53948
2.53667
2.53087
2.5377
2.51323
2.51282
2.49955
2.49625
2.49924
2.49289
2.49481
2.47405
2.41655
2.39143
2.36078
2.34363
2.32886
2.31773
2.31006
2.30487
2.30091
2.29689
2.29239
2.28754
2.28258
2.27769
2.27293
2.26834
2.26394
2.25972
2.25569
2.25182
2.24813
2.24459
2.2412
2.23795
2.23484
2.23185
2.22898
2.22623
2.22358
2.22104
2.2186
2.21631
2.21338
2.21423
2.21517
2.21617
2.21721
2.21833
2.21951
2.22075
2.22205
2.22342
2.22485
2.22636
2.22796
2.22966
2.23147
2.23339
2.23542
2.23755
2.2398
2.24221
2.24481
2.24763
2.25064
2.25382
2.25723
2.26098
2.26513
2.26965
2.27452
2.27991
2.28649
2.29422
2.30248
2.31148
2.32134
2.3321
2.34402
2.3571
2.37144
2.38682
2.40375
2.42167
2.44258
2.46434
2.47563
2.47477
2.45655
2.47151
2.48321
2.51439
2.51545
2.56033
2.56745
2.57765
2.56852
2.55175
2.53776
2.53422
2.52881
2.53479
2.51347
2.51127
2.49852
2.49367
2.49405
2.48613
2.48337
2.46399
2.41306
2.38886
2.35995
2.34329
2.32889
2.31798
2.31033
2.30503
2.30091
2.29679
2.29228
2.28744
2.28249
2.27757
2.27278
2.26813
2.26365
2.25935
2.25521
2.25125
2.24744
2.24379
2.24028
2.23692
2.23369
2.23058
2.2276
2.22473
2.22198
2.21933
2.21679
2.21439
2.21141
2.21228
2.21327
2.21431
2.21541
2.21657
2.2178
2.2191
2.22047
2.2219
2.2234
2.22498
2.22664
2.22842
2.23031
2.23232
2.23445
2.23668
2.23904
2.24155
2.24427
2.24722
2.25036
2.25367
2.2572
2.26109
2.26542
2.27011
2.27514
2.28065
2.28733
2.29515
2.30347
2.31245
2.32222
2.33281
2.34441
2.35701
2.37069
2.38524
2.401
2.4177
2.43637
2.45652
2.46512
2.46361
2.44662
2.46251
2.47504
2.503
2.50876
2.54644
2.55443
2.56482
2.55905
2.54561
2.53477
2.53125
2.52525
2.53049
2.51192
2.50838
2.49613
2.49
2.48824
2.47877
2.47289
2.45426
2.40893
2.38565
2.35845
2.34232
2.32835
2.31771
2.31015
2.30482
2.30058
2.29641
2.2919
2.28709
2.28215
2.27723
2.27241
2.26771
2.26317
2.25879
2.25457
2.25052
2.24662
2.24286
2.23926
2.23579
2.23246
2.22925
2.22616
2.22319
2.22034
2.21759
2.21496
2.21247
2.20942
2.21033
2.21136
2.21244
2.21358
2.21479
2.21608
2.21744
2.21886
2.22036
2.22192
2.22356
2.22529
2.22713
2.2291
2.2312
2.23342
2.23575
2.2382
2.24081
2.24364
2.2467
2.24997
2.25339
2.25703
2.26103
2.26548
2.27033
2.27552
2.28115
2.28791
2.29578
2.3041
2.31302
2.32264
2.33299
2.34423
2.35631
2.36931
2.38301
2.39763
2.41311
2.42976
2.44811
2.45451
2.45167
2.43678
2.45258
2.46641
2.49243
2.50128
2.53364
2.54266
2.55116
2.54811
2.53848
2.53053
2.52786
2.52002
2.525
2.50886
2.50439
2.49263
2.48546
2.48179
2.47084
2.46338
2.44536
2.4046
2.38196
2.35641
2.34082
2.32732
2.317
2.30959
2.30426
2.29997
2.29577
2.29128
2.28651
2.2816
2.27669
2.27185
2.26712
2.26253
2.25808
2.25379
2.24966
2.24567
2.24183
2.23813
2.23457
2.23114
2.22784
2.22466
2.2216
2.21866
2.21583
2.21311
2.21054
2.20743
2.20838
2.20944
2.21056
2.21174
2.213
2.21434
2.21575
2.21723
2.21878
2.2204
2.2221
2.22389
2.2258
2.22784
2.23002
2.23232
2.23474
2.23728
2.23999
2.24291
2.24608
2.24947
2.25301
2.25674
2.2608
2.26534
2.2703
2.27562
2.28136
2.2882
2.2961
2.30439
2.31321
2.32264
2.33273
2.34356
2.35511
2.36741
2.38025
2.39376
2.408
2.42281
2.43911
2.44403
2.44008
2.42664
2.44263
2.45773
2.48227
2.49283
2.5226
2.53188
2.53745
2.5364
2.53047
2.52491
2.52264
2.51447
2.51875
2.50463
2.49955
2.48822
2.48025
2.47473
2.46247
2.45476
2.43767
2.4002
2.37797
2.35396
2.33888
2.32589
2.31591
2.30869
2.30341
2.2991
2.29491
2.29047
2.28574
2.28087
2.27597
2.27113
2.26637
2.26174
2.25725
2.25289
2.24869
2.24462
2.2407
2.23692
2.23328
2.22976
2.22637
2.22311
2.21997
2.21695
2.21404
2.21125
2.20861
2.20543
2.20641
2.20751
2.20866
2.20988
2.21119
2.21257
2.21403
2.21557
2.21718
2.21885
2.2206
2.22245
2.22442
2.22653
2.22878
2.23116
2.23367
2.23629
2.23908
2.24208
2.24535
2.24885
2.25251
2.25633
2.26045
2.26502
2.27004
2.27545
2.28127
2.28817
2.29606
2.30431
2.31301
2.32224
2.33202
2.34243
2.35342
2.36501
2.37699
2.38942
2.40244
2.41556
2.42984
2.43359
2.42921
2.41738
2.43365
2.44931
2.47258
2.48434
2.51249
2.52152
2.52424
2.52457
2.52177
2.51809
2.51617
2.50817
2.51198
2.49949
2.49407
2.48311
2.47456
2.46722
2.4539
2.44692
2.4313
2.39584
2.37385
2.35124
2.33664
2.32417
2.31454
2.30751
2.30232
2.29804
2.29388
2.28948
2.28482
2.28
2.27512
2.27027
2.2655
2.26084
2.2563
2.25189
2.24762
2.24349
2.2395
2.23564
2.23192
2.22832
2.22486
2.22152
2.21831
2.21522
2.21224
2.20939
2.20667
2.20343
2.20444
2.20557
2.20676
2.20802
2.20936
2.21079
2.2123
2.21388
2.21554
2.21727
2.21907
2.22097
2.22299
2.22516
2.22748
2.22995
2.23254
2.23524
2.23809
2.24116
2.2445
2.2481
2.25188
2.25581
2.25999
2.26457
2.26961
2.27505
2.28091
2.28781
2.29568
2.30385
2.31241
2.3214
2.33086
2.34084
2.35127
2.36214
2.37329
2.3847
2.39652
2.40811
2.42049
2.42337
2.41939
2.40976
2.42598
2.4414
2.46339
2.47553
2.50355
2.51116
2.51194
2.5131
2.51259
2.51031
2.50852
2.50153
2.50481
2.49371
2.48812
2.47748
2.46856
2.45947
2.44537
2.43969
2.4261
2.39166
2.36977
2.34837
2.33421
2.32223
2.31295
2.30614
2.30104
2.29681
2.2927
2.28837
2.28377
2.279
2.27415
2.26932
2.26454
2.25985
2.25527
2.25081
2.24648
2.24229
2.23823
2.2343
2.23051
2.22684
2.22331
2.21991
2.21663
2.21347
2.21043
2.20751
2.20474
2.20142
2.20246
2.20362
2.20484
2.20613
2.20752
2.20898
2.21054
2.21217
2.21388
2.21565
2.21751
2.21946
2.22153
2.22375
2.22613
2.22867
2.23134
2.23412
2.23704
2.24015
2.24355
2.24723
2.25112
2.25516
2.25941
2.26402
2.26905
2.27448
2.28034
2.2872
2.29499
2.30305
2.31143
2.32018
2.32929
2.33883
2.34871
2.3589
2.36924
2.37969
2.3904
2.40064
2.41135
2.41384
2.41077
2.40365
2.41952
2.4341
2.45484
2.4669
2.49393
2.50163
2.50072
2.50226
2.50316
2.5019
2.50051
2.49498
2.49666
2.48744
2.48188
2.47152
2.46242
2.45179
2.4372
2.4329
2.42181
2.38772
2.36588
2.34545
2.3317
2.32018
2.31122
2.30462
2.29963
2.29546
2.29141
2.28715
2.28263
2.27791
2.2731
2.26828
2.26349
2.25878
2.25417
2.24967
2.24529
2.24104
2.23692
2.23292
2.22906
2.22533
2.22174
2.21826
2.21492
2.2117
2.2086
2.20563
2.2028
2.19941
2.20047
2.20166
2.20292
2.20424
2.20566
2.20716
2.20876
2.21043
2.21218
2.21401
2.21591
2.2179
2.22002
2.22228
2.22472
2.22733
2.23008
2.23295
2.23593
2.23908
2.2425
2.24622
2.25019
2.25435
2.25869
2.26334
2.26837
2.27378
2.2796
2.28639
2.29407
2.30199
2.31017
2.31864
2.32742
2.33652
2.34586
2.3554
2.36499
2.37457
2.38426
2.39336
2.4027
2.40517
2.40337
2.39873
2.41397
2.4274
2.44693
2.45878
2.48482
2.49179
2.49036
2.49213
2.49365
2.49306
2.4921
2.48815
2.48847
2.48101
2.47554
2.46543
2.45629
2.44443
2.42964
2.42643
2.41814
2.38406
2.36227
2.34258
2.3292
2.31811
2.30944
2.30303
2.29815
2.29404
2.29005
2.28587
2.28141
2.27675
2.27198
2.26717
2.26239
2.25767
2.25303
2.24849
2.24406
2.23976
2.23558
2.23153
2.2276
2.22381
2.22015
2.21661
2.21321
2.20993
2.20678
2.20375
2.20086
2.19738
2.19847
2.1997
2.20098
2.20234
2.20379
2.20532
2.20695
2.20866
2.21046
2.21233
2.21428
2.21632
2.21848
2.22078
2.22326
2.22593
2.22876
2.23171
2.23476
2.23796
2.24139
2.24512
2.24913
2.25336
2.25779
2.2625
2.26754
2.27294
2.27872
2.28543
2.29299
2.30075
2.3087
2.3169
2.32533
2.33401
2.34284
2.35178
2.36067
2.36947
2.37828
2.38644
2.39469
2.39741
2.39696
2.39455
2.40896
2.42114
2.43947
2.45105
2.47604
2.48188
2.48078
2.48265
2.4842
2.48397
2.48331
2.48092
2.4808
2.47466
2.46923
2.45936
2.45027
2.43762
2.42291
2.42025
2.41472
2.38066
2.35901
2.33986
2.32682
2.31609
2.30769
2.30144
2.29665
2.29259
2.28867
2.28455
2.28016
2.27555
2.27082
2.26603
2.26125
2.25652
2.25185
2.24728
2.24282
2.23846
2.23423
2.23012
2.22613
2.22228
2.21856
2.21496
2.2115
2.20816
2.20495
2.20186
2.19893
2.19536
2.19648
2.19773
2.19905
2.20043
2.20191
2.20347
2.20512
2.20687
2.20871
2.21062
2.21262
2.21471
2.2169
2.21924
2.22176
2.22447
2.22736
2.2304
2.23353
2.23678
2.24023
2.24394
2.24796
2.25222
2.25672
2.26147
2.26654
2.27193
2.27767
2.28431
2.29175
2.29934
2.30707
2.315
2.3231
2.33138
2.33972
2.34811
2.35637
2.36449
2.37254
2.37998
2.3874
2.39045
2.39124
2.39065
2.40409
2.4151
2.4323
2.44356
2.46736
2.47226
2.47191
2.47375
2.47498
2.4749
2.47439
2.47357
2.47361
2.4685
2.46305
2.4534
2.44444
2.43149
2.41715
2.41443
2.41123
2.3775
2.35613
2.33736
2.32462
2.3142
2.30601
2.2999
2.29517
2.29116
2.28728
2.28322
2.27889
2.27433
2.26963
2.26486
2.26009
2.25535
2.25067
2.24607
2.24156
2.23716
2.23288
2.22872
2.22468
2.22076
2.21698
2.21333
2.2098
2.2064
2.20313
2.19999
2.19699
2.19332
2.19447
2.19576
2.19711
2.19852
2.20002
2.2016
2.20328
2.20505
2.20692
2.20888
2.21093
2.21307
2.21531
2.21768
2.22022
2.22296
2.2259
2.229
2.23222
2.23554
2.23902
2.24273
2.24672
2.25098
2.25549
2.26026
2.26534
2.27073
2.27644
2.28301
2.29033
2.29775
2.30528
2.31295
2.32074
2.32864
2.33655
2.34443
2.35215
2.35969
2.36711
2.37398
2.38076
2.38414
2.38591
2.38666
2.39905
2.40907
2.42528
2.43627
2.45885
2.46307
2.46361
2.46536
2.46614
2.46612
2.46562
2.46631
2.46678
2.46256
2.45701
2.44762
2.43884
2.42606
2.41238
2.40903
2.40742
2.37454
2.35362
2.33513
2.32267
2.3125
2.30448
2.29846
2.29377
2.28978
2.28593
2.28191
2.27763
2.27311
2.26844
2.26369
2.25893
2.25418
2.24948
2.24486
2.24032
2.23588
2.23155
2.22733
2.22324
2.21927
2.21542
2.21171
2.20812
2.20466
2.20133
2.19812
2.19506
2.19128
2.19247
2.19379
2.19516
2.1966
2.19812
2.19972
2.20142
2.20321
2.20511
2.20711
2.2092
2.21139
2.21368
2.21609
2.21865
2.22141
2.22438
2.22753
2.23082
2.23421
2.23774
2.24146
2.24543
2.24966
2.25415
2.25891
2.26397
2.26934
2.27501
2.28151
2.28871
2.29597
2.3033
2.31073
2.31824
2.3258
2.33331
2.34076
2.34801
2.35507
2.36197
2.36839
2.37467
2.37828
2.38073
2.38235
2.39369
2.40293
2.41833
2.42919
2.45067
2.4544
2.45574
2.45745
2.45782
2.45785
2.45729
2.45926
2.46021
2.45676
2.4511
2.44201
2.43347
2.42129
2.40851
2.4041
2.40321
2.37175
2.35145
2.33321
2.321
2.31102
2.30312
2.29716
2.29248
2.28849
2.28465
2.28066
2.2764
2.27192
2.26727
2.26254
2.25777
2.25302
2.2483
2.24365
2.23908
2.23461
2.23023
2.22597
2.22182
2.21779
2.21389
2.21012
2.20646
2.20294
2.19954
2.19626
2.19313
2.18923
2.19045
2.19181
2.19321
2.19468
2.19621
2.19783
2.19954
2.20135
2.20327
2.2053
2.20745
2.20969
2.21203
2.21448
2.21707
2.21983
2.22281
2.22598
2.22932
2.23279
2.23637
2.24012
2.24409
2.24829
2.25275
2.25747
2.26248
2.26779
2.27341
2.27982
2.2869
2.294
2.30115
2.30836
2.3156
2.32285
2.33003
2.3371
2.34396
2.35061
2.35709
2.36317
2.36903
2.37274
2.37556
2.37767
2.38797
2.39662
2.4114
2.42235
2.44293
2.4463
2.44827
2.45
2.45012
2.45024
2.44958
2.4525
2.45378
2.45101
2.44524
2.43657
2.42832
2.41706
2.4054
2.39969
2.39865
2.36912
2.34957
2.33158
2.31962
2.30978
2.30197
2.29603
2.29134
2.28733
2.28348
2.27949
2.27525
2.27079
2.26615
2.26142
2.25665
2.25188
2.24715
2.24247
2.23787
2.23335
2.22894
2.22463
2.22043
2.21635
2.21239
2.20855
2.20483
2.20123
2.19776
2.1944
2.19121
2.18718
2.18843
2.18982
2.19126
2.19275
2.1943
2.19593
2.19765
2.19947
2.20141
2.20347
2.20566
2.20795
2.21035
2.21285
2.21547
2.21824
2.22121
2.22438
2.22774
2.23125
2.2349
2.23869
2.24267
2.24685
2.25128
2.25595
2.26091
2.26615
2.27168
2.27799
2.28493
2.29189
2.29887
2.30587
2.31287
2.31985
2.32672
2.33347
2.34
2.34633
2.35247
2.35824
2.36373
2.36741
2.37036
2.37265
2.38193
2.39018
2.40452
2.41576
2.43571
2.4388
2.4412
2.44305
2.44306
2.44334
2.44254
2.44612
2.44743
2.44519
2.4394
2.43124
2.42339
2.41325
2.40286
2.39578
2.39395
2.36666
2.34791
2.33024
2.31851
2.30879
2.30103
2.29508
2.29036
2.28631
2.28244
2.27844
2.2742
2.26974
2.2651
2.26036
2.25557
2.25078
2.24602
2.24132
2.23668
2.23213
2.22767
2.22331
2.21906
2.21493
2.2109
2.207
2.20321
2.19954
2.19599
2.19256
2.18929
2.18512
2.18641
2.18782
2.18929
2.1908
2.19238
2.19402
2.19575
2.19758
2.19953
2.20162
2.20383
2.20618
2.20863
2.21118
2.21384
2.21664
2.2196
2.22275
2.2261
2.22963
2.23331
2.23714
2.24114
2.24533
2.24974
2.25437
2.25927
2.26443
2.26987
2.27607
2.28288
2.28969
2.29649
2.3033
2.31008
2.31682
2.32343
2.32991
2.33617
2.34223
2.34808
2.35358
2.3587
2.36225
2.36512
2.36739
2.3757
2.38367
2.39777
2.40948
2.42902
2.43188
2.43459
2.4366
2.43663
2.43711
2.43602
2.44026
2.44111
2.43921
2.43353
2.42603
2.41868
2.40976
2.40069
2.39235
2.38934
2.36442
2.34644
2.32916
2.31765
2.30802
2.30031
2.29435
2.28957
2.28547
2.28155
2.27753
2.27328
2.2688
2.26414
2.25938
2.25457
2.24974
2.24494
2.2402
2.23552
2.23092
2.22641
2.22201
2.2177
2.21351
2.20942
2.20545
2.20159
2.19785
2.19422
2.19071
2.18737
2.18305
2.18437
2.18581
2.18731
2.18884
2.19044
2.1921
2.19384
2.19569
2.19765
2.19975
2.20199
2.20436
2.20686
2.20947
2.21218
2.21501
2.21797
2.22111
2.22443
2.22794
2.23163
2.23548
2.2395
2.24369
2.24809
2.2527
2.25755
2.26264
2.268
2.27409
2.28077
2.28744
2.29408
2.30071
2.30729
2.31381
2.32021
2.32646
2.33249
2.33831
2.3439
2.34914
2.3539
2.35722
2.35989
2.36201
2.36942
2.37722
2.39123
2.40358
2.42288
2.42553
2.42848
2.43067
2.43076
2.4315
2.43062
2.43418
2.43474
2.43307
2.42768
2.42095
2.4142
2.40653
2.39872
2.38938
2.38508
2.36244
2.34514
2.32831
2.31702
2.30748
2.29981
2.29382
2.28899
2.28482
2.28085
2.27679
2.27251
2.268
2.26331
2.25851
2.25365
2.24878
2.24393
2.23912
2.23439
2.22973
2.22517
2.2207
2.21634
2.21208
2.20792
2.20388
2.19995
2.19614
2.19244
2.18886
2.18544
2.18097
2.18231
2.18378
2.1853
2.18686
2.18848
2.19017
2.19193
2.19379
2.19576
2.19787
2.20012
2.20252
2.20506
2.20771
2.21047
2.21334
2.21632
2.21945
2.22274
2.22623
2.22989
2.23372
2.23774
2.24194
2.24633
2.25092
2.25573
2.26077
2.26605
2.27205
2.27861
2.28515
2.29166
2.29812
2.30453
2.31087
2.31707
2.32312
2.32895
2.33456
2.33992
2.34489
2.34928
2.35233
2.35472
2.35662
2.36321
2.37093
2.38501
2.3981
2.41722
2.41971
2.42292
2.42525
2.42531
2.42629
2.42558
2.42852
2.42846
2.42686
2.42191
2.41605
2.41002
2.40352
2.39684
2.38684
2.3814
2.3608
2.34406
2.32769
2.31661
2.30716
2.29953
2.29351
2.28862
2.28438
2.28036
2.27624
2.27192
2.26736
2.26263
2.25777
2.25285
2.24791
2.24298
2.23811
2.2333
2.22857
2.22393
2.21939
2.21495
2.21062
2.20639
2.20228
2.19828
2.1944
2.19064
2.18699
2.18351
2.17889
2.18024
2.18173
2.18327
2.18486
2.18651
2.18822
2.19001
2.19189
2.19388
2.196
2.19826
2.20066
2.20322
2.2059
2.20871
2.21161
2.21463
2.21776
2.22104
2.22448
2.2281
2.23191
2.2359
2.24007
2.24445
2.24902
2.2538
2.2588
2.26402
2.26994
2.27641
2.28284
2.28921
2.29554
2.30179
2.30797
2.31401
2.31989
2.32554
2.33096
2.33609
2.34079
2.34483
2.34758
2.34965
2.35131
2.35719
2.36493
2.3792
2.39307
2.41202
2.41439
2.41793
2.42032
2.42017
2.42133
2.42084
2.42319
2.42238
2.42077
2.41636
2.41144
2.40619
2.40076
2.39501
2.38472
2.37841
2.35956
2.34323
2.32732
2.31643
2.30707
2.29947
2.29343
2.28847
2.28417
2.28007
2.2759
2.27152
2.26691
2.26211
2.25718
2.25218
2.24715
2.24214
2.23717
2.23226
2.22743
2.2227
2.21806
2.21354
2.20912
2.20481
2.20063
2.19656
2.19262
2.1888
2.1851
2.18158
2.17679
2.17815
2.17966
2.18121
2.18283
2.1845
2.18625
2.18808
2.18999
2.192
2.19413
2.19639
2.1988
2.20136
2.20406
2.20688
2.20982
2.21287
2.21602
2.21929
2.22272
2.2263
2.23006
2.234
2.23813
2.24247
2.24701
2.25175
2.25671
2.26189
2.26775
2.27413
2.28046
2.28673
2.29294
2.29907
2.30511
2.31101
2.31674
2.32223
2.32747
2.33239
2.33682
2.34051
2.34296
2.34472
2.34617
2.35147
2.3593
2.37387
2.38853
2.40722
2.40956
2.41353
2.41583
2.41527
2.41649
2.41632
2.41819
2.41667
2.41502
2.41123
2.40724
2.4028
2.3983
2.39327
2.38302
2.37619
2.35877
2.34274
2.32724
2.31651
2.30723
2.29965
2.29358
2.28856
2.28417
2.28
2.27576
2.27131
2.26664
2.26177
2.25675
2.25166
2.24653
2.2414
2.23631
2.23128
2.22634
2.22148
2.21674
2.2121
2.20759
2.2032
2.19893
2.1948
2.1908
2.18693
2.1832
2.17964
2.17468
2.17605
2.17756
2.17914
2.18077
2.18248
2.18426
2.18612
2.18808
2.19012
2.19227
2.19454
2.19694
2.19949
2.20218
2.20501
2.20797