/*--------------------------------*- C++ -*----------------------------------*\
  =========                 |
  \\      /  F ield         | OpenFOAM: The Open Source CFD Toolbox
   \\    /   O peration     | Website:  https://openfoam.org
    \\  /    A nd           | Version:  9
     \\/     M anipulation  |
\*---------------------------------------------------------------------------*/
FoamFile
{
    format      ascii;
    class       volScalarField;
    location    "0.12";
    object      p_rgh;
}
// * * * * * * * * * * * * * * * * * * * * * * * * * * * * * * * * * * * * * //

dimensions      [1 -1 -2 0 0 0 0];

internalField   nonuniform List<scalar> 
20000
(
2.08821e-05
4.42686e-05
6.5649e-05
8.5456e-05
0.000101409
0.000113416
0.000121508
0.000125417
0.000124598
0.000118011
0.000103854
7.93868e-05
4.06471e-05
-1.77471e-05
-0.000103379
-0.000225854
-0.000397582
-0.00063384
-0.000952338
-0.00137164
-0.00190786
-0.00256948
-0.00335206
-0.00423781
-0.00520769
-0.00627026
-0.00749899
-0.00906155
-0.01123
-0.014373
-0.0193076
-0.0266627
-0.0356323
-0.0450337
-0.05366
-0.0618411
-0.0719323
-0.0877802
-0.114274
-0.151315
-0.158736
-0.073993
-0.0563229
-0.192943
-0.670634
-1.34806
-0.333819
-0.453457
-0.397219
-0.411879
-0.563056
-0.933314
-1.53404
-1.4571
-0.884945
-0.61654
-0.566502
-0.333522
-1.27104
-0.264153
-0.378216
-0.306112
-0.373014
-0.556775
-0.969264
-1.55896
-1.41722
-0.890093
-0.501627
-0.294941
-0.190143
-0.137416
-0.119493
-0.142384
-0.247844
-0.486051
-1.09314
-0.38553
-0.179533
-0.0938395
-0.051852
-0.032069
-0.0214385
-0.0150722
-0.0109219
-0.00803588
-0.00593919
-0.00437337
-0.00318523
-0.00227682
-0.00158149
-0.00105153
-0.000651607
-0.000354937
-0.000141017
5.86351e-06
9.73697e-05
0.00014024
0.000135332
7.36129e-05
2.78586e-05
7.74638e-05
0.000131783
0.000184365
0.000231368
0.000273814
0.000311636
0.000344057
0.000370755
0.000390717
0.000402097
0.000402416
0.000388353
0.000355539
0.000298495
0.000210495
8.33085e-05
-9.19301e-05
-0.000324241
-0.000621288
-0.000987661
-0.00142393
-0.00192858
-0.00250487
-0.00317351
-0.00398849
-0.00505017
-0.00650902
-0.00855733
-0.0114061
-0.0155713
-0.021336
-0.0279458
-0.0347602
-0.0413871
-0.0483564
-0.0571357
-0.0693
-0.0847552
-0.0992731
-0.0998178
-0.0565227
-0.0690879
-0.166737
-0.478361
-0.719738
-0.325784
-0.140381
-0.266
-0.348186
-0.491491
-0.818606
-1.15649
-1.08818
-0.786545
-0.546115
-0.577915
-0.261257
-0.966205
-0.192812
-0.381466
-0.292327
-0.369742
-0.51531
-0.881641
-1.19962
-1.07047
-0.778841
-0.445706
-0.294497
-0.205977
-0.162824
-0.155886
-0.188276
-0.264098
-0.32133
-0.49328
-0.242275
-0.181471
-0.122892
-0.0775926
-0.0515286
-0.035002
-0.0242249
-0.0170487
-0.0121277
-0.00866479
-0.00617716
-0.00436297
-0.00302732
-0.00204004
-0.00131141
-0.000777966
-0.000394028
-0.000126364
4.921e-05
0.000149835
0.000185894
0.000162105
7.92801e-05
2.68316e-05
0.000103362
0.000196391
0.000290725
0.000384232
0.000479009
0.000574352
0.00066983
0.000764203
0.000855757
0.000942516
0.00102223
0.00109219
0.00114917
0.00118935
0.00120808
0.00119964
0.00115739
0.00107398
0.000942131
0.000755667
0.000509991
0.000200318
-0.000183098
-0.000662798
-0.00128361
-0.00212033
-0.00327926
-0.00489212
-0.00710035
-0.0102838
-0.0146369
-0.019602
-0.0247472
-0.0297855
-0.034979
-0.0410651
-0.0486116
-0.0568443
-0.0629671
-0.0627505
-0.0317359
-0.0362152
-0.0621676
-0.143097
-0.300725
-0.0903052
0.179589
-0.0943047
-0.221232
-0.345985
-0.565815
-0.802773
-0.747128
-0.557849
-0.384307
-0.487728
-0.110991
-0.680166
-0.110972
-0.334577
-0.227433
-0.320517
-0.40232
-0.631131
-0.82202
-0.748992
-0.555998
-0.322955
-0.246086
-0.178581
-0.144462
-0.133218
-0.13904
-0.157683
-0.157021
-0.22765
-0.108161
-0.104071
-0.0786724
-0.0564618
-0.0422075
-0.0308998
-0.0225116
-0.0164249
-0.011985
-0.00873011
-0.00633224
-0.00455903
-0.00324578
-0.00227443
-0.0015593
-0.00103752
-0.000662495
-0.000399332
-0.000221508
-0.000108492
-4.40053e-05
-1.29983e-05
1.93468e-06
3.95179e-05
0.000153114
0.00028935
0.000429773
0.000573162
0.00072255
0.000877174
0.00103609
0.00119814
0.00136189
0.00152571
0.00168768
0.00184568
0.00199744
0.00214046
0.00227152
0.0023862
0.00247879
0.00254275
0.00257079
0.00255665
0.00249507
0.00238028
0.00220239
0.00194215
0.00156571
0.00102112
0.000237627
-0.00087404
-0.00241533
-0.00466124
-0.00775193
-0.0112623
-0.0148304
-0.0181641
-0.0213038
-0.0245422
-0.0280594
-0.0312665
-0.0316449
-0.0282095
0.00228019
0.0153913
0.0335402
0.0811634
-0.0228801
0.145296
0.391025
0.0453277
-0.0823366
-0.18592
-0.332556
-0.488479
-0.425647
-0.294934
-0.213699
-0.351578
0.00710231
-0.417764
-0.0146752
-0.257725
-0.140262
-0.242062
-0.268373
-0.376675
-0.477487
-0.44042
-0.307964
-0.205078
-0.181129
-0.132292
-0.107599
-0.0925996
-0.0823732
-0.0769095
-0.0689928
-0.0955184
-0.0387941
-0.0455634
-0.0361631
-0.0288658
-0.0238921
-0.018718
-0.0143956
-0.0109006
-0.00811505
-0.00594161
-0.0042728
-0.00300865
-0.00206376
-0.00136795
-0.000864979
-0.000510441
-0.00026943
-0.000114454
-2.36453e-05
2.05377e-05
3.23733e-05
2.58781e-05
1.21284e-05
5.86833e-05
0.000218248
0.000406355
0.000601719
0.000803091
0.00101436
0.001235
0.00146413
0.00170074
0.00194366
0.00219154
0.0024429
0.00269638
0.00295076
0.0032047
0.00345616
0.00370179
0.00393676
0.00415531
0.00435183
0.00452199
0.0046625
0.00476902
0.00483246
0.00483558
0.00475201
0.00454795
0.00418249
0.00360177
0.00273944
0.001431
-0.000391623
-0.00240482
-0.0043088
-0.00584515
-0.00691603
-0.00748596
-0.00736606
-0.00589956
-0.000437569
0.00654156
0.0354625
0.0601134
0.0933356
0.196533
0.150114
0.296351
0.493975
0.130604
0.0362125
-0.0512334
-0.138605
-0.228437
-0.163883
-0.081287
-0.0751774
-0.211732
0.0876334
-0.208922
0.0671841
-0.170088
-0.058027
-0.156809
-0.150898
-0.172422
-0.20247
-0.19932
-0.113011
-0.114214
-0.115527
-0.0839319
-0.0698264
-0.0570823
-0.0452398
-0.0333118
-0.0247117
-0.027977
-0.0073307
-0.0156097
-0.0130772
-0.0112622
-0.00967186
-0.00757416
-0.00577981
-0.00422068
-0.00290395
-0.00184216
-0.0010178
-0.000402077
3.73621e-05
0.000332217
0.000511188
0.000599157
0.000617208
0.000582985
0.000511192
0.000413799
0.000299574
0.000180015
6.48631e-05
7.9443e-05
0.000288917
0.000533155
0.000787684
0.00105124
0.00132868
0.00161971
0.00192373
0.00224001
0.00256754
0.00290524
0.00325217
0.00360783
0.00397205
0.00434457
0.00472431
0.00510871
0.00549378
0.00587501
0.00624889
0.00661392
0.00696977
0.00731429
0.00763964
0.00793068
0.00816866
0.00833725
0.00842177
0.00839685
0.00822481
0.00785027
0.00727595
0.00673144
0.00646115
0.00669411
0.00764097
0.00958345
0.01297
0.0184076
0.0279488
0.0392867
0.0657356
0.098563
0.135982
0.262259
0.252843
0.365167
0.514628
0.198398
0.128859
0.0543285
0.0172492
-0.01877
0.0185373
0.0678379
0.031902
-0.0873429
0.146577
-0.0573789
0.12831
-0.0858959
0.0124026
-0.0754339
-0.0548461
-0.0237167
-0.0133408
-0.0250309
0.0205856
-0.0436169
-0.0557394
-0.0406794
-0.0362051
-0.0276454
-0.0186074
-0.00605856
0.00239145
0.00618018
0.012617
0.00441204
0.00246556
0.00124526
0.000990325
0.00135946
0.0017167
0.00206938
0.00235866
0.0025552
0.00265698
0.00267035
0.00260595
0.00247629
0.00229406
0.00207131
0.00181904
0.0015469
0.00126325
0.000974638
0.000685011
0.00040535
0.000140303
9.99547e-05
0.000360191
0.00066152
0.000976023
0.00130254
0.00164692
0.00200908
0.00238864
0.00278513
0.00319783
0.00362605
0.00406957
0.00452881
0.00500462
0.00549768
0.00600761
0.00653239
0.00706876
0.00761357
0.00816564
0.00872663
0.00929954
0.00988473
0.0104759
0.0110611
0.0116308
0.0121865
0.0127353
0.0132711
0.0137752
0.0142913
0.0148782
0.015679
0.0169053
0.0187908
0.0216448
0.0258779
0.0320037
0.0404801
0.0529951
0.0676187
0.0931549
0.132877
0.174086
0.310561
0.31626
0.384445
0.497341
0.243959
0.19869
0.136825
0.139282
0.138175
0.147518
0.16863
0.117162
0.0178782
0.194677
0.0522883
0.17493
-0.00762752
0.0697066
-0.00128786
0.0247004
0.0867425
0.115381
0.0971508
0.111266
0.0157741
-0.00349337
-0.00304153
-0.00586895
-0.00118568
0.00507371
0.0151927
0.0212794
0.025095
0.0273049
0.0206327
0.0164535
0.0130937
0.011037
0.00979528
0.00888279
0.00819249
0.00760142
0.00704923
0.00650944
0.00596929
0.00542421
0.00487421
0.00432169
0.00377019
0.00322358
0.00268553
0.00215925
0.0016469
0.00115007
0.000678307
0.00023137
0.000119919
0.000431528
0.000790822
0.00116608
0.00155627
0.00196821
0.00240197
0.00285733
0.00333406
0.00383173
0.00435024
0.00489014
0.00545284
0.0060402
0.00665368
0.00729341
0.00795776
0.00864412
0.00935083
0.0100793
0.0108346
0.0116234
0.0124482
0.0133041
0.0141825
0.0150848
0.0160297
0.0170409
0.0181234
0.0192721
0.0206205
0.0222717
0.0242849
0.0268509
0.0302326
0.0348191
0.0410461
0.0493971
0.0602123
0.0749039
0.0923848
0.117866
0.162362
0.207066
0.344605
0.354426
0.384334
0.453109
0.269493
0.249776
0.200781
0.234046
0.253482
0.238939
0.236133
0.184945
0.103679
0.233418
0.132548
0.211053
0.0587692
0.120197
0.0645659
0.0906012
0.16854
0.202623
0.183518
0.174462
0.0658594
0.0407281
0.0297439
0.0215322
0.0224487
0.0252709
0.031533
0.0347667
0.0373552
0.0378223
0.0325549
0.0278164
0.0235305
0.0203056
0.0178423
0.0158553
0.014227
0.0128274
0.01158
0.0104379
0.00937111
0.00836142
0.00739813
0.00647515
0.0055891
0.00473806
0.00392083
0.00313654
0.00238379
0.0016613
0.000977386
0.000329496
0.000139266
0.000503018
0.000921267
0.00135831
0.00181322
0.00229376
0.00280014
0.00333224
0.00389002
0.00447342
0.0050829
0.00571987
0.00638672
0.00708625
0.00782062
0.00859032
0.00939403
0.0102298
0.0110976
0.0120016
0.0129509
0.0139552
0.0150188
0.0161372
0.0173059
0.0185377
0.0198671
0.0213291
0.0229347
0.0246911
0.0268172
0.029452
0.0325637
0.0363198
0.0410211
0.0471221
0.0550189
0.0651647
0.0778849
0.0942292
0.114027
0.139616
0.186875
0.231772
0.362538
0.37146
0.369293
0.405374
0.283411
0.28567
0.248458
0.305728
0.335883
0.299416
0.2796
0.236651
0.170115
0.262652
0.189011
0.238899
0.113904
0.163013
0.120129
0.143318
0.224605
0.257315
0.24265
0.217751
0.105813
0.076799
0.0575782
0.0451936
0.0422695
0.0413943
0.0439235
0.0450394
0.0464639
0.0457343
0.0411232
0.0363239
0.0317816
0.0280137
0.0248515
0.022148
0.0198216
0.0177737
0.0159376
0.0142647
0.0127197
0.0112784
0.00992407
0.00864493
0.00743269
0.00628102
0.00518488
0.00414022
0.00314286
0.00218917
0.00128614
0.000430198
0.000157723
0.000573972
0.00105148
0.00155068
0.00207078
0.00262042
0.0031999
0.00380921
0.00444848
0.005118
0.00581883
0.00655323
0.00732459
0.00813656
0.0089919
0.00989138
0.0108339
0.0118183
0.0128461
0.0139247
0.015067
0.0162859
0.017586
0.0189627
0.0204163
0.0219718
0.0236767
0.025572
0.0276713
0.0299942
0.0328435
0.0363863
0.0404927
0.045305
0.05115
0.0585181
0.0677705
0.0793531
0.0935562
0.111064
0.132526
0.158018
0.204735
0.250147
0.366704
0.371841
0.345602
0.360298
0.289365
0.3091
0.281819
0.356519
0.389227
0.33657
0.306704
0.2742
0.217707
0.285154
0.227236
0.260453
0.158473
0.197949
0.164642
0.183868
0.258994
0.286601
0.280248
0.246269
0.136012
0.105148
0.0802098
0.064695
0.0583322
0.0542181
0.0537674
0.053383
0.0537846
0.0522352
0.0478846
0.0430694
0.0384104
0.0343376
0.030759
0.0275931
0.0247813
0.022252
0.019953
0.0178424
0.0158883
0.0140665
0.0123589
0.0107516
0.00923356
0.00779578
0.00643085
0.00513264
0.0038952
0.00271332
0.00159263
0.00052916
0.000174948
0.000643559
0.00117985
0.00174079
0.00232576
0.00294419
0.00359643
0.00428256
0.00500286
0.00575797
0.00654954
0.00738071
0.00825579
0.00917928
0.0101545
0.0111823
0.012262
0.0133928
0.0145781
0.0158287
0.0171614
0.0185915
0.0201229
0.0217504
0.02348
0.025349
0.0274159
0.029723
0.032282
0.0351255
0.0386353
0.0430019
0.0479983
0.0537476
0.060586
0.0689792
0.0792878
0.0919606
0.107252
0.125502
0.148026
0.173419
0.218989
0.261003
0.360595
0.361639
0.319837
0.321997
0.289984
0.322806
0.303451
0.389391
0.418955
0.358065
0.32413
0.30084
0.252068
0.300951
0.253038
0.277706
0.193924
0.22558
0.199076
0.214296
0.277794
0.298317
0.302568
0.264604
0.158103
0.126896
0.0980226
0.0804194
0.0712683
0.0647797
0.0619938
0.0604197
0.0599121
0.0578146
0.053598
0.0487917
0.0440441
0.0397409
0.0358555
0.0323452
0.0291654
0.0262618
0.0235919
0.021121
0.018821
0.01667
0.0146501
0.012747
0.0109484
0.00924448
0.00762657
0.0060875
0.00462039
0.00321928
0.00188858
0.000624522
0.000190541
0.000711025
0.0013051
0.00192684
0.00257581
0.00326215
0.00398628
0.00474826
0.00554853
0.00638802
0.00726899
0.00819538
0.00917244
0.0102055
0.0112983
0.0124522
0.0136662
0.0149401
0.0162791
0.0176976
0.0192162
0.0208517
0.0226063
0.0244742
0.0264676
0.028636
0.0310468
0.0337407
0.0367242
0.0400393
0.044138
0.0492268
0.054997
0.0615664
0.0692565
0.0784746
0.0895917
0.103055
0.119051
0.137688
0.160652
0.185734
0.229261
0.266676
0.348084
0.346249
0.296649
0.29431
0.288117
0.329696
0.316191
0.407544
0.431243
0.370428
0.336595
0.319195
0.276799
0.311372
0.271341
0.292035
0.221773
0.247165
0.225241
0.236815
0.286841
0.300008
0.314385
0.27585
0.173848
0.143417
0.1118
0.0930818
0.0818664
0.0735324
0.0690268
0.0664958
0.0651994
0.062681
0.0585109
0.0537232
0.0489207
0.0444496
0.0403301
0.0365471
0.0330701
0.0298597
0.0268811
0.0241058
0.0215094
0.0190716
0.0167756
0.0146069
0.0125536
0.0106052
0.00875311
0.00698963
0.0053073
0.00369964
0.00217097
0.000719657
0.000204
0.000775529
0.00142604
0.00210727
0.00281901
0.00357204
0.00436678
0.0052033
0.0060821
0.00700437
0.00797287
0.00899236
0.010069
0.0112089
0.0124166
0.0136933
0.0150379
0.0164507
0.0179387
0.0195198
0.0212186
0.0230521
0.0250203
0.0271166
0.0293595
0.0318099
0.0345429
0.0375964
0.0409703
0.0447132
0.0493311
0.0550277
0.061439
0.0686998
0.0770991
0.0869646
0.0986582
0.112623
0.128972
0.147697
0.17052
0.194966
0.235523
0.268879
0.332535
0.329646
0.278394
0.278224
0.285763
0.332212
0.322428
0.413907
0.432189
0.377063
0.34627
0.331181
0.294063
0.317048
0.285661
0.303943
0.243469
0.263939
0.244906
0.253219
0.290283
0.295668
0.319929
0.281858
0.184554
0.155908
0.122273
0.103267
0.0905274
0.0808417
0.0751141
0.0718208
0.0698522
0.0669707
0.06277
0.0579819
0.0531408
0.0485507
0.0442565
0.0402606
0.0365448
0.0330814
0.0298446
0.0268105
0.0239584
0.0212698
0.0187291
0.0163228
0.0140392
0.0118684
0.00980164
0.00783157
0.00595026
0.00415042
0.002437
0.000812796
0.000214744
0.000836111
0.0015414
0.00228049
0.00305344
0.00387162
0.00473544
0.00564489
0.00660046
0.00760352
0.0086573
0.00976727
0.0109405
0.0121841
0.0135031
0.0148989
0.0163701
0.0179169
0.0195483
0.0212861
0.0231579
0.025181
0.0273521
0.0296642
0.0321415
0.0348545
0.0378844
0.0412667
0.0449977
0.0491336
0.0542155
0.060416
0.067336
0.0751441
0.0840894
0.0944182
0.10649
0.120698
0.137102
0.155666
0.17793
0.201511
0.238534
0.268787
0.316773
0.314211
0.26552
0.272309
0.283531
0.331877
0.323885
0.411006
0.423539
0.382339
0.354028
0.338466
0.30584
0.318634
0.297697
0.311948
0.261773
0.276809
0.259472
0.264884
0.291093
0.291967
0.317407
0.283406
0.191105
0.165263
0.130058
0.111433
0.0975385
0.0869596
0.0804027
0.076502
0.0739608
0.0707668
0.066494
0.0616875
0.0568098
0.0521271
0.0476968
0.0435326
0.0396246
0.035954
0.0325015
0.0292478
0.026175
0.0232673
0.0205105
0.0178922
0.0154015
0.0130291
0.0107666
0.00860686
0.00654228
0.00456521
0.00267964
0.000891142
0.000222166
0.000891789
0.00164992
0.00244492
0.00327723
0.00415874
0.0050898
0.00607029
0.00710061
0.00818217
0.00931855
0.0105159
0.0117822
0.0131258
0.0145522
0.016063
0.0176561
0.0193316
0.0211004
0.022988
0.025025
0.0272279
0.0295907
0.0321056
0.0348015
0.0377565
0.0410551
0.0447293
0.0487789
0.0532746
0.0587783
0.0654072
0.0727302
0.0809537
0.0902959
0.100922
0.113203
0.12745
0.143692
0.161886
0.18333
0.205921
0.239243
0.267186
0.30265
0.30123
0.260443
0.268257
0.282433
0.329359
0.321897
0.401833
0.411123
0.384199
0.359668
0.342372
0.313971
0.319894
0.305831
0.316166
0.277191
0.28605
0.269975
0.272827
0.290499
0.289475
0.309318
0.281452
0.194362
0.172034
0.135852
0.117939
0.10316
0.0920685
0.0849738
0.0805946
0.0775799
0.0741022
0.0697581
0.0649304
0.0600193
0.0552604
0.0507203
0.0464184
0.0423523
0.0385095
0.0348751
0.0314337
0.0281703
0.0250713
0.0221243
0.019318
0.0166426
0.0140892
0.0116499
0.00931783
0.00708577
0.00494695
0.002905
0.000967952
0.000225673
0.000941615
0.00175042
0.00259917
0.00348875
0.00443152
0.00542776
0.00647717
0.00757996
0.00873746
0.00995343
0.0112346
0.0125901
0.0140293
0.0155589
0.0171801
0.0188901
0.0206886
0.0225884
0.0246185
0.0268119
0.0291844
0.0317271
0.0344314
0.0373305
0.0405084
0.0440477
0.0479727
0.0522929
0.057104
0.0629854
0.0699914
0.0776481
0.086187
0.095804
0.106604
0.11895
0.133075
0.149002
0.166653
0.1871
0.208611
0.238342
0.264495
0.290617
0.290171
0.257291
0.267574
0.281238
0.324541
0.317517
0.388935
0.396348
0.383609
0.362931
0.343838
0.319408
0.320997
0.311061
0.319637
0.287355
0.292063
0.277209
0.27777
0.288912
0.28595
0.29991
0.277112
0.194835
0.177009
0.140459
0.122575
0.107569
0.096303
0.0888807
0.0841352
0.0807307
0.0770255
0.072616
0.067768
0.0628324
0.0580134
0.0533833
0.0489679
0.0447697
0.0407813
0.0369917
0.0333887
0.0299601
0.0266943
0.0235805
0.0206088
0.01777
0.015056
0.0124592
0.00997296
0.00758976
0.00530242
0.00312035
0.00106084
0.000224799
0.000984891
0.001842
0.00274215
0.00368671
0.0046885
0.0057477
0.00686377
0.00803657
0.0092672
0.0105594
0.0119206
0.0133609
0.0148913
0.0165193
0.0182461
0.0200677
0.0219834
0.0240074
0.0261719
0.0285123
0.0310438
0.0337545
0.0366346
0.0397218
0.0431066
0.0468647
0.0510042
0.055543
0.0606085
0.0668029
0.0741305
0.0820617
0.0908378
0.100625
0.111504
0.1238
0.13767
0.153162
0.170137
0.189454
0.209807
0.236221
0.260869
0.280317
0.280358
0.254144
0.266582
0.278387
0.318734
0.312118
0.374604
0.381135
0.380148
0.36332
0.343476
0.322714
0.321546
0.314258
0.321933
0.293893
0.295744
0.281832
0.280342
0.286755
0.282008
0.289622
0.267899
0.200397
0.176544
0.143663
0.126059
0.11105
0.0997858
0.0921797
0.0871664
0.0834505
0.0795646
0.0751003
0.0702471
0.0652949
0.0604301
0.0557284
0.0512196
0.0469107
0.0427985
0.0388757
0.0351331
0.031561
0.0281495
0.0248892
0.0217712
0.018787
0.0159288
0.0131897
0.0105635
0.00804269
0.00561883
0.00330541
0.00113101
0.00021914
0.00102109
0.00192403
0.00287309
0.0038702
0.00492862
0.00604843
0.00722878
0.00846905
0.00976985
0.0111348
0.0125718
0.0140923
0.0157089
0.0174304
0.0192577
0.0211857
0.0232127
0.0253539
0.0276443
0.0301217
0.0328011
0.0356672
0.0387077
0.0419666
0.0455436
0.049506
0.0538371
0.0585526
0.0638057
0.0702298
0.0778023
0.0859361
0.0948697
0.104734
0.115601
0.127751
0.141263
0.156216
0.172422
0.190544
0.209688
0.233158
0.256389
0.271127
0.271022
0.249645
0.263593
0.275114
0.310805
0.306479
0.360412
0.366918
0.373595
0.36069
0.341648
0.324343
0.321533
0.315735
0.322558
0.29809
0.297684
0.28441
0.281111
0.2841
0.277752
0.279674
0.258914
0.201412
0.176295
0.145637
0.128488
0.113725
0.102595
0.0949218
0.089728
0.085773
0.0817514
0.0772504
0.0724002
0.0674429
0.0625471
0.05779
0.0532053
0.0488039
0.0445868
0.0405498
0.0366866
0.0329895
0.0294501
0.0260604
0.0228119
0.0196971
0.0167087
0.0138405
0.0110872
0.00844248
0.0058979
0.00346383
0.00117048
0.000208266
0.00104966
0.00199589
0.00299129
0.00403844
0.00515104
0.00632906
0.00757124
0.00887631
0.0102442
0.0116783
0.0131868
0.0147826
0.0164803
0.01829
0.0202129
0.0222421
0.0243747
0.0266261
0.0290334
0.0316375
0.0344538
0.0374625
0.0406463
0.0440557
0.047805
0.0519585
0.0564732
0.0613458
0.0667378
0.0733143
0.0810465
0.0893036
0.0983048
0.10816
0.118926
0.130841
0.143922
0.158259
0.173647
0.190572
0.208494
0.229404
0.251166
0.26245
0.261591
0.243379
0.258337
0.270034
0.301217
0.302272
0.347159
0.354276
0.36447
0.355346
0.338577
0.324587
0.321049
0.315634
0.321611
0.300292
0.298097
0.285344
0.280497
0.280877
0.27295
0.270194
0.250816
0.199883
0.175685
0.146776
0.130113
0.115715
0.104805
0.0971564
0.0918583
0.0877322
0.0836163
0.0790994
0.0742639
0.0693127
0.0643989
0.0596007
0.0549551
0.0504772
0.0461715
0.042037
0.0380696
0.0342635
0.0306118
0.0271075
0.0237432
0.0205121
0.0174079
0.014425
0.0115589
0.00880403
0.00615338
0.00361415
0.00121127
0.000191793
0.00107018
0.00205712
0.00309629
0.00419095
0.00535523
0.00658898
0.00789045
0.00925757
0.0106894
0.0121888
0.0137644
0.0154306
0.0172041
0.0190968
0.02111
0.0232356
0.0254686
0.0278235
0.0303389
0.0330598
0.0360032
0.0391435
0.0424542
0.0459892
0.0498808
0.0542031
0.0588964
0.0639252
0.0694372
0.0761187
0.0839403
0.0922511
0.101238
0.111006
0.121595
0.133197
0.145798
0.159478
0.174026
0.189784
0.206484
0.225152
0.245308
0.253905
0.252398
0.235406
0.2513
0.263823
0.291785
0.297543
0.335223
0.343217
0.353606
0.347839
0.3344
0.323559
0.320037
0.314037
0.31928
0.300705
0.297165
0.28492
0.278789
0.27703
0.267553
0.261675
0.243046
0.197713
0.17444
0.147241
0.131106
0.117134
0.106496
0.0989406
0.093601
0.0893661
0.0851927
0.080681
0.0758725
0.070938
0.0660182
0.0611916
0.0564986
0.0519583
0.0475783
0.0433604
0.0393026
0.035401
0.03165
0.0280437
0.024576
0.0212409
0.0180331
0.0149476
0.0119802
0.00912607
0.00637928
0.00374677
0.00125185
0.000169432
0.00108246
0.00210768
0.00318815
0.00432779
0.00554119
0.00682803
0.00818608
0.0096124
0.0111051
0.0126662
0.0143046
0.0160362
0.0178799
0.01985
0.0219483
0.0241654
0.0264938
0.0289455
0.0315603
0.0343882
0.0374505
0.0407153
0.0441422
0.0477801
0.0517762
0.0562285
0.0610801
0.0662632
0.0718944
0.078662
0.0865308
0.0948468
0.103765
0.113384
0.12374
0.134976
0.147062
0.16006
0.173759
0.18838
0.203855
0.220508
0.238862
0.245255
0.242415
0.227526
0.24333
0.257157
0.283173
0.292029
0.324388
0.333412
0.341904
0.338856
0.329227
0.321281
0.318606
0.310764
0.315749
0.299611
0.295138
0.283378
0.27621
0.272538
0.26159
0.254124
0.236106
0.195348
0.17271
0.14716
0.131563
0.118069
0.107744
0.100334
0.0950046
0.0907137
0.0865166
0.0820285
0.0772584
0.072351
0.0674363
0.0625932
0.0578651
0.0532744
0.048832
0.0445422
0.0404052
0.0364187
0.0325787
0.0288806
0.0253194
0.0218903
0.0185887
0.0154106
0.0123524
0.00940969
0.00657721
0.00386193
0.00128719
0.000140972
0.00108652
0.00214785
0.00326731
0.00444945
0.00570926
0.00704638
0.00845813
0.00994074
0.0114911
0.0131105
0.0148076
0.0165997
0.0185082
0.0205497
0.0227276
0.0250317
0.0274506
0.0299922
0.0326961
0.0356196
0.0387919
0.0421773
0.0457185
0.0494469
0.0535129
0.0580452
0.0630121
0.0683266
0.0740705
0.080913
0.0888073
0.0970989
0.10592
0.115353
0.125437
0.136274
0.147818
0.160115
0.172957
0.186467
0.200707
0.215515
0.231822
0.236737
0.232787
0.219345
0.235343
0.250441
0.274983
0.28554
0.315309
0.324586
0.330155
0.329108
0.323179
0.317622
0.315346
0.30718
0.31146
0.297336
0.292261
0.280933
0.272961
0.267443
0.255184
0.247472
0.230383
0.192909
0.17068
0.146675
0.131593
0.118605
0.108622
0.101396
0.0961181
0.0918143
0.0876235
0.083175
0.0784541
0.0735836
0.0686843
0.0638351
0.0590821
0.0544511
0.0499559
0.0456035
0.041396
0.0373332
0.0334126
0.0296312
0.0259852
0.022471
0.0190849
0.0158236
0.0126842
0.00966273
0.00675419
0.00396488
0.00131787
0.000106244
0.00108254
0.00217813
0.00333444
0.00455655
0.00585994
0.00724429
0.00870668
0.0102426
0.0118477
0.0135221
0.0152743
0.0171224
0.0190901
0.0211972
0.0234494
0.025836
0.0283412
0.0309662
0.0337483
0.0367525
0.0400209
0.0435215
0.0471815
0.0510033
0.0551214
0.0596902
0.0647169
0.0701171
0.0759452
0.0828378
0.090736
0.0989804
0.107684
0.116908
0.12669
0.137106
0.148093
0.159678
0.171662
0.184095
0.197108
0.210233
0.22451
0.228262
0.22388
0.212048
0.228318
0.243987
0.267253
0.279008
0.307165
0.316192
0.318913
0.319238
0.31644
0.31276
0.310841
0.302841
0.306651
0.294166
0.28874
0.27778
0.269227
0.261889
0.248568
0.24159
0.225971
0.190516
0.168524
0.145915
0.131315
0.118837
0.109207
0.102187
0.0969913
0.0927085
0.0885486
0.0841542
0.0794924
0.0746674
0.0697922
0.0649455
0.060176
0.0555127
0.0509724
0.0465647
0.042294
0.038162
0.0341681
0.0303108
0.0265876
0.022996
0.0195333
0.0161968
0.012984
0.00989142
0.00691431
0.00405804
0.00134528
6.51234e-05
0.0010708
0.00219914
0.00339032
0.00464991
0.00599387
0.00742215
0.00893181
0.0105178
0.0121748
0.0139015
0.0157057
0.0176057
0.0196273
0.021794
0.0241149
0.0265805
0.0291697
0.0318739
0.0347243
0.037792
0.0411358
0.0447377
0.0485188
0.0524472
0.0566228
0.0612076
0.0662477
0.0716809
0.0775458
0.0844462
0.0923127
0.100482
0.10904
0.118037
0.127492
0.137475
0.1479
0.158779
0.169922
0.18133
0.193152
0.204747
0.217121
0.220002
0.216022
0.206395
0.222618
0.238031
0.260022
0.272162
0.300186
0.307793
0.308572
0.309731
0.309227
0.306944
0.305154
0.298162
0.301442
0.290342
0.284756
0.274112
0.26519
0.256109
0.242009
0.236321
0.222731
0.188289
0.166408
0.145001
0.130846
0.118864
0.10958
0.102772
0.0976769
0.0934397
0.0893294
0.0850004
0.0804052
0.0756324
0.0707877
0.0659501
0.0611707
0.0564816
0.0519027
0.047446
0.0431184
0.0389234
0.0348623
0.0309352
0.027141
0.0234782
0.019945
0.0165393
0.0132591
0.0101013
0.00706134
0.00414369
0.00137087
1.75684e-05
0.00105174
0.00221175
0.00343615
0.00473078
0.00611215
0.00758067
0.00913379
0.0107663
0.0124723
0.014249
0.0161026
0.0180512
0.0201217
0.0223413
0.0247248
0.0272654
0.0299377
0.0327209
0.0356345
0.03875
0.0421434
0.0458211
0.0497125
0.0537574
0.0580097
0.0626165
0.0676494
0.0730772
0.0789315
0.0857938
0.0935847
0.101646
0.110025
0.118772
0.127889
0.137431
0.147304
0.157498
0.167836
0.178287
0.188994
0.199236
0.209947
0.212431
0.20937
0.20225
0.218116
0.232696
0.25344
0.265491
0.292525
0.300225
0.299317
0.30086
0.301757
0.3005
0.29911
0.293571
0.295257
0.286036
0.280481
0.27012
0.261015
0.250383
0.235795
0.231492
0.22041
0.186312
0.164473
0.144043
0.130294
0.118777
0.109818
0.103218
0.0982305
0.0940534
0.0900044
0.0857472
0.0812225
0.0765053
0.0716956
0.0668719
0.062088
0.0573789
0.0527671
0.0482672
0.0438882
0.0396356
0.0355126
0.0315206
0.0276601
0.0239307
0.0203315
0.0168609
0.0135176
0.0102986
0.00719974
0.00422451
0.00139563
-3.63503e-05
0.00102609
0.00221724
0.00347357
0.00480094
0.00621634
0.00772094
0.00931311
0.0109883
0.0127402
0.0145649
0.0164666
0.0184613
0.0205761
0.0228416
0.0252794
0.0278886
0.0306424
0.0335076
0.0364863
0.0396413
0.04306
0.0467793
0.0507522
0.0549055
0.05925
0.0638989
0.0689298
0.0743396
0.0801553
0.0869482
0.0946288
0.10255
0.110724
0.119202
0.127975
0.13708
0.146418
0.155962
0.165545
0.175124
0.184821
0.193917
0.203255
0.205731
0.203929
0.199285
0.214528
0.22796
0.247486
0.259338
0.285376
0.292352
0.290916
0.29269
0.294206
0.293616
0.292663
0.288706
0.289028
0.281567
0.276094
0.26599
0.256845
0.244986
0.230198
0.226983
0.218697
0.184614
0.162824
0.143141
0.129761
0.118664
0.110002
0.103592
0.0987087
0.094596
0.0906113
0.0864262
0.0819716
0.0773107
0.072538
0.0677319
0.0629481
0.0582242
0.053585
0.0490472
0.0446219
0.0403165
0.0361358
0.0320829
0.0281598
0.0243671
0.0207048
0.0171721
0.0137681
0.0104902
0.00733442
0.00430331
0.00142023
-9.64705e-05
0.000994721
0.00221709
0.00350446
0.00486233
0.00630818
0.00784423
0.00947047
0.0111838
0.0129785
0.0148498
0.0167992
0.0188394
0.0209955
0.0233
0.0257819
0.0284495
0.0312794
0.0342291
0.0372806
0.0404778
0.0439083
0.0476365
0.0516497
0.0558814
0.0603135
0.0650182
0.0700633
0.0754621
0.0812352
0.0879498
0.0955053
0.103265
0.11122
0.11942
0.127853
0.136532
0.145359
0.154297
0.163187
0.171987
0.180796
0.188962
0.197213
0.199927
0.199483
0.19707
0.211478
0.223663
0.241994
0.253574
0.278559
0.2844
0.283299
0.28517
0.286721
0.286486
0.285832
0.283445
0.283321
0.277182
0.271749
0.261876
0.252791
0.240139
0.225435
0.222774
0.21724
0.183181
0.161527
0.142383
0.129339
0.118609
0.110205
0.10396
0.0991663
0.0951119
0.0911862
0.0870676
0.0826783
0.0780715
0.073336
0.0685499
0.06377
0.0590358
0.0543741
0.0498033
0.0453363
0.0409822
0.0367477
0.0326374
0.0286545
0.0248009
0.0210774
0.017484
0.0140201
0.0106836
0.0074708
0.0043833
0.00144556
-0.000162621
0.000958431
0.00221256
0.00353036
0.00491664
0.00638928
0.00795186
0.00960666
0.011353
0.013187
0.0151034
0.0171013
0.0191885
0.0213855
0.0237243
0.0262399
0.0289521
0.0318463
0.0348778
0.0380107
0.0412626
0.0447071
0.0484256
0.0524397
0.0567059
0.0611977
0.0659511
0.0710178
0.0764145
0.0821541
0.0887958
0.0962278
0.103819
0.111555
0.119481
0.127584
0.135859
0.144207
0.152588
0.160856
0.168976
0.177026
0.18446
0.191878
0.194933
0.195727
0.195134
0.208569
0.219581
0.236787
0.248038
0.271837
0.27674
0.276395
0.278229
0.27946
0.279378
0.278868
0.278052
0.278089
0.272986
0.267531
0.257883
0.248924
0.23597
0.221635
0.218913
0.215708
0.181982
0.16061
0.141844
0.129106
0.118684
0.110494
0.104379
0.0996536
0.0956426
0.0917635
0.0877007
0.0833685
0.0788108
0.0741109
0.0693453
0.0645715
0.0598303
0.0551499
0.0505501
0.0460455
0.0416467
0.037362
0.0331974
0.0291573
0.0252447
0.0214612
0.0178073
0.0142829
0.0108866
0.00761462
0.00446798
0.00147302
-0.000234728
0.000917637
0.00220429
0.00355218
0.00496503
0.00646102
0.00804526
0.00972288
0.0114966
0.0133654
0.015325
0.0173721
0.0195092
0.0217496
0.0241215
0.0266628
0.0294041
0.0323446
0.0354462
0.0386628
0.0419843
0.045459
0.0491691
0.0531611
0.0574207
0.0619314
0.0667059
0.0717825
0.0771731
0.0828838
0.0894579
0.0967723
0.104196
0.111724
0.11939
0.127182
0.135083
0.142992
0.150875
0.158597
0.166136
0.173553
0.180419
0.187201
0.190581
0.192355
0.193101
0.205497
0.215513
0.231729
0.24271
0.26529
0.269516
0.270052
0.271802
0.272585
0.272562
0.272065
0.272749
0.273221
0.268999
0.263458
0.254063
0.245282
0.232508
0.218821
0.215471
0.213864
0.180982
0.160067
0.141579
0.129119
0.118944
0.110923
0.104901
0.100215
0.0962266
0.0923772
0.0883556
0.0840696
0.0795533
0.0748845
0.0701373
0.0653694
0.0606222
0.055925
0.0512992
0.0467603
0.0423206
0.0379893
0.0337738
0.0296792
0.0257093
0.0218663
0.0181513
0.0145648
0.0111057
0.00777079
0.00456043
0.00150395
-0.000312852
0.000872242
0.00219217
0.00356997
0.00500805
0.00652463
0.00812631
0.0098213
0.0116165
0.0135146
0.0155139
0.0176099
0.0197996
0.0220881
0.0244958
0.0270593
0.0298166
0.0327821
0.0359324
0.0392225
0.0426209
0.046146
0.0498655
0.0538347
0.0580648
0.0625583
0.0673188
0.0723787
0.0777431
0.0834158
0.0899174
0.0971152
0.104378
0.111711
0.119138
0.126642
0.134201
0.141719
0.149165
0.156419
0.163472
0.170373
0.176797
0.183078
0.186687
0.189135
0.190757
0.202099