/*--------------------------------*- C++ -*----------------------------------*\
  =========                 |
  \\      /  F ield         | OpenFOAM: The Open Source CFD Toolbox
   \\    /   O peration     | Website:  https://openfoam.org
    \\  /    A nd           | Version:  9
     \\/     M anipulation  |
\*---------------------------------------------------------------------------*/
FoamFile
{
    format      ascii;
    class       surfaceScalarField;
    location    "0.12";
    object      phi;
}
// * * * * * * * * * * * * * * * * * * * * * * * * * * * * * * * * * * * * * //

dimensions      [0 3 -1 0 0 0 0];

internalField   nonuniform List<scalar> 
39700
(
1.91614e-06
2.85969e-06
1.91614e-06
3.0002e-06
1.91615e-06
3.14734e-06
1.91615e-06
3.30156e-06
1.91615e-06
3.46314e-06
1.91616e-06
3.63231e-06
1.91616e-06
3.80935e-06
1.91617e-06
3.99452e-06
1.91618e-06
4.18807e-06
1.91619e-06
4.39028e-06
1.91621e-06
4.60137e-06
1.91623e-06
4.82159e-06
1.91625e-06
5.05114e-06
1.91629e-06
5.29018e-06
1.91633e-06
5.53885e-06
1.91639e-06
5.79717e-06
1.91646e-06
6.06512e-06
1.91655e-06
6.34256e-06
1.91666e-06
6.62931e-06
1.91678e-06
6.92524e-06
1.9169e-06
7.23045e-06
1.91701e-06
7.54561e-06
1.91709e-06
7.87227e-06
1.91714e-06
8.21295e-06
1.91717e-06
8.57065e-06
1.91725e-06
8.9475e-06
1.91743e-06
9.34296e-06
1.9178e-06
9.75244e-06
1.91843e-06
1.0167e-05
1.91933e-06
1.05742e-05
1.92056e-06
1.27739e-05
1.92166e-06
1.25471e-05
1.92209e-06
1.2298e-05
1.9218e-06
1.20675e-05
1.92166e-06
1.1888e-05
1.92297e-06
1.17496e-05
1.92687e-06
1.16006e-05
1.93407e-06
1.13643e-05
1.93932e-06
1.09271e-05
1.91554e-06
1.02505e-05
1.87716e-06
1.01011e-05
1.90919e-06
1.17674e-05
1.98108e-06
1.44184e-05
2.10252e-06
1.6736e-05
2.61871e-06
1.82408e-05
1.85716e-06
2.39408e-06
1.34722e-06
6.58571e-07
1.79851e-06
1.90353e-05
1.89985e-06
1.91781e-05
1.96833e-06
1.91909e-05
2.03844e-06
2.01757e-05
2.30669e-06
2.10349e-05
1.88361e-06
3.09202e-06
1.52268e-06
3.39508e-06
1.79932e-06
2.10664e-05
1.87123e-06
2.04081e-05
1.91296e-06
2.00241e-05
2.13743e-06
1.76151e-05
1.67551e-06
4.02786e-06
1.87623e-06
1.76076e-05
1.90327e-06
1.89583e-05
1.94319e-06
1.8406e-05
1.98751e-06
1.89118e-05
2.05551e-06
2.011e-05
2.28113e-06
2.13737e-05
1.77764e-06
3.27624e-06
1.51955e-06
3.45435e-06
1.77247e-06
2.11677e-05
1.8312e-06
1.97976e-05
1.8667e-06
1.8306e-05
1.88635e-06
1.41667e-05
1.90346e-06
1.29691e-05
1.92887e-06
1.1963e-05
1.994e-06
1.10161e-05
2.17728e-06
9.50845e-06
2.25237e-06
5.42746e-06
1.42559e-06
2.04706e-06
1.67098e-06
5.91568e-06
1.81773e-06
7.25891e-06
1.87394e-06
7.15421e-06
1.8962e-06
6.80578e-06
1.90558e-06
6.46074e-06
1.90983e-06
6.14907e-06
1.91194e-06
5.86688e-06
1.91311e-06
5.60663e-06
1.91385e-06
5.3626e-06
1.91435e-06
5.13119e-06
1.91472e-06
4.91027e-06
1.91501e-06
4.69857e-06
1.91525e-06
4.49529e-06
1.91544e-06
4.29993e-06
1.9156e-06
4.11212e-06
1.91574e-06
3.93158e-06
1.91585e-06
3.75808e-06
1.91595e-06
3.59141e-06
1.91602e-06
3.43137e-06
1.91608e-06
3.27785e-06
1.91613e-06
3.13079e-06
1.91617e-06
2.99015e-06
2.85578e-06
1.91565e-06
2.85968e-06
1.91565e-06
3.0002e-06
1.91566e-06
3.14733e-06
1.91567e-06
3.30155e-06
1.91568e-06
3.46312e-06
1.9157e-06
3.6323e-06
1.91572e-06
3.80933e-06
1.91575e-06
3.99449e-06
1.91578e-06
4.18804e-06
1.91582e-06
4.39024e-06
1.91587e-06
4.60132e-06
1.91593e-06
4.82152e-06
1.91602e-06
5.05105e-06
1.91612e-06
5.29008e-06
1.91626e-06
5.53871e-06
1.91642e-06
5.79701e-06
1.91663e-06
6.06491e-06
1.91688e-06
6.34231e-06
1.91717e-06
6.62902e-06
1.9175e-06
6.92491e-06
1.91783e-06
7.23011e-06
1.91815e-06
7.5453e-06
1.91842e-06
7.872e-06
1.91863e-06
8.21274e-06
1.91884e-06
8.57044e-06
1.91917e-06
8.94717e-06
1.91979e-06
9.34234e-06
1.92088e-06
9.75136e-06
1.92257e-06
1.01653e-05
1.92488e-06
1.05719e-05
1.92799e-06
1.27708e-05
1.93067e-06
1.25444e-05
1.93195e-06
1.22967e-05
1.93188e-06
1.20676e-05
1.9324e-06
1.18875e-05
1.9362e-06
1.17458e-05
1.94522e-06
1.15916e-05
1.95848e-06
1.1351e-05
1.96231e-06
1.09233e-05
1.91926e-06
1.02935e-05
1.86114e-06
1.01592e-05
1.93161e-06
1.1697e-05
2.10399e-06
1.4246e-05
2.38819e-06
1.64518e-05
2.98396e-06
1.7645e-05
2.00628e-06
3.37175e-06
9.5457e-07
1.71028e-06
1.63884e-06
1.83511e-05
1.88002e-06
1.89369e-05
2.05885e-06
1.90121e-05
2.25745e-06
1.99771e-05
2.58881e-06
2.07036e-05
1.74547e-06
3.93536e-06
1.13595e-06
4.0046e-06
1.58105e-06
2.06213e-05
1.78361e-06
2.02056e-05
1.94132e-06
1.98664e-05
2.2529e-06
1.73035e-05
1.50527e-06
4.77548e-06
1.77725e-06
1.73356e-05
1.88479e-06
1.88507e-05
1.99945e-06
1.82913e-05
2.11582e-06
1.87954e-05
2.31335e-06
1.99125e-05
2.66225e-06
2.10248e-05
1.76622e-06
4.17227e-06
1.12642e-06
4.09415e-06
1.50553e-06
2.07886e-05
1.6756e-06
1.96275e-05
1.77217e-06
1.82094e-05
1.83286e-06
1.4106e-05
1.88732e-06
1.29146e-05
1.96175e-06
1.18886e-05
2.10399e-06
1.08738e-05
2.37469e-06
9.23775e-06
2.28333e-06
5.51882e-06
1.32682e-06
3.00358e-06
1.44293e-06
5.79957e-06
1.6571e-06
7.04473e-06
1.7762e-06
7.03511e-06
1.83707e-06
6.74491e-06
1.86883e-06
6.42898e-06
1.88607e-06
6.13184e-06
1.89589e-06
5.85705e-06
1.90183e-06
5.60069e-06
1.90564e-06
5.35879e-06
1.90822e-06
5.12861e-06
1.91007e-06
4.90843e-06
1.91143e-06
4.6972e-06
1.91247e-06
4.49424e-06
1.91329e-06
4.29911e-06
1.91393e-06
4.11147e-06
1.91444e-06
3.93107e-06
1.91485e-06
3.75767e-06
1.91518e-06
3.59108e-06
1.91542e-06
3.43112e-06
1.9156e-06
3.27768e-06
1.91571e-06
3.13069e-06
1.91578e-06
2.99008e-06
2.85569e-06
1.9148e-06
2.85968e-06
1.9148e-06
3.0002e-06
1.91481e-06
3.14733e-06
1.91482e-06
3.30154e-06
1.91484e-06
3.4631e-06
1.91487e-06
3.63227e-06
1.9149e-06
3.8093e-06
1.91494e-06
3.99445e-06
1.915e-06
4.18799e-06
1.91507e-06
4.39017e-06
1.91516e-06
4.60123e-06
1.91527e-06
4.82141e-06
1.9154e-06
5.05091e-06
1.91558e-06
5.2899e-06
1.9158e-06
5.5385e-06
1.91606e-06
5.79674e-06
1.91639e-06
6.06458e-06
1.91678e-06
6.34192e-06
1.91724e-06
6.62856e-06
1.91774e-06
6.92441e-06
1.91827e-06
7.22959e-06
1.91878e-06
7.54479e-06
1.91924e-06
7.87155e-06
1.91965e-06
8.21233e-06
1.92008e-06
8.57001e-06
1.92069e-06
8.94655e-06
1.92173e-06
9.3413e-06
1.92342e-06
9.74966e-06
1.92595e-06
1.01628e-05
1.9293e-06
1.05685e-05
1.93375e-06
1.27663e-05
1.93755e-06
1.25406e-05
1.93954e-06
1.22947e-05
1.93993e-06
1.20672e-05
1.94111e-06
1.18863e-05
1.94628e-06
1.17407e-05
1.95721e-06
1.15806e-05
1.97165e-06
1.13366e-05
1.97344e-06
1.09215e-05
1.92523e-06
1.03418e-05
1.86546e-06
1.0219e-05
1.95625e-06
1.16062e-05
2.18389e-06
1.40184e-05
2.50223e-06
1.61335e-05
3.08976e-06
1.70575e-05
2.00882e-06
4.45269e-06
9.62938e-07
2.75617e-06
1.65177e-06
1.76622e-05
1.91768e-06
1.8671e-05
2.14972e-06
1.87801e-05
2.40866e-06
1.97182e-05
2.74158e-06
2.03707e-05
1.70928e-06
4.96765e-06
9.86405e-07
4.72748e-06
1.45923e-06
2.01485e-05
1.71303e-06
1.99518e-05
1.9603e-06
1.96191e-05
2.29854e-06
1.69652e-05
1.42048e-06
5.65354e-06
1.69225e-06
1.70639e-05
1.8761e-06
1.86669e-05
2.04586e-06
1.81215e-05
2.21945e-06
1.86218e-05
2.47486e-06
1.96571e-05
2.86643e-06
2.06332e-05
1.85523e-06
5.18347e-06
9.47099e-07
5.00228e-06
1.32895e-06
2.04067e-05
1.54933e-06
1.94072e-05
1.69456e-06
1.80642e-05
1.78676e-06
1.40138e-05
1.86721e-06
1.28342e-05
1.96317e-06
1.17926e-05
2.12125e-06
1.07158e-05
2.38037e-06
8.97863e-06
2.21609e-06
5.68311e-06
1.36824e-06
3.85142e-06
1.40886e-06
5.75896e-06
1.60482e-06
6.84877e-06
1.72673e-06
6.91319e-06
1.79647e-06
6.67518e-06
1.83796e-06
6.38749e-06
1.86325e-06
6.10655e-06
1.8791e-06
5.84121e-06
1.88939e-06
5.5904e-06
1.89634e-06
5.35184e-06
1.9012e-06
5.12375e-06
1.90471e-06
4.90491e-06
1.90733e-06
4.69459e-06
1.90931e-06
4.49226e-06
1.91085e-06
4.29758e-06
1.91205e-06
4.11027e-06
1.91299e-06
3.93013e-06
1.91373e-06
3.75694e-06
1.9143e-06
3.59051e-06
1.91473e-06
3.4307e-06
1.91501e-06
3.27739e-06
1.91517e-06
3.13053e-06
1.91524e-06
2.99001e-06
2.85565e-06
1.91362e-06
2.85968e-06
1.91362e-06
3.0002e-06
1.91363e-06
3.14732e-06
1.91365e-06
3.30152e-06
1.91368e-06
3.46307e-06
1.91372e-06
3.63223e-06
1.91377e-06
3.80925e-06
1.91383e-06
3.99439e-06
1.9139e-06
4.18791e-06
1.914e-06
4.39007e-06
1.91412e-06
4.60111e-06
1.91427e-06
4.82126e-06
1.91446e-06
5.05073e-06
1.91469e-06
5.28967e-06
1.91498e-06
5.53821e-06
1.91533e-06
5.79638e-06
1.91576e-06
6.06416e-06
1.91627e-06
6.34141e-06
1.91685e-06
6.62798e-06
1.9175e-06
6.92376e-06
1.91818e-06
7.22891e-06
1.91885e-06
7.54411e-06
1.91947e-06
7.87092e-06
1.92006e-06
8.21174e-06
1.9207e-06
8.56937e-06
1.92159e-06
8.94566e-06
1.92299e-06
9.3399e-06
1.92517e-06
9.74748e-06
1.92832e-06
1.01596e-05
1.93241e-06
1.05644e-05
1.93773e-06
1.2761e-05
1.9422e-06
1.25362e-05
1.94456e-06
1.22924e-05
1.94508e-06
1.20666e-05
1.94641e-06
1.1885e-05
1.95182e-06
1.17353e-05
1.96277e-06
1.15697e-05
1.9761e-06
1.13233e-05
1.9745e-06
1.09231e-05
1.92292e-06
1.03933e-05
1.86358e-06
1.02783e-05
1.95639e-06
1.15134e-05
2.20433e-06
1.37705e-05
2.5366e-06
1.58012e-05
3.10476e-06
1.64893e-05
2.08967e-06
5.46778e-06
1.1481e-06
3.69774e-06
1.74575e-06
1.70646e-05
1.99363e-06
1.84232e-05
2.23595e-06
1.85377e-05
2.52119e-06
1.94329e-05
2.83944e-06
2.00524e-05
1.78556e-06
6.02153e-06
9.83899e-07
5.52914e-06
1.41448e-06
1.97179e-05
1.67219e-06
1.96941e-05
1.96416e-06
1.93272e-05
2.29155e-06
1.66378e-05
1.39764e-06
6.54745e-06
1.65328e-06
1.68082e-05
1.88634e-06
1.84338e-05
2.07745e-06
1.79304e-05
2.28275e-06
1.84165e-05
2.55531e-06
1.93845e-05
2.92996e-06
2.02586e-05
1.93176e-06
6.18167e-06
9.03011e-07
6.03102e-06
1.24136e-06
2.00684e-05
1.4743e-06
1.91742e-05
1.64272e-06
1.78957e-05
1.7491e-06
1.39074e-05
1.84048e-06
1.27428e-05
1.94378e-06
1.16893e-05
2.10328e-06
1.05563e-05
2.31829e-06
8.76363e-06
2.1203e-06
5.88109e-06
1.46911e-06
4.50261e-06
1.45262e-06
5.77546e-06
1.60894e-06
6.69245e-06
1.71777e-06
6.80436e-06
1.7832e-06
6.60974e-06
1.82406e-06
6.34663e-06
1.85053e-06
6.08008e-06
1.86826e-06
5.82347e-06
1.88052e-06
5.57814e-06
1.88923e-06
5.34313e-06
1.89559e-06
5.11739e-06
1.90033e-06
4.90017e-06
1.90393e-06
4.69098e-06
1.90672e-06
4.48947e-06
1.90889e-06
4.2954e-06
1.9106e-06
4.10857e-06
1.91194e-06
3.92879e-06
1.91299e-06
3.75588e-06
1.9138e-06
3.5897e-06
1.91441e-06
3.43009e-06
1.91483e-06
3.27697e-06
1.91508e-06
3.13028e-06
1.91521e-06
2.98988e-06
2.85561e-06
1.91208e-06
2.85968e-06
1.91209e-06
3.0002e-06
1.91211e-06
3.1473e-06
1.91214e-06
3.30149e-06
1.91218e-06
3.46303e-06
1.91223e-06
3.63218e-06
1.91229e-06
3.80918e-06
1.91237e-06
3.99431e-06
1.91246e-06
4.18781e-06
1.91258e-06
4.38995e-06
1.91273e-06
4.60096e-06
1.91292e-06
4.82108e-06
1.91315e-06
5.0505e-06
1.91343e-06
5.28939e-06
1.91378e-06
5.53786e-06
1.9142e-06
5.79596e-06
1.9147e-06
6.06365e-06
1.91529e-06
6.34082e-06
1.91597e-06
6.6273e-06
1.91672e-06
6.92301e-06
1.91751e-06
7.22812e-06
1.9183e-06
7.54333e-06
1.91905e-06
7.87017e-06
1.91979e-06
8.21101e-06
1.92061e-06
8.56854e-06
1.92173e-06
8.94454e-06
1.92342e-06
9.33821e-06
1.92597e-06
9.74494e-06
1.92954e-06
1.01561e-05
1.93406e-06
1.05599e-05
1.93981e-06
1.27553e-05
1.94448e-06
1.25315e-05
1.94678e-06
1.22901e-05
1.94707e-06
1.20664e-05
1.94799e-06
1.18841e-05
1.95266e-06
1.17306e-05
1.96204e-06
1.15603e-05
1.972e-06
1.13133e-05
1.96526e-06
1.09298e-05
1.91224e-06
1.04464e-05
1.85382e-06
1.03368e-05
1.93678e-06
1.14304e-05
2.18258e-06
1.35247e-05
2.51184e-06
1.54719e-05
3.06451e-06
1.59366e-05
2.22532e-06
6.30697e-06
1.41172e-06
4.51133e-06
1.8692e-06
1.66071e-05
2.08759e-06
1.82048e-05
2.30927e-06
1.83161e-05
2.58974e-06
1.91525e-05
2.88495e-06
1.97572e-05
1.91216e-06
6.99431e-06
1.06435e-06
6.37695e-06
1.41951e-06
1.93627e-05
1.65517e-06
1.94584e-05
1.95607e-06
1.90263e-05
2.2564e-06
1.63375e-05
1.42066e-06
7.38318e-06
1.65418e-06
1.65747e-05
1.90445e-06
1.81836e-05
2.09529e-06
1.77396e-05
2.31226e-06
1.81996e-05
2.57206e-06
1.91247e-05
2.90489e-06
1.99257e-05
1.96996e-06
7.11661e-06
9.41043e-07
7.05993e-06
1.22308e-06
1.97863e-05
1.44482e-06
1.89525e-05
1.61554e-06
1.7725e-05
1.72381e-06
1.37991e-05
1.81837e-06
1.26482e-05
1.92452e-06
1.15832e-05
2.07822e-06
1.04026e-05
2.24286e-06
8.59898e-06
2.04456e-06
6.07939e-06
1.5757e-06
4.97148e-06
1.5201e-06
5.83106e-06
1.63168e-06
6.58086e-06
1.72373e-06
6.71231e-06
1.78266e-06
6.55081e-06
1.82056e-06
6.30874e-06
1.84587e-06
6.05476e-06
1.86346e-06
5.80588e-06
1.8761e-06
5.5655e-06
1.88543e-06
5.3338e-06
1.89247e-06
5.11035e-06
1.89788e-06
4.89477e-06
1.90209e-06
4.68677e-06
1.9054e-06
4.48616e-06
1.90802e-06
4.29278e-06
1.91011e-06
4.10648e-06
1.91176e-06
3.92713e-06
1.91307e-06
3.75458e-06
1.91408e-06
3.58868e-06
1.91485e-06
3.42933e-06
1.9154e-06
3.27642e-06
1.91576e-06
3.12992e-06
1.91595e-06
2.98969e-06
2.85553e-06
1.91015e-06
2.85968e-06
1.91016e-06
3.00018e-06
1.91018e-06
3.14728e-06
1.91022e-06
3.30146e-06
1.91027e-06
3.46299e-06
1.91033e-06
3.63212e-06
1.9104e-06
3.80911e-06
1.9105e-06
3.99422e-06
1.91061e-06
4.1877e-06
1.91075e-06
4.38981e-06
1.91092e-06
4.60079e-06
1.91114e-06
4.82086e-06
1.9114e-06
5.05023e-06
1.91172e-06
5.28907e-06
1.91211e-06
5.53747e-06
1.91258e-06
5.79549e-06
1.91314e-06
6.06309e-06
1.9138e-06
6.34016e-06
1.91454e-06
6.62655e-06
1.91537e-06
6.92219e-06
1.91623e-06
7.22725e-06
1.9171e-06
7.54246e-06
1.91794e-06
7.86932e-06
1.91878e-06
8.21016e-06
1.91974e-06
8.56759e-06
1.92102e-06
8.94326e-06
1.92291e-06
9.33632e-06
1.92567e-06
9.74218e-06
1.92944e-06
1.01523e-05
1.93412e-06
1.05552e-05
1.93991e-06
1.27495e-05
1.94438e-06
1.2527e-05
1.94625e-06
1.22882e-05
1.94591e-06
1.20667e-05
1.94584e-06
1.18841e-05
1.94882e-06
1.17276e-05
1.95523e-06
1.15539e-05
1.9603e-06
1.13082e-05
1.94807e-06
1.09421e-05
1.89529e-06
1.04991e-05
1.83784e-06
1.03942e-05
1.90514e-06
1.13631e-05
2.13117e-06
1.32986e-05
2.44273e-06
1.51604e-05
3.00055e-06
1.53788e-05
2.38599e-06
6.92153e-06
1.68017e-06
5.21715e-06
2.03889e-06
1.62484e-05
2.18106e-06
1.80626e-05
2.36122e-06
1.81359e-05
2.61299e-06
1.89007e-05
2.88332e-06
1.94869e-05
2.01535e-06
7.86228e-06
1.1752e-06
7.2171e-06
1.44509e-06
1.90928e-05
1.64982e-06
1.92537e-05
1.93608e-06
1.874e-05
2.21171e-06
1.60619e-05
1.46936e-06
8.12553e-06
1.68094e-06
1.63632e-05
1.92966e-06
1.79348e-05
2.10458e-06
1.75647e-05
2.31726e-06
1.79869e-05
2.54873e-06
1.88933e-05
2.83896e-06
1.96355e-05
1.9878e-06
7.96777e-06
1.01955e-06
8.02819e-06
1.24842e-06
1.95575e-05
1.4484e-06
1.87525e-05
1.60781e-06
1.75656e-05
1.71179e-06
1.36952e-05
1.80543e-06
1.25546e-05
1.91022e-06
1.14784e-05
2.05296e-06
1.02598e-05
2.17624e-06
8.4757e-06
2.00025e-06
6.25538e-06
1.65818e-06
5.31355e-06
1.58783e-06
5.9014e-06
1.66176e-06
6.50694e-06
1.73615e-06
6.63792e-06
1.78754e-06
6.49942e-06
1.82192e-06
6.27435e-06
1.84563e-06
6.03106e-06
1.86256e-06
5.78895e-06
1.87504e-06
5.55303e-06
1.88447e-06
5.32437e-06
1.89175e-06
5.10307e-06
1.89746e-06
4.88906e-06
1.90198e-06
4.68225e-06
1.90559e-06
4.48255e-06
1.90849e-06
4.28988e-06
1.91082e-06
4.10416e-06
1.91268e-06
3.92527e-06
1.91417e-06
3.7531e-06
1.91533e-06
3.58752e-06
1.91621e-06
3.42844e-06
1.91684e-06
3.27579e-06
1.91726e-06
3.1295e-06
1.91751e-06
2.98945e-06
2.85544e-06
1.90779e-06
2.85967e-06
1.90781e-06
3.00017e-06
1.90783e-06
3.14725e-06
1.90787e-06
3.30142e-06
1.90793e-06
3.46293e-06
1.90799e-06
3.63205e-06
1.90808e-06
3.80902e-06
1.90818e-06
3.99411e-06
1.90831e-06
4.18757e-06
1.90846e-06
4.38965e-06
1.90865e-06
4.6006e-06
1.90889e-06
4.82063e-06
1.90917e-06
5.04995e-06
1.90952e-06
5.28872e-06
1.90994e-06
5.53705e-06
1.91045e-06
5.79499e-06
1.91104e-06
6.06249e-06
1.91174e-06
6.33947e-06
1.91253e-06
6.62576e-06
1.9134e-06
6.92132e-06
1.91431e-06
7.22634e-06
1.91523e-06
7.54154e-06
1.91613e-06
7.86842e-06
1.91704e-06
8.20926e-06
1.91806e-06
8.56656e-06
1.91942e-06
8.9419e-06
1.92138e-06
9.33436e-06
1.92419e-06
9.73937e-06
1.92797e-06
1.01485e-05
1.93256e-06
1.05507e-05
1.93806e-06
1.2744e-05
1.94202e-06
1.25231e-05
1.94315e-06
1.22871e-05
1.94178e-06
1.20681e-05
1.94019e-06
1.18857e-05
1.9407e-06
1.17271e-05
1.94322e-06
1.15514e-05
1.94277e-06
1.13087e-05
1.92522e-06
1.09596e-05
1.87193e-06
1.05524e-05
1.8146e-06
1.04515e-05
1.86253e-06
1.13152e-05
2.0563e-06
1.31048e-05
2.34703e-06
1.48696e-05
2.92672e-06
1.47991e-05
2.5358e-06
7.31245e-06
1.91021e-06
5.84274e-06
2.15845e-06
1.60002e-05
2.25329e-06
1.79678e-05
2.38813e-06
1.80011e-05
2.59608e-06
1.86928e-05
2.84672e-06
1.92362e-05
2.11224e-06
8.59676e-06
1.28421e-06
8.04513e-06
1.47271e-06
1.89043e-05
1.64535e-06
1.9081e-05
1.90507e-06
1.84803e-05
2.16183e-06
1.58051e-05
1.52685e-06
8.76051e-06
1.7207e-06
1.61693e-05
1.94975e-06
1.77058e-05
2.10848e-06
1.74059e-05
2.30457e-06
1.77908e-05
2.50224e-06
1.86956e-05
2.75368e-06
1.93841e-05
1.98396e-06
8.73748e-06
1.10893e-06
8.90322e-06
1.29679e-06
1.93696e-05
1.47238e-06
1.85769e-05
1.61415e-06
1.74238e-05
1.71085e-06
1.35985e-05
1.80064e-06
1.24648e-05
1.90142e-06
1.13776e-05
2.03184e-06
1.01294e-05
2.12637e-06
8.38116e-06
1.97765e-06
6.4041e-06
1.7177e-06
5.5735e-06
1.64541e-06
5.97369e-06
1.69327e-06
6.45907e-06
1.75268e-06
6.57851e-06
1.79661e-06
6.45549e-06
1.82711e-06
6.24386e-06
1.84878e-06
6.00939e-06
1.86467e-06
5.77305e-06
1.87666e-06
5.54104e-06
1.88591e-06
5.31512e-06
1.89317e-06
5.09581e-06
1.89895e-06
4.88328e-06
1.90359e-06
4.67761e-06
1.90734e-06
4.4788e-06
1.91038e-06
4.28684e-06
1.91283e-06
4.1017e-06
1.91482e-06
3.92329e-06
1.9164e-06
3.75151e-06
1.91764e-06
3.58628e-06
1.91859e-06
3.4275e-06
1.91927e-06
3.2751e-06
1.91973e-06
3.12904e-06
1.91999e-06
2.98918e-06
2.85535e-06
1.90501e-06
2.85967e-06
1.90502e-06
3.00016e-06
1.90505e-06
3.14723e-06
1.90509e-06
3.30138e-06
1.90514e-06
3.46288e-06
1.90521e-06
3.63198e-06
1.9053e-06
3.80894e-06
1.90541e-06
3.99401e-06
1.90554e-06
4.18744e-06
1.9057e-06
4.38949e-06
1.9059e-06
4.6004e-06
1.90615e-06
4.82038e-06
1.90645e-06
5.04965e-06
1.90681e-06
5.28836e-06
1.90725e-06
5.53661e-06
1.90777e-06
5.79446e-06
1.90839e-06
6.06188e-06
1.90911e-06
6.33875e-06
1.90992e-06
6.62495e-06
1.91081e-06
6.92044e-06
1.91175e-06
7.22541e-06
1.91269e-06
7.5406e-06
1.91361e-06
7.8675e-06
1.91453e-06
8.20833e-06
1.91557e-06
8.56552e-06
1.91692e-06
8.94055e-06
1.91884e-06
9.33244e-06
1.92155e-06
9.73665e-06
1.92516e-06
1.01449e-05
1.92946e-06
1.05464e-05
1.93442e-06
1.2739e-05
1.93759e-06
1.25199e-05
1.9377e-06
1.22869e-05
1.93499e-06
1.20708e-05
1.93146e-06
1.18893e-05
1.92901e-06
1.17296e-05
1.92722e-06
1.15532e-05
1.92109e-06
1.13148e-05
1.89826e-06
1.09824e-05
1.84375e-06
1.06069e-05
1.78435e-06
1.05109e-05
1.81226e-06
1.12873e-05
1.96472e-06
1.29524e-05
2.24147e-06
1.45929e-05
2.84519e-06
1.41954e-05
2.63269e-06
7.52495e-06
2.03746e-06
6.43797e-06
2.2222e-06
1.58154e-05
2.29435e-06
1.78956e-05
2.38958e-06
1.79058e-05
2.54758e-06
1.85348e-05
2.7819e-06
1.90019e-05
2.17244e-06
9.20623e-06
1.37217e-06
8.8454e-06
1.49379e-06
1.87827e-05
1.63636e-06
1.89385e-05
1.85688e-06
1.82598e-05
2.1082e-06
1.55538e-05
1.5816e-06
9.28711e-06
1.76398e-06
1.59869e-05
1.96896e-06
1.75008e-05
2.10935e-06
1.72656e-05
2.28008e-06
1.76201e-05
2.4434e-06
1.85323e-05
2.65811e-06
1.91694e-05
1.95997e-06
9.43562e-06
1.19598e-06
9.66721e-06
1.35575e-06
1.92098e-05
1.5072e-06
1.84255e-05
1.63072e-06
1.73003e-05
1.71886e-06
1.35103e-05
1.80307e-06
1.23806e-05
1.89859e-06
1.12821e-05
2.01744e-06
1.00106e-05
2.09143e-06
8.30717e-06
1.96657e-06
6.52896e-06
1.76229e-06
5.77778e-06
1.69271e-06
6.04327e-06
1.72311e-06
6.42867e-06
1.77087e-06
6.53076e-06
1.8085e-06
6.41786e-06
1.8354e-06
6.21697e-06
1.85492e-06
5.98987e-06
1.86953e-06
5.75844e-06
1.88076e-06
5.5298e-06
1.88958e-06
5.3063e-06
1.89662e-06
5.08877e-06
1.90229e-06
4.87761e-06
1.9069e-06
4.673e-06
1.91066e-06
4.47504e-06
1.91373e-06
4.28377e-06
1.91623e-06
4.0992e-06
1.91826e-06
3.92126e-06
1.91988e-06
3.74989e-06
1.92116e-06
3.58501e-06
1.92213e-06
3.42653e-06
1.92283e-06
3.2744e-06
1.9233e-06
3.12857e-06
1.92357e-06
2.98892e-06
2.85525e-06
1.90178e-06
2.85966e-06
1.90179e-06
3.00015e-06
1.90181e-06
3.14721e-06
1.90185e-06
3.30134e-06
1.9019e-06
3.46283e-06
1.90197e-06
3.63191e-06
1.90205e-06
3.80885e-06
1.90216e-06
3.9939e-06
1.9023e-06
4.1873e-06
1.90246e-06
4.38932e-06
1.90267e-06
4.60019e-06
1.90292e-06
4.82014e-06
1.90322e-06
5.04935e-06
1.90359e-06
5.28799e-06
1.90403e-06
5.53617e-06
1.90456e-06
5.79393e-06
1.90518e-06
6.06125e-06
1.90591e-06
6.33803e-06
1.90672e-06
6.62414e-06
1.90761e-06
6.91955e-06
1.90854e-06
7.22448e-06
1.90947e-06
7.53967e-06
1.91037e-06
7.8666e-06
1.91127e-06
8.20744e-06
1.91225e-06
8.56454e-06
1.91352e-06
8.93928e-06
1.9153e-06
9.33066e-06
1.91781e-06
9.73414e-06
1.9211e-06
1.01416e-05
1.92494e-06
1.05425e-05
1.92914e-06
1.27348e-05
1.93131e-06
1.25177e-05
1.93018e-06
1.22881e-05
1.92588e-06
1.20751e-05
1.92012e-06
1.1895e-05
1.91455e-06
1.17351e-05
1.90836e-06
1.15594e-05
1.89669e-06
1.13265e-05
1.8687e-06
1.10104e-05
1.81221e-06
1.06634e-05
1.74959e-06
1.05736e-05
1.75935e-06
1.12775e-05
1.87698e-06
1.28348e-05
2.14208e-06
1.43278e-05
2.75849e-06
1.3579e-05
2.66797e-06
7.61547e-06
2.11601e-06
6.98993e-06
2.23837e-06
1.56931e-05
2.30196e-06
1.7832e-05
2.36706e-06
1.78407e-05
2.47663e-06
1.84252e-05
2.69596e-06
1.87826e-05
2.18782e-06
9.71437e-06
1.4326e-06
9.60062e-06
1.5052e-06
1.87101e-05
1.62358e-06
1.88201e-05
1.81408e-06
1.80693e-05
2.056e-06
1.53119e-05
1.62767e-06
9.71544e-06
1.80329e-06
1.58113e-05
1.98473e-06
1.73194e-05
2.10796e-06
1.71423e-05
2.25028e-06
1.74777e-05
2.38147e-06
1.84011e-05
2.56183e-06
1.8989e-05
1.93109e-06
1.00664e-05
1.27842e-06
1.03199e-05
1.41972e-06
1.90685e-05
1.54788e-06
1.82973e-05
1.65526e-06
1.71929e-05
1.73461e-06
1.3431e-05
1.8127e-06
1.23025e-05
1.90265e-06
1.11921e-05
2.01023e-06
9.90298e-06
2.06784e-06
8.24957e-06
1.96191e-06
6.63488e-06
1.79737e-06
5.94233e-06
1.73257e-06
6.10806e-06
1.75098e-06
6.41027e-06
1.78947e-06
6.49227e-06
1.82189e-06
6.38543e-06
1.84574e-06
6.19312e-06
1.86332e-06
5.97228e-06
1.87666e-06
5.7451e-06
1.88705e-06
5.51941e-06
1.89532e-06
5.29803e-06
1.902e-06
5.0821e-06
1.90744e-06
4.87217e-06
1.91191e-06
4.66853e-06
1.91558e-06
4.47137e-06
1.9186e-06
4.28075e-06
1.92108e-06
4.09672e-06
1.92309e-06
3.91925e-06
1.92471e-06
3.74827e-06
1.92599e-06
3.58373e-06
1.92696e-06
3.42555e-06
1.92766e-06
3.27369e-06
1.92814e-06
3.1281e-06
1.92841e-06
2.98864e-06
2.85514e-06
1.89808e-06
2.85966e-06
1.89809e-06
3.00014e-06
1.89811e-06
3.14719e-06
1.89815e-06
3.30131e-06
1.8982e-06
3.46278e-06
1.89826e-06
3.63185e-06
1.89835e-06
3.80876e-06
1.89846e-06
3.99379e-06
1.89859e-06
4.18717e-06
1.89875e-06
4.38916e-06
1.89895e-06
4.59999e-06
1.8992e-06
4.81989e-06
1.8995e-06
5.04905e-06
1.89986e-06
5.28762e-06
1.9003e-06
5.53573e-06
1.90082e-06
5.79341e-06
1.90144e-06
6.06064e-06
1.90214e-06
6.33732e-06
1.90294e-06
6.62334e-06
1.9038e-06
6.91868e-06
1.9047e-06
7.22358e-06
1.90559e-06
7.53879e-06
1.90643e-06
7.86575e-06
1.90725e-06
8.20662e-06
1.90814e-06
8.56365e-06
1.90925e-06
8.93817e-06
1.91082e-06
9.32909e-06
1.91303e-06
9.73194e-06
1.9159e-06
1.01387e-05
1.91915e-06
1.05393e-05
1.92242e-06
1.27315e-05
1.92343e-06
1.25167e-05
1.92089e-06
1.22906e-05
1.9149e-06
1.20811e-05
1.90689e-06
1.1903e-05
1.89808e-06
1.17439e-05
1.88758e-06
1.15698e-05
1.87072e-06
1.13433e-05
1.83793e-06
1.10432e-05
1.77931e-06
1.07221e-05
1.71374e-06
1.06391e-05
1.70892e-06
1.12823e-05
1.80225e-06
1.27414e-05
2.0624e-06
1.40676e-05
2.672e-06
1.29694e-05
2.64848e-06
7.639e-06
2.13807e-06
7.50035e-06
2.21424e-06
1.56169e-05
2.27823e-06
1.7768e-05
2.32368e-06
1.77953e-05
2.39246e-06
1.83564e-05
2.59578e-06
1.85793e-05
2.16085e-06
1.01493e-05
1.4655e-06
1.0296e-05
1.50768e-06
1.86679e-05
1.60898e-06
1.87188e-05
1.78089e-06
1.78973e-05
2.00934e-06
1.50834e-05
1.66328e-06
1.00615e-05
1.83495e-06
1.56396e-05
1.99685e-06
1.71575e-05
2.1053e-06
1.70339e-05
2.22139e-06
1.73616e-05
2.32525e-06
1.82972e-05
2.47459e-06
1.88397e-05
1.90299e-06
1.0638e-05
1.35659e-06
1.08663e-05
1.48701e-06
1.89381e-05
1.59294e-06
1.81914e-05
1.68637e-06
1.70995e-05
1.75715e-06
1.33602e-05
1.8291e-06
1.22306e-05
1.91313e-06
1.11081e-05
2.00957e-06
9.80655e-06
2.05325e-06
8.20589e-06
1.96178e-06
6.72635e-06
1.8263e-06
6.07781e-06
1.76713e-06
6.16723e-06
1.77734e-06
6.40006e-06
1.80831e-06
6.4613e-06
1.83628e-06
6.35746e-06
1.85749e-06
6.17191e-06
1.87337e-06
5.9564e-06
1.88555e-06
5.73292e-06
1.89513e-06
5.50983e-06
1.90283e-06
5.29033e-06
1.9091e-06
5.07583e-06
1.91426e-06
4.86701e-06
1.91852e-06
4.66427e-06
1.92205e-06
4.46783e-06
1.92498e-06
4.27783e-06
1.92738e-06
4.09431e-06
1.92935e-06
3.91728e-06
1.93094e-06
3.74669e-06
1.9322e-06
3.58248e-06
1.93316e-06
3.42459e-06
1.93387e-06
3.27299e-06
1.93435e-06
3.12762e-06
1.93463e-06
2.98836e-06
2.85503e-06
1.89394e-06
2.85966e-06
1.89395e-06
3.00012e-06
1.89397e-06
3.14716e-06
1.894e-06
3.30127e-06
1.89405e-06
3.46273e-06
1.89412e-06
3.63178e-06
1.8942e-06
3.80868e-06
1.8943e-06
3.99369e-06
1.89443e-06
4.18704e-06
1.89458e-06
4.389e-06
1.89478e-06
4.5998e-06
1.89502e-06
4.81965e-06
1.89531e-06
5.04876e-06
1.89566e-06
5.28727e-06
1.89608e-06
5.53531e-06
1.89658e-06
5.79291e-06
1.89717e-06
6.06005e-06
1.89784e-06
6.33664e-06
1.8986e-06
6.62259e-06
1.89941e-06
6.91787e-06
1.90025e-06
7.22275e-06
1.90106e-06
7.53797e-06
1.90182e-06
7.865e-06
1.90253e-06
8.20591e-06
1.90326e-06
8.56292e-06
1.90418e-06
8.93725e-06
1.90549e-06
9.32779e-06
1.90732e-06
9.7301e-06
1.90969e-06
1.01364e-05
1.91226e-06
1.05367e-05
1.9145e-06
1.27293e-05
1.91424e-06
1.2517e-05
1.91023e-06
1.22946e-05
1.90246e-06
1.20888e-05
1.89215e-06
1.19134e-05
1.88028e-06
1.17558e-05
1.86581e-06
1.15843e-05
1.84431e-06
1.13648e-05
1.80736e-06
1.10802e-05
1.74699e-06
1.07824e-05
1.67973e-06
1.07064e-05
1.66548e-06
1.12966e-05
1.74664e-06
1.26603e-05
2.01023e-06
1.3804e-05
2.59046e-06
1.23892e-05
2.58746e-06
7.642e-06
2.11428e-06
7.97353e-06
2.15986e-06
1.55713e-05
2.22879e-06
1.76991e-05
2.26414e-06
1.77599e-05
2.30344e-06
1.83171e-05
2.48723e-06
1.83955e-05
2.09885e-06
1.05377e-05
1.47512e-06
1.09197e-05
1.50376e-06
1.86393e-05
1.59526e-06
1.86273e-05
1.75827e-06
1.77343e-05
1.96979e-06
1.48719e-05
1.68986e-06
1.03414e-05
1.8594e-06
1.54701e-05
2.00706e-06
1.70098e-05
2.10302e-06
1.69379e-05
2.19816e-06
1.72665e-05
2.28176e-06
1.82136e-05
2.40514e-06
1.87163e-05
1.88915e-06
1.11539e-05
1.43308e-06
1.13224e-05
1.55759e-06
1.88136e-05
1.64259e-06
1.81064e-05
1.7229e-06
1.70192e-05
1.78535e-06
1.32977e-05
1.85127e-06
1.21646e-05
1.92942e-06
1.103e-05
2.01457e-06
9.72139e-06
2.0462e-06
8.17426e-06
1.96556e-06
6.80699e-06
1.85153e-06
6.19184e-06
1.79784e-06
6.22091e-06
1.80245e-06
6.39546e-06
1.82738e-06
6.43636e-06
1.85152e-06
6.33333e-06
1.8704e-06
6.15304e-06
1.88475e-06
5.94204e-06
1.89588e-06
5.7218e-06
1.9047e-06
5.501e-06
1.91185e-06
5.28319e-06
1.91771e-06
5.06996e-06
1.92257e-06
4.86215e-06
1.92661e-06
4.66023e-06
1.92997e-06
4.46447e-06
1.93277e-06
4.27503e-06
1.93509e-06
4.09199e-06
1.937e-06
3.91537e-06
1.93855e-06
3.74514e-06
1.93979e-06
3.58124e-06
1.94075e-06
3.42363e-06
1.94146e-06
3.27227e-06
1.94196e-06
3.12713e-06
1.94226e-06
2.98806e-06
2.85491e-06
1.88936e-06
2.85965e-06
1.88938e-06
3.00011e-06
1.8894e-06
3.14714e-06
1.88943e-06
3.30124e-06
1.88948e-06
3.46268e-06
1.88954e-06
3.63172e-06
1.88961e-06
3.80861e-06
1.88971e-06
3.99359e-06
1.88983e-06
4.18692e-06
1.88998e-06
4.38885e-06
1.89016e-06
4.59962e-06
1.89038e-06
4.81943e-06
1.89066e-06
5.04849e-06
1.89099e-06
5.28694e-06
1.89138e-06
5.53491e-06
1.89185e-06
5.79244e-06
1.8924e-06
6.0595e-06
1.89303e-06
6.33601e-06
1.89373e-06
6.62189e-06
1.89448e-06
6.91712e-06
1.89523e-06
7.22199e-06
1.89595e-06
7.53726e-06
1.89658e-06
7.86436e-06
1.89714e-06
8.20535e-06
1.8977e-06
8.56236e-06
1.89838e-06
8.93656e-06
1.89938e-06
9.3268e-06
1.90079e-06
9.72868e-06
1.9026e-06
1.01345e-05
1.90444e-06
1.05349e-05
1.90558e-06
1.27281e-05
1.90401e-06
1.25186e-05
1.8985e-06
1.23001e-05
1.88898e-06
1.20984e-05
1.87649e-06
1.19258e-05
1.8618e-06
1.17705e-05
1.84382e-06
1.16023e-05
1.81842e-06
1.13902e-05
1.77818e-06
1.11204e-05
1.71691e-06
1.08437e-05
1.64976e-06
1.07735e-05
1.63218e-06
1.13142e-05
1.71398e-06
1.25785e-05
1.98568e-06
1.35323e-05
2.51614e-06
1.18587e-05
2.49993e-06
7.6582e-06
2.05953e-06
8.41393e-06
2.0872e-06
1.55437e-05
2.16286e-06
1.76234e-05
2.19498e-06
1.77278e-05
2.21666e-06
1.82954e-05
2.37632e-06
1.82358e-05
2.01411e-06
1.08999e-05
1.46938e-06
1.14644e-05
1.49784e-06
1.86108e-05
1.58615e-06
1.8539e-05
1.74633e-06
1.75742e-05
1.93705e-06
1.46812e-05
1.7109e-06
1.05676e-05
1.87932e-06
1.53017e-05
2.01767e-06
1.68715e-05
2.10297e-06
1.68526e-05
2.18312e-06
1.71864e-05
2.25436e-06
1.81424e-05
2.35751e-06
1.86131e-05
1.89362e-06
1.16178e-05
1.5099e-06
1.17061e-05
1.63139e-06
1.86921e-05
1.69684e-06
1.80409e-05
1.76358e-06
1.69524e-05
1.8178e-06
1.32435e-05
1.87772e-06
1.21047e-05
1.94958e-06
1.09581e-05
2.02396e-06
9.647e-06
2.04536e-06
8.15286e-06
1.97285e-06
6.8795e-06
1.87482e-06
6.28987e-06
1.82588e-06
6.26985e-06
1.82652e-06
6.39482e-06
1.84658e-06
6.4163e-06
1.86743e-06
6.31247e-06
1.88426e-06
6.13621e-06
1.89726e-06
5.92904e-06
1.90742e-06
5.71164e-06
1.91555e-06
5.49287e-06
1.92218e-06
5.27656e-06
1.92765e-06
5.06449e-06
1.93221e-06
4.8576e-06
1.93602e-06
4.65641e-06
1.93922e-06
4.46127e-06
1.94189e-06
4.27236e-06
1.94412e-06
4.08977e-06
1.94596e-06
3.91353e-06
1.94746e-06
3.74363e-06
1.94867e-06
3.58003e-06
1.94963e-06
3.42268e-06
1.95035e-06
3.27155e-06
1.95087e-06
3.1266e-06
1.95124e-06
2.9877e-06
2.85472e-06
1.88438e-06
2.85964e-06
1.8844e-06
3.0001e-06
1.88442e-06
3.14712e-06
1.88445e-06
3.30121e-06
1.88449e-06
3.46264e-06
1.88455e-06
3.63167e-06
1.88462e-06
3.80854e-06
1.88471e-06
3.9935e-06
1.88482e-06
4.18681e-06
1.88495e-06
4.38872e-06
1.88512e-06
4.59945e-06
1.88532e-06
4.81922e-06
1.88557e-06
5.04824e-06
1.88588e-06
5.28664e-06
1.88624e-06
5.53455e-06
1.88667e-06
5.79201e-06
1.88717e-06
6.059e-06
1.88774e-06
6.33544e-06
1.88838e-06
6.62126e-06
1.88904e-06
6.91646e-06
1.88969e-06
7.22134e-06
1.89028e-06
7.53666e-06
1.89078e-06
7.86386e-06
1.89117e-06
8.20496e-06
1.89151e-06
8.56202e-06
1.89194e-06
8.93614e-06
1.89259e-06
9.32615e-06
1.89356e-06
9.72771e-06
1.89478e-06
1.01333e-05
1.89587e-06
1.05338e-05
1.89589e-06
1.27281e-05
1.89302e-06
1.25214e-05
1.88605e-06
1.23071e-05
1.87487e-06
1.21095e-05
1.86037e-06
1.19403e-05
1.84319e-06
1.17877e-05
1.82222e-06
1.16233e-05
1.79372e-06
1.14187e-05
1.75122e-06
1.11629e-05