/*--------------------------------*- C++ -*----------------------------------*\
  =========                 |
  \\      /  F ield         | OpenFOAM: The Open Source CFD Toolbox
   \\    /   O peration     | Website:  https://openfoam.org
    \\  /    A nd           | Version:  9
     \\/     M anipulation  |
\*---------------------------------------------------------------------------*/
FoamFile
{
    format      ascii;
    class       volScalarField;
    location    "0.12";
    object      rAU;
}
// * * * * * * * * * * * * * * * * * * * * * * * * * * * * * * * * * * * * * //

dimensions      [-1 3 1 0 0 0 0];

internalField   nonuniform List<scalar> 
20000
(
7.98105e-06
9.09868e-06
9.18212e-06
9.26069e-06
9.33472e-06
9.40453e-06
9.47041e-06
9.53266e-06
9.59158e-06
9.64746e-06
9.70058e-06
9.75123e-06
9.79968e-06
9.84622e-06
9.89115e-06
9.93478e-06
9.97742e-06
1.00194e-05
1.00611e-05
1.01026e-05
1.01442e-05
1.01856e-05
1.02265e-05
1.02661e-05
1.03035e-05
1.03385e-05
1.03717e-05
1.04049e-05
1.04413e-05
1.04863e-05
1.05814e-05
1.064e-05
1.07029e-05
1.07615e-05
1.08073e-05
1.08428e-05
1.08813e-05
1.09432e-05
1.10606e-05
1.12509e-05
1.12914e-05
1.0822e-05
1.01645e-05
9.64638e-06
9.30258e-06
1.42173e-05
1.52054e-05
9.13162e-06
9.19924e-06
9.18258e-06
8.99327e-06
8.83097e-06
1.39673e-05
1.35832e-05
8.79582e-06
8.98315e-06
9.04261e-06
9.48793e-06
1.35228e-05
9.42412e-06
9.24627e-06
9.34254e-06
9.23655e-06
9.005e-06
8.77573e-06
1.39384e-05
1.35372e-05
8.78141e-06
9.10069e-06
9.36936e-06
9.51747e-06
9.64164e-06
9.7367e-06
9.82881e-06
1.01185e-05
1.1609e-05
1.36163e-05
1.09767e-05
1.02895e-05
1.01795e-05
1.01593e-05
1.01423e-05
1.01152e-05
1.00788e-05
1.00357e-05
9.98788e-06
9.93666e-06
9.88274e-06
9.8264e-06
9.76773e-06
9.70668e-06
9.64309e-06
9.57678e-06
9.50753e-06
9.43508e-06
9.35916e-06
9.27944e-06
9.1955e-06
9.10691e-06
9.35345e-06
9.45838e-06
1.107e-05
1.11939e-05
1.13109e-05
1.14215e-05
1.15259e-05
1.16244e-05
1.17174e-05
1.18052e-05
1.18881e-05
1.19665e-05
1.20406e-05
1.21109e-05
1.21775e-05
1.22408e-05
1.23012e-05
1.23589e-05
1.24142e-05
1.24675e-05
1.25189e-05
1.25688e-05
1.2617e-05
1.26634e-05
1.27078e-05
1.27496e-05
1.27889e-05
1.2826e-05
1.2862e-05
1.28988e-05
1.29414e-05
1.30469e-05
1.30815e-05
1.31166e-05
1.31493e-05
1.31749e-05
1.31948e-05
1.3216e-05
1.32494e-05
1.33117e-05
1.34099e-05
1.34346e-05
1.31948e-05
1.28129e-05
1.24837e-05
1.22763e-05
1.45692e-05
1.49789e-05
1.23164e-05
1.22469e-05
1.22041e-05
1.2058e-05
1.19468e-05
1.45341e-05
1.45069e-05
1.20354e-05
1.21017e-05
1.21165e-05
1.24132e-05
1.43885e-05
1.24132e-05
1.22521e-05
1.23042e-05
1.22223e-05
1.2059e-05
1.18986e-05
1.44896e-05
1.44948e-05
1.20233e-05
1.21879e-05
1.23421e-05
1.23823e-05
1.24367e-05
1.24745e-05
1.25105e-05
1.26619e-05
1.33745e-05
1.40945e-05
1.32318e-05
1.27951e-05
1.26552e-05
1.25884e-05
1.25355e-05
1.24823e-05
1.24255e-05
1.23648e-05
1.23004e-05
1.22323e-05
1.21607e-05
1.20853e-05
1.20061e-05
1.19229e-05
1.18352e-05
1.1743e-05
1.16458e-05
1.15434e-05
1.14354e-05
1.13215e-05
1.12014e-05
1.10746e-05
1.1446e-05
9.45891e-06
1.10704e-05
1.11943e-05
1.13113e-05
1.14219e-05
1.15262e-05
1.16247e-05
1.17177e-05
1.18055e-05
1.18884e-05
1.19668e-05
1.20409e-05
1.21111e-05
1.21777e-05
1.2241e-05
1.23014e-05
1.2359e-05
1.24143e-05
1.24676e-05
1.2519e-05
1.25688e-05
1.2617e-05
1.26634e-05
1.27076e-05
1.27495e-05
1.27887e-05
1.28258e-05
1.28619e-05
1.28986e-05
1.29413e-05
1.30467e-05
1.30811e-05
1.31158e-05
1.31482e-05
1.31738e-05
1.31941e-05
1.32158e-05
1.32496e-05
1.33103e-05
1.34021e-05
1.34257e-05
1.32048e-05
1.28327e-05
1.25102e-05
1.23349e-05
1.43883e-05
1.47776e-05
1.23984e-05
1.22739e-05
1.2222e-05
1.20707e-05
1.19655e-05
1.43585e-05
1.44118e-05
1.21071e-05
1.214e-05
1.21439e-05
1.24517e-05
1.42502e-05
1.24613e-05
1.22755e-05
1.23202e-05
1.22307e-05
1.20702e-05
1.19192e-05
1.42983e-05
1.4371e-05
1.20921e-05
1.22304e-05
1.23707e-05
1.24039e-05
1.24532e-05
1.24908e-05
1.2536e-05
1.27099e-05
1.33464e-05
1.38683e-05
1.32585e-05
1.28528e-05
1.26959e-05
1.26161e-05
1.25546e-05
1.24955e-05
1.24349e-05
1.23717e-05
1.23055e-05
1.22362e-05
1.21637e-05
1.20877e-05
1.2008e-05
1.19243e-05
1.18364e-05
1.17439e-05
1.16466e-05
1.1544e-05
1.14359e-05
1.13219e-05
1.12017e-05
1.10748e-05
1.14462e-05
9.45963e-06
1.10709e-05
1.11948e-05
1.13119e-05
1.14224e-05
1.15267e-05
1.16252e-05
1.17182e-05
1.18059e-05
1.18888e-05
1.19672e-05
1.20413e-05
1.21115e-05
1.21781e-05
1.22414e-05
1.23017e-05
1.23593e-05
1.24146e-05
1.24678e-05
1.25192e-05
1.2569e-05
1.26171e-05
1.26635e-05
1.27077e-05
1.27495e-05
1.27887e-05
1.28258e-05
1.28619e-05
1.28988e-05
1.29414e-05
1.30469e-05
1.30811e-05
1.31155e-05
1.31476e-05
1.31733e-05
1.31941e-05
1.32166e-05
1.32508e-05
1.33099e-05
1.33949e-05
1.34177e-05
1.32189e-05
1.28642e-05
1.25499e-05
1.24055e-05
1.42002e-05
1.45792e-05
1.24599e-05
1.22932e-05
1.22414e-05
1.20922e-05
1.19905e-05
1.41629e-05
1.42781e-05
1.21659e-05
1.21755e-05
1.21797e-05
1.24951e-05
1.41007e-05
1.25023e-05
1.23025e-05
1.23405e-05
1.22484e-05
1.2094e-05
1.19557e-05
1.41153e-05
1.42061e-05
1.21462e-05
1.22678e-05
1.23987e-05
1.24264e-05
1.24727e-05
1.25122e-05
1.25688e-05
1.27636e-05
1.33179e-05
1.36791e-05
1.32509e-05
1.28895e-05
1.27239e-05
1.26358e-05
1.25689e-05
1.25063e-05
1.24431e-05
1.2378e-05
1.23104e-05
1.22401e-05
1.21667e-05
1.20901e-05
1.20099e-05
1.19259e-05
1.18376e-05
1.17449e-05
1.16473e-05
1.15445e-05
1.14363e-05
1.13222e-05
1.12018e-05
1.10748e-05
1.14462e-05
9.46058e-06
1.10717e-05
1.11956e-05
1.13126e-05
1.14231e-05
1.15274e-05
1.16259e-05
1.17188e-05
1.18065e-05
1.18894e-05
1.19677e-05
1.20418e-05
1.2112e-05
1.21786e-05
1.22419e-05
1.23022e-05
1.23598e-05
1.24151e-05
1.24683e-05
1.25196e-05
1.25694e-05
1.26174e-05
1.26637e-05
1.27079e-05
1.27497e-05
1.27889e-05
1.28261e-05
1.28623e-05
1.28992e-05
1.29419e-05
1.30474e-05
1.30814e-05
1.31155e-05
1.31473e-05
1.31732e-05
1.31946e-05
1.32181e-05
1.32529e-05
1.33102e-05
1.33887e-05
1.34109e-05
1.32345e-05
1.29017e-05
1.25972e-05
1.24829e-05
1.40344e-05
1.43968e-05
1.25007e-05
1.23063e-05
1.226e-05
1.21188e-05
1.20202e-05
1.39784e-05
1.41262e-05
1.22101e-05
1.2206e-05
1.22184e-05
1.25384e-05
1.39568e-05
1.25355e-05
1.23308e-05
1.23623e-05
1.2272e-05
1.21241e-05
1.19982e-05
1.39513e-05
1.40311e-05
1.21853e-05
1.22984e-05
1.24238e-05
1.24473e-05
1.2492e-05
1.25342e-05
1.26022e-05
1.28103e-05
1.32855e-05
1.35375e-05
1.32259e-05
1.29119e-05
1.27449e-05
1.26508e-05
1.25798e-05
1.25145e-05
1.24495e-05
1.2383e-05
1.23145e-05
1.22433e-05
1.21694e-05
1.20922e-05
1.20116e-05
1.19272e-05
1.18386e-05
1.17456e-05
1.16478e-05
1.15448e-05
1.14364e-05
1.13221e-05
1.12016e-05
1.10746e-05
1.14458e-05
9.46178e-06
1.10726e-05
1.11965e-05
1.13135e-05
1.1424e-05
1.15283e-05
1.16267e-05
1.17196e-05
1.18073e-05
1.18902e-05
1.19685e-05
1.20426e-05
1.21127e-05
1.21793e-05
1.22425e-05
1.23028e-05
1.23604e-05
1.24157e-05
1.24688e-05
1.25202e-05
1.25699e-05
1.26179e-05
1.26642e-05
1.27083e-05
1.27501e-05
1.27893e-05
1.28265e-05
1.28628e-05
1.28999e-05
1.29427e-05
1.30482e-05
1.30821e-05
1.31158e-05
1.31475e-05
1.31736e-05
1.31957e-05
1.32201e-05
1.32553e-05
1.3311e-05
1.33835e-05
1.34052e-05
1.32495e-05
1.29408e-05
1.26484e-05
1.25653e-05
1.39047e-05
1.42356e-05
1.25247e-05
1.23105e-05
1.22763e-05
1.21475e-05
1.20533e-05
1.38188e-05
1.39732e-05
1.22417e-05
1.22318e-05
1.22573e-05
1.25798e-05
1.38276e-05
1.25623e-05
1.23584e-05
1.23833e-05
1.22983e-05
1.21555e-05
1.20408e-05
1.38079e-05
1.38646e-05
1.22125e-05
1.23226e-05
1.24451e-05
1.24655e-05
1.25097e-05
1.25553e-05
1.26337e-05
1.28474e-05
1.3252e-05
1.34346e-05
1.31956e-05
1.29234e-05
1.27602e-05
1.26627e-05
1.25886e-05
1.25211e-05
1.24546e-05
1.23871e-05
1.23177e-05
1.22459e-05
1.21714e-05
1.20938e-05
1.20128e-05
1.19281e-05
1.18392e-05
1.1746e-05
1.16479e-05
1.15448e-05
1.14362e-05
1.13218e-05
1.12011e-05
1.10739e-05
1.1445e-05
9.46322e-06
1.10738e-05
1.11976e-05
1.13146e-05
1.1425e-05
1.15293e-05
1.16277e-05
1.17206e-05
1.18083e-05
1.18911e-05
1.19694e-05
1.20434e-05
1.21136e-05
1.21801e-05
1.22434e-05
1.23036e-05
1.23612e-05
1.24164e-05
1.24696e-05
1.25209e-05
1.25706e-05
1.26186e-05
1.26648e-05
1.27089e-05
1.27506e-05
1.27899e-05
1.28272e-05
1.28636e-05
1.29008e-05
1.29438e-05
1.30492e-05
1.3083e-05
1.31164e-05
1.31479e-05
1.31742e-05
1.31969e-05
1.32222e-05
1.32578e-05
1.33117e-05
1.33791e-05
1.34005e-05
1.32633e-05
1.29789e-05
1.27007e-05
1.26532e-05
1.38156e-05
1.40964e-05
1.25423e-05
1.23123e-05
1.22902e-05
1.21756e-05
1.20885e-05
1.36856e-05
1.38251e-05
1.22631e-05
1.22539e-05
1.22945e-05
1.26199e-05
1.37171e-05
1.25851e-05
1.23843e-05
1.24028e-05
1.23248e-05
1.21857e-05
1.20814e-05
1.36833e-05
1.37153e-05
1.22316e-05
1.23414e-05
1.24625e-05
1.24809e-05
1.25256e-05
1.25748e-05
1.26623e-05
1.28755e-05
1.32209e-05
1.3358e-05
1.31664e-05
1.29282e-05
1.27709e-05
1.26716e-05
1.25954e-05
1.25263e-05
1.24586e-05
1.23902e-05
1.23201e-05
1.22478e-05
1.21728e-05
1.20949e-05
1.20135e-05
1.19285e-05
1.18394e-05
1.17459e-05
1.16476e-05
1.15443e-05
1.14355e-05
1.1321e-05
1.12002e-05
1.10729e-05
1.14437e-05
9.46493e-06
1.10751e-05
1.11989e-05
1.13159e-05
1.14263e-05
1.15305e-05
1.16289e-05
1.17217e-05
1.18094e-05
1.18922e-05
1.19705e-05
1.20445e-05
1.21146e-05
1.21811e-05
1.22443e-05
1.23046e-05
1.23622e-05
1.24174e-05
1.24705e-05
1.25218e-05
1.25715e-05
1.26194e-05
1.26656e-05
1.27097e-05
1.27514e-05
1.27907e-05
1.28281e-05
1.28647e-05
1.2902e-05
1.2945e-05
1.30505e-05
1.3084e-05
1.31172e-05
1.31485e-05
1.31749e-05
1.31983e-05
1.32243e-05
1.32601e-05
1.33123e-05
1.33753e-05
1.33964e-05
1.32751e-05
1.30135e-05
1.27531e-05
1.27466e-05
1.37645e-05
1.39797e-05
1.25596e-05
1.23158e-05
1.23025e-05
1.22013e-05
1.21256e-05
1.35802e-05
1.36876e-05
1.22773e-05
1.22728e-05
1.23291e-05
1.26602e-05
1.3626e-05
1.26059e-05
1.24077e-05
1.24205e-05
1.23496e-05
1.22132e-05
1.21191e-05
1.35752e-05
1.35868e-05
1.22458e-05
1.2356e-05
1.24763e-05
1.24936e-05
1.25393e-05
1.25924e-05
1.26874e-05
1.28967e-05
1.31934e-05
1.32989e-05
1.31397e-05
1.2929e-05
1.27783e-05
1.26782e-05
1.26003e-05
1.253e-05
1.24614e-05
1.23923e-05
1.23217e-05
1.22489e-05
1.21736e-05
1.20953e-05
1.20137e-05
1.19284e-05
1.1839e-05
1.17453e-05
1.16468e-05
1.15433e-05
1.14344e-05
1.13197e-05
1.11987e-05
1.10713e-05
1.14419e-05
9.46692e-06
1.10767e-05
1.12004e-05
1.13174e-05
1.14277e-05
1.15319e-05
1.16303e-05
1.17231e-05
1.18107e-05
1.18935e-05
1.19717e-05
1.20457e-05
1.21158e-05
1.21823e-05
1.22455e-05
1.23057e-05
1.23633e-05
1.24185e-05
1.24716e-05
1.25229e-05
1.25725e-05
1.26204e-05
1.26666e-05
1.27106e-05
1.27523e-05
1.27917e-05
1.28291e-05
1.28658e-05
1.29033e-05
1.29465e-05
1.30518e-05
1.30852e-05
1.31181e-05
1.31491e-05
1.31757e-05
1.31996e-05
1.32261e-05
1.32619e-05
1.33124e-05
1.33716e-05
1.33925e-05
1.32846e-05
1.30425e-05
1.28032e-05
1.28433e-05
1.37422e-05
1.38787e-05
1.25754e-05
1.23228e-05
1.23139e-05
1.22238e-05
1.21636e-05
1.34983e-05
1.35637e-05
1.22868e-05
1.22893e-05
1.23589e-05
1.26991e-05
1.35526e-05
1.26262e-05
1.24285e-05
1.24364e-05
1.23715e-05
1.22371e-05
1.21527e-05
1.34798e-05
1.34782e-05
1.22568e-05
1.23669e-05
1.24871e-05
1.25037e-05
1.25509e-05
1.26078e-05
1.27091e-05
1.29124e-05
1.31692e-05
1.32517e-05
1.31156e-05
1.29272e-05
1.27833e-05
1.2683e-05
1.26039e-05
1.25325e-05
1.24632e-05
1.23935e-05
1.23224e-05
1.22493e-05
1.21737e-05
1.20951e-05
1.20132e-05
1.19276e-05
1.18381e-05
1.17441e-05
1.16455e-05
1.15418e-05
1.14327e-05
1.13178e-05
1.11967e-05
1.10691e-05
1.14393e-05
9.46919e-06
1.10784e-05
1.12022e-05
1.13191e-05
1.14294e-05
1.15336e-05
1.16319e-05
1.17246e-05
1.18122e-05
1.1895e-05
1.19731e-05
1.20471e-05
1.21172e-05
1.21836e-05
1.22468e-05
1.2307e-05
1.23646e-05
1.24197e-05
1.24729e-05
1.25241e-05
1.25737e-05
1.26216e-05
1.26677e-05
1.27117e-05
1.27534e-05
1.27927e-05
1.28303e-05
1.28671e-05
1.29047e-05
1.2948e-05
1.30532e-05
1.30865e-05
1.31191e-05
1.31499e-05
1.31765e-05
1.32007e-05
1.32276e-05
1.32632e-05
1.33121e-05
1.33677e-05
1.33882e-05
1.32916e-05
1.30666e-05
1.28505e-05
1.294e-05
1.37385e-05
1.3794e-05
1.25907e-05
1.2334e-05
1.23255e-05
1.22429e-05
1.22015e-05
1.34345e-05
1.3455e-05
1.22938e-05
1.23038e-05
1.23855e-05
1.27356e-05
1.3494e-05
1.26468e-05
1.24474e-05
1.24506e-05
1.239e-05
1.22569e-05
1.21813e-05
1.33946e-05
1.33873e-05
1.22657e-05
1.23743e-05
1.24952e-05
1.25114e-05
1.25603e-05
1.26211e-05
1.27275e-05
1.29234e-05
1.31476e-05
1.32131e-05
1.3094e-05
1.29238e-05
1.27864e-05
1.26864e-05
1.26063e-05
1.25341e-05
1.24641e-05
1.23939e-05
1.23225e-05
1.2249e-05
1.21731e-05
1.20942e-05
1.20121e-05
1.19263e-05
1.18365e-05
1.17424e-05
1.16435e-05
1.15396e-05
1.14303e-05
1.13152e-05
1.1194e-05
1.10662e-05
1.1436e-05
9.47173e-06
1.10804e-05
1.12041e-05
1.1321e-05
1.14313e-05
1.15354e-05
1.16336e-05
1.17264e-05
1.18139e-05
1.18966e-05
1.19747e-05
1.20487e-05
1.21187e-05
1.21851e-05
1.22483e-05
1.23085e-05
1.2366e-05
1.24211e-05
1.24742e-05
1.25255e-05
1.2575e-05
1.26229e-05
1.26689e-05
1.27129e-05
1.27545e-05
1.2794e-05
1.28316e-05
1.28685e-05
1.29063e-05
1.29496e-05
1.30547e-05
1.30878e-05
1.312e-05
1.31505e-05
1.31771e-05
1.32016e-05
1.32286e-05
1.32639e-05
1.33111e-05
1.33635e-05
1.33834e-05
1.32961e-05
1.30863e-05
1.28948e-05
1.30326e-05
1.37439e-05
1.37229e-05
1.26061e-05
1.23492e-05
1.23378e-05
1.2259e-05
1.2238e-05
1.33829e-05
1.33621e-05
1.23e-05
1.23171e-05
1.24097e-05
1.2769e-05
1.3447e-05
1.26679e-05
1.24648e-05
1.24632e-05
1.24051e-05
1.22726e-05
1.22044e-05
1.33168e-05
1.33108e-05
1.22732e-05
1.23784e-05
1.25009e-05
1.25168e-05
1.25677e-05
1.26322e-05
1.27426e-05
1.29305e-05
1.31277e-05
1.31805e-05
1.30744e-05
1.29191e-05
1.27879e-05
1.26886e-05
1.26078e-05
1.25348e-05
1.24643e-05
1.23937e-05
1.23218e-05
1.22481e-05
1.21719e-05
1.20928e-05
1.20104e-05
1.19244e-05
1.18344e-05
1.174e-05
1.1641e-05
1.15369e-05
1.14274e-05
1.13121e-05
1.11906e-05
1.10627e-05
1.14319e-05
9.47453e-06
1.10826e-05
1.12063e-05
1.1323e-05
1.14333e-05
1.15374e-05
1.16356e-05
1.17282e-05
1.18157e-05
1.18984e-05
1.19765e-05
1.20504e-05
1.21204e-05
1.21868e-05
1.22499e-05
1.231e-05
1.23675e-05
1.24227e-05
1.24757e-05
1.25269e-05
1.25764e-05
1.26242e-05
1.26702e-05
1.27142e-05
1.27558e-05
1.27953e-05
1.2833e-05
1.287e-05
1.29079e-05
1.29513e-05
1.30561e-05
1.3089e-05
1.31209e-05
1.31511e-05
1.31776e-05
1.32021e-05
1.32292e-05
1.32639e-05
1.33094e-05
1.33589e-05
1.3378e-05
1.32987e-05
1.31031e-05
1.29368e-05
1.31177e-05
1.3751e-05
1.36621e-05
1.26216e-05
1.23672e-05
1.23507e-05
1.22726e-05
1.22716e-05
1.33387e-05
1.32843e-05
1.23063e-05
1.23294e-05
1.24322e-05
1.27986e-05
1.34092e-05
1.26893e-05
1.2481e-05
1.24741e-05
1.24173e-05
1.22849e-05
1.22224e-05
1.32452e-05
1.32451e-05
1.22798e-05
1.23793e-05
1.25043e-05
1.25203e-05
1.25734e-05
1.26415e-05
1.27548e-05
1.29343e-05
1.31092e-05
1.31522e-05
1.30564e-05
1.29137e-05
1.27881e-05
1.26898e-05
1.26085e-05
1.25349e-05
1.24638e-05
1.23928e-05
1.23206e-05
1.22466e-05
1.21701e-05
1.20908e-05
1.20082e-05
1.19219e-05
1.18317e-05
1.17371e-05
1.16379e-05
1.15336e-05
1.14239e-05
1.13084e-05
1.11867e-05
1.10585e-05
1.14272e-05
9.47759e-06
1.1085e-05
1.12086e-05
1.13253e-05
1.14355e-05
1.15395e-05
1.16377e-05
1.17303e-05
1.18177e-05
1.19003e-05
1.19784e-05
1.20522e-05
1.21222e-05
1.21885e-05
1.22516e-05
1.23117e-05
1.23692e-05
1.24243e-05
1.24773e-05
1.25285e-05
1.2578e-05
1.26257e-05
1.26717e-05
1.27156e-05
1.27572e-05
1.27967e-05
1.28344e-05
1.28715e-05
1.29095e-05
1.29529e-05
1.30575e-05
1.30901e-05
1.31217e-05
1.31515e-05
1.31778e-05
1.32023e-05
1.32293e-05
1.32633e-05
1.3307e-05
1.33538e-05
1.33721e-05
1.33001e-05
1.31188e-05
1.29775e-05
1.31934e-05
1.3755e-05
1.36088e-05
1.26366e-05
1.23869e-05
1.23638e-05
1.22842e-05
1.23011e-05
1.32975e-05
1.3219e-05
1.2313e-05
1.23408e-05
1.24533e-05
1.28243e-05
1.33784e-05
1.27107e-05
1.24963e-05
1.24833e-05
1.24272e-05
1.22947e-05
1.22361e-05
1.31796e-05
1.31876e-05
1.22857e-05
1.23774e-05
1.25054e-05
1.2522e-05
1.25776e-05
1.26492e-05
1.27645e-05
1.29354e-05
1.30915e-05
1.3127e-05
1.30398e-05
1.29077e-05
1.27873e-05
1.26902e-05
1.26086e-05
1.25344e-05
1.24628e-05
1.23914e-05
1.23189e-05
1.22446e-05
1.21678e-05
1.20882e-05
1.20054e-05
1.1919e-05
1.18285e-05
1.17337e-05
1.16343e-05
1.15298e-05
1.14198e-05
1.13041e-05
1.11822e-05
1.10539e-05
1.14218e-05
9.48087e-06
1.10876e-05
1.12111e-05
1.13278e-05
1.14379e-05
1.15419e-05
1.16399e-05
1.17325e-05
1.18199e-05
1.19024e-05
1.19804e-05
1.20542e-05
1.21241e-05
1.21904e-05
1.22535e-05
1.23135e-05
1.2371e-05
1.24261e-05
1.24791e-05
1.25302e-05
1.25796e-05
1.26273e-05
1.26732e-05
1.2717e-05
1.27587e-05
1.27981e-05
1.28359e-05
1.28731e-05
1.29111e-05
1.29546e-05
1.30588e-05
1.30912e-05
1.31223e-05
1.31517e-05
1.31778e-05
1.32022e-05
1.32289e-05
1.32622e-05
1.33042e-05
1.33483e-05
1.3366e-05
1.33011e-05
1.31349e-05
1.30181e-05
1.32588e-05
1.37533e-05
1.35603e-05
1.26508e-05
1.24069e-05
1.23762e-05
1.22942e-05
1.23253e-05
1.32577e-05
1.31643e-05
1.23201e-05
1.23511e-05
1.24729e-05
1.28461e-05
1.33523e-05
1.27317e-05
1.25109e-05
1.24911e-05
1.24354e-05
1.23031e-05
1.2247e-05
1.312e-05
1.31376e-05
1.22916e-05
1.23735e-05
1.25045e-05
1.25223e-05
1.25806e-05
1.26554e-05
1.27719e-05
1.29344e-05
1.30746e-05
1.31042e-05
1.30241e-05
1.29012e-05
1.27857e-05
1.26897e-05
1.2608e-05
1.25333e-05
1.24613e-05
1.23895e-05
1.23167e-05
1.22421e-05
1.21651e-05
1.20853e-05
1.20022e-05
1.19155e-05
1.18249e-05
1.17299e-05
1.16302e-05
1.15254e-05
1.14153e-05
1.12994e-05
1.11773e-05
1.10487e-05
1.14159e-05
9.48438e-06
1.10904e-05
1.12138e-05
1.13304e-05
1.14405e-05
1.15443e-05
1.16424e-05
1.17349e-05
1.18222e-05
1.19046e-05
1.19826e-05
1.20563e-05
1.21262e-05
1.21924e-05
1.22554e-05
1.23155e-05
1.23729e-05
1.24279e-05
1.24809e-05
1.25319e-05
1.25813e-05
1.2629e-05
1.26748e-05
1.27186e-05
1.27602e-05
1.27996e-05
1.28374e-05
1.28747e-05
1.29127e-05
1.29561e-05
1.306e-05
1.30921e-05
1.31228e-05
1.31518e-05
1.31775e-05
1.32017e-05
1.3228e-05
1.32605e-05
1.33008e-05
1.33427e-05
1.336e-05
1.33023e-05
1.31524e-05
1.30592e-05
1.33143e-05
1.37454e-05
1.35147e-05
1.26635e-05
1.24258e-05
1.23874e-05
1.23026e-05
1.23439e-05
1.32177e-05
1.31181e-05
1.23276e-05
1.23601e-05
1.24909e-05
1.28651e-05
1.33304e-05
1.27525e-05
1.25244e-05
1.24976e-05
1.24425e-05
1.23109e-05
1.22562e-05
1.30658e-05
1.30937e-05
1.22975e-05
1.23683e-05
1.25018e-05
1.25219e-05
1.25826e-05
1.26604e-05
1.27774e-05
1.29317e-05
1.30584e-05
1.30832e-05
1.30092e-05
1.28943e-05
1.27832e-05
1.26886e-05
1.26068e-05
1.25318e-05
1.24593e-05
1.23872e-05
1.23141e-05
1.22392e-05
1.2162e-05
1.20819e-05
1.19986e-05
1.19117e-05
1.18208e-05
1.17256e-05
1.16256e-05
1.15207e-05
1.14103e-05
1.12942e-05
1.11719e-05
1.10431e-05
1.14094e-05
9.48811e-06
1.10933e-05
1.12167e-05
1.13332e-05
1.14432e-05
1.1547e-05
1.16449e-05
1.17373e-05
1.18246e-05
1.1907e-05
1.19849e-05
1.20585e-05
1.21283e-05
1.21945e-05
1.22575e-05
1.23175e-05
1.23748e-05
1.24298e-05
1.24827e-05
1.25338e-05
1.25831e-05
1.26307e-05
1.26764e-05
1.27201e-05
1.27617e-05
1.28011e-05
1.2839e-05
1.28762e-05
1.29142e-05
1.29577e-05
1.30611e-05
1.30929e-05
1.31231e-05
1.31516e-05
1.3177e-05
1.32009e-05
1.32268e-05
1.32585e-05
1.32972e-05
1.3337e-05
1.33542e-05
1.33038e-05
1.31716e-05
1.3101e-05
1.33613e-05
1.37323e-05
1.34712e-05
1.26748e-05
1.24435e-05
1.23966e-05
1.23096e-05
1.23574e-05
1.31772e-05
1.30782e-05
1.23351e-05
1.23677e-05
1.25072e-05
1.28815e-05
1.33118e-05
1.27736e-05
1.25377e-05
1.25032e-05
1.24486e-05
1.23182e-05
1.22649e-05
1.30174e-05
1.30548e-05
1.23036e-05
1.23634e-05
1.24977e-05
1.25205e-05
1.25838e-05
1.26644e-05
1.27813e-05
1.29278e-05
1.30428e-05
1.30637e-05
1.2995e-05
1.28871e-05
1.27802e-05
1.26869e-05
1.26052e-05
1.25298e-05
1.2457e-05
1.23846e-05
1.23112e-05
1.2236e-05
1.21585e-05
1.20782e-05
1.19946e-05
1.19075e-05
1.18163e-05
1.17209e-05
1.16207e-05
1.15155e-05
1.14049e-05
1.12885e-05
1.11661e-05
1.10371e-05
1.14026e-05
9.49203e-06
1.10963e-05
1.12197e-05
1.13361e-05
1.1446e-05
1.15497e-05
1.16476e-05
1.174e-05
1.18271e-05
1.19095e-05
1.19873e-05
1.20609e-05
1.21306e-05
1.21968e-05
1.22597e-05
1.23196e-05
1.23769e-05
1.24318e-05
1.24847e-05
1.25357e-05
1.25849e-05
1.26324e-05
1.26781e-05
1.27218e-05
1.27632e-05
1.28026e-05
1.28405e-05
1.28777e-05
1.29158e-05
1.29591e-05
1.30621e-05
1.30936e-05
1.31233e-05
1.31513e-05
1.31763e-05
1.31998e-05
1.32253e-05
1.32561e-05
1.32934e-05
1.33314e-05
1.33488e-05
1.33059e-05
1.31923e-05
1.31434e-05
1.34014e-05
1.37155e-05
1.343e-05
1.26848e-05
1.24602e-05
1.24049e-05
1.23157e-05
1.23667e-05
1.31369e-05
1.30429e-05
1.23426e-05
1.23738e-05
1.25219e-05
1.2896e-05
1.32959e-05
1.27944e-05
1.25507e-05
1.25082e-05
1.24539e-05
1.23253e-05
1.22735e-05
1.29752e-05
1.30206e-05
1.23095e-05
1.2358e-05
1.24933e-05
1.25188e-05
1.25844e-05
1.26675e-05
1.27838e-05
1.29229e-05
1.30278e-05
1.30455e-05
1.29813e-05
1.28796e-05
1.27765e-05
1.26847e-05
1.26031e-05
1.25275e-05
1.24543e-05
1.23816e-05
1.23079e-05
1.22324e-05
1.21547e-05
1.20741e-05
1.19903e-05
1.19029e-05
1.18115e-05
1.17158e-05
1.16154e-05
1.15099e-05
1.13991e-05
1.12825e-05
1.11598e-05
1.10307e-05
1.13953e-05
9.49615e-06
1.10996e-05
1.12228e-05
1.13392e-05
1.1449e-05
1.15526e-05
1.16504e-05
1.17427e-05
1.18298e-05
1.19121e-05
1.19898e-05
1.20633e-05
1.2133e-05
1.21991e-05
1.22619e-05
1.23218e-05
1.2379e-05
1.24339e-05
1.24867e-05
1.25376e-05
1.25868e-05
1.26342e-05
1.26798e-05
1.27234e-05
1.27648e-05
1.28042e-05
1.2842e-05
1.28792e-05
1.29172e-05
1.29605e-05
1.3063e-05
1.30941e-05
1.31234e-05
1.31508e-05
1.31754e-05
1.31985e-05
1.32235e-05
1.32535e-05
1.32894e-05
1.33259e-05
1.33437e-05
1.33085e-05
1.3214e-05
1.31861e-05
1.34366e-05
1.36967e-05
1.33918e-05
1.26941e-05
1.24753e-05
1.24123e-05
1.23215e-05
1.23734e-05
1.30979e-05
1.30109e-05
1.23501e-05
1.23787e-05
1.25353e-05
1.29094e-05
1.32825e-05
1.28148e-05
1.25635e-05
1.25126e-05
1.24584e-05
1.23318e-05
1.22823e-05
1.29388e-05
1.29909e-05
1.23166e-05
1.23532e-05
1.24888e-05
1.25168e-05
1.25847e-05
1.26699e-05
1.27851e-05
1.29172e-05
1.30134e-05
1.30285e-05
1.29682e-05
1.28719e-05
1.27724e-05
1.26819e-05
1.26006e-05
1.25248e-05
1.24513e-05
1.23782e-05
1.23042e-05
1.22285e-05
1.21505e-05
1.20697e-05
1.19856e-05
1.18979e-05
1.18063e-05
1.17103e-05
1.16096e-05
1.15039e-05
1.13928e-05
1.1276e-05
1.11531e-05
1.10239e-05
1.13875e-05
9.50045e-06
1.11029e-05
1.12261e-05
1.13424e-05
1.14521e-05
1.15557e-05
1.16534e-05
1.17456e-05
1.18326e-05
1.19148e-05
1.19924e-05
1.20659e-05
1.21354e-05
1.22015e-05
1.22642e-05
1.23241e-05
1.23812e-05
1.24361e-05
1.24888e-05
1.25396e-05
1.25887e-05
1.26361e-05
1.26816e-05
1.27251e-05
1.27664e-05
1.28057e-05
1.28435e-05
1.28807e-05
1.29187e-05
1.29618e-05
1.30638e-05
1.30946e-05
1.31233e-05
1.31502e-05
1.31743e-05
1.3197e-05
1.32215e-05
1.32507e-05
1.32853e-05
1.33206e-05
1.3339e-05
1.33114e-05
1.32362e-05
1.32286e-05
1.3468e-05
1.36775e-05
1.33578e-05
1.27037e-05
1.24896e-05
1.24192e-05
1.2327e-05
1.23787e-05
1.30617e-05
1.29812e-05
1.23573e-05
1.2383e-05
1.2548e-05
1.29223e-05
1.32714e-05
1.28347e-05
1.25761e-05
1.25165e-05
1.24618e-05
1.23375e-05
1.22908e-05
1.29073e-05
1.29653e-05
1.23242e-05
1.23493e-05
1.24847e-05
1.25149e-05
1.25847e-05
1.26716e-05
1.27854e-05
1.29109e-05
1.29994e-05
1.30123e-05
1.29556e-05
1.28642e-05
1.27678e-05
1.26787e-05
1.25977e-05
1.25217e-05
1.2448e-05
1.23746e-05
1.23003e-05
1.22243e-05
1.2146e-05
1.20649e-05
1.19806e-05
1.18927e-05
1.18007e-05
1.17045e-05
1.16036e-05
1.14976e-05
1.13863e-05
1.12692e-05
1.11461e-05
1.10166e-05
1.13793e-05
9.50494e-06
1.11064e-05
1.12295e-05
1.13457e-05
1.14554e-05
1.15588e-05
1.16564e-05
1.17485e-05
1.18355e-05
1.19175e-05
1.19951e-05
1.20685e-05
1.2138e-05
1.22039e-05
1.22666e-05
1.23264e-05
1.23835e-05
1.24383e-05
1.24909e-05
1.25417e-05
1.25907e-05
1.2638e-05
1.26834e-05
1.27267e-05
1.2768e-05
1.28072e-05
1.28449e-05
1.28821e-05
1.292e-05
1.2963e-05
1.30646e-05
1.30949e-05
1.31231e-05
1.31495e-05
1.31731e-05
1.31953e-05
1.32193e-05
1.32477e-05
1.32812e-05
1.33153e-05
1.33345e-05
1.33144e-05
1.32583e-05
1.32705e-05
1.34966e-05
1.36586e-05
1.33284e-05
1.27142e-05
1.25039e-05
1.24266e-05
1.2333e-05
1.23841e-05
1.30292e-05
1.29533e-05
1.23641e-05
1.23871e-05
1.25607e-05
1.29355e-05
1.32628e-05
1.28544e-05
1.25888e-05
1.25198e-05
1.24642e-05
1.23422e-05
1.22987e-05
1.28795e-05
1.29436e-05
1.23323e-05
1.23463e-05
1.2481e-05
1.25129e-05
1.25845e-05
1.26727e-05
1.27848e-05
1.29041e-05
1.29859e-05
1.2997e-05
1.29434e-05
1.28563e-05
1.27629e-05
1.26752e-05
1.25944e-05
1.25183e-05
1.24444e-05
1.23707e-05
1.22961e-05
1.22198e-05
1.21413e-05
1.20599e-05
1.19753e-05
1.18871e-05
1.17949e-05
1.16984e-05
1.15972e-05
1.14909e-05
1.13793e-05
1.1262e-05
1.11387e-05
1.1009e-05
1.13706e-05
9.50959e-06
1.11101e-05
1.1233e-05
1.13491e-05
1.14587e-05
1.15621e-05
1.16596e-05
1.17516e-05
1.18384e-05
1.19204e-05
1.19979e-05
1.20712e-05
1.21406e-05
1.22065e-05
1.22691e-05
1.23288e-05
1.23858e-05
1.24405e-05
1.24931e-05
1.25438e-05
1.25927e-05
1.26399e-05
1.26851e-05
1.27284e-05
1.27696e-05
1.28087e-05
1.28464e-05
1.28835e-05
1.29213e-05
1.29642e-05
1.30652e-05
1.30951e-05
1.31228e-05
1.31486e-05
1.31717e-05
1.31936e-05
1.3217e-05
1.32447e-05
1.32771e-05
1.33101e-05
1.33301e-05
1.33174e-05
1.32799e-05
1.33109e-05
1.35223e-05
1.36405e-05
1.33032e-05
1.27262e-05
1.25185e-05
1.24347e-05
1.23397e-05
1.23905e-05
1.30012e-05
1.29268e-05
1.23703e-05
1.23914e-05
1.25737e-05
1.29493e-05
1.32565e-05
1.2874e-05
1.26017e-05
1.25228e-05
1.24656e-05
1.23458e-05
1.23053e-05
1.28542e-05
1.29254e-05
1.23411e-05
1.2344e-05
1.24778e-05
1.25111e-05
1.25842e-05
1.26733e-05
1.27835e-05
1.2897e-05
1.29729e-05
1.29824e-05
1.29315e-05
1.28484e-05
1.27578e-05
1.26713e-05
1.25909e-05
1.25147e-05
1.24405e-05
1.23665e-05
1.22917e-05
1.22151e-05
1.21362e-05
1.20546e-05
1.19697e-05
1.18812e-05
1.17887e-05
1.16919e-05
1.15904e-05
1.14839e-05
1.13721e-05
1.12545e-05
1.1131e-05
1.10011e-05
1.13615e-05
9.51441e-06
1.11138e-05
1.12367e-05
1.13527e-05
1.14622e-05
1.15655e-05
1.16629e-05
1.17548e-05
1.18415e-05
1.19234e-05
1.20008e-05
1.2074e-05
1.21433e-05
1.22091e-05
1.22717e-05
1.23313e-05
1.23882e-05
1.24428e-05
1.24953e-05
1.25459e-05
1.25947e-05
1.26418e-05
1.2687e-05
1.27301e-05
1.27711e-05
1.28102e-05
1.28478e-05
1.28849e-05
1.29226e-05
1.29653e-05
1.30658e-05
1.30953e-05
1.31224e-05
1.31477e-05
1.31703e-05
1.31916e-05
1.32146e-05
1.32415e-05
1.32729e-05
1.33049e-05
1.33258e-05
1.33203e-05
1.33005e-05
1.33493e-05
1.35453e-05
1.36243e-05
1.32827e-05
1.27399e-05
1.25337e-05
1.24437e-05
1.23477e-05
1.2399e-05
1.29779e-05
1.29016e-05
1.23756e-05
1.23962e-05
1.25874e-05
1.29638e-05
1.32525e-05
1.28939e-05
1.26152e-05
1.25258e-05
1.24662e-05
1.23485e-05
1.23102e-05
1.283e-05
1.29103e-05
1.23505e-05
1.23422e-05
1.24749e-05
1.25093e-05
1.25838e-05
1.26734e-05
1.27814e-05
1.28895e-05
1.29602e-05
1.29684e-05
1.29201e-05
1.28404e-05
1.27524e-05
1.26671e-05
1.25871e-05
1.25108e-05
1.24363e-05
1.23621e-05
1.22869e-05
1.22101e-05
1.21309e-05
1.2049e-05
1.19638e-05
1.1875e-05
1.17822e-05
1.16851e-05
1.15833e-05
1.14765e-05
1.13644e-05
1.12467e-05
1.11229e-05
1.09928e-05
1.1352e-05
9.51938e-06
1.11177e-05
1.12405e-05
1.13564e-05
1.14657e-05
1.15689e-05
1.16662e-05
1.17581e-05
1.18447e-05
1.19265e-05
1.20038e-05
1.20769e-05
1.21461e-05
1.22118e-05
1.22743e-05
1.23338e-05
1.23907e-05
1.24452e-05
1.24976e-05
1.25481e-05
1.25968e-05
1.26437e-05
1.26888e-05
1.27318e-05
1.27727e-05
1.28117e-05
1.28492e-05
1.28862e-05
1.29238e-05
1.29664e-05
1.30663e-05
1.30954e-05
1.3122e-05
1.31466e-05
1.31687e-05
1.31897e-05
1.32121e-05
1.32383e-05
1.32687e-05
1.32998e-05
1.33215e-05
1.33228e-05
1.33198e-05
1.33845e-05
1.35649e-05
1.36092e-05
1.32665e-05
1.2755e-05
1.25493e-05
1.24533e-05
1.2356e-05
1.24096e-05
1.2959e-05
1.28778e-05
1.23801e-05
1.24016e-05
1.2602e-05
1.2979e-05
1.32507e-05
1.29142e-05
1.26296e-05
1.25291e-05
1.24664e-05
1.23502e-05
1.23131e-05
1.2806e-05
1.28975e-05
1.23606e-05
1.23405e-05
1.2472e-05
1.25073e-05
1.2583e-05
1.26729e-05
1.27786e-05
1.28817e-05
1.29478e-05
1.29549e-05
1.29089e-05
1.28325e-05
1.27468e-05
1.26627e-05
1.2583e-05
1.25066e-05
1.2432e-05
1.23574e-05
1.2282e-05
1.22048e-05
1.21254e-05
1.20431e-05
1.19577e-05
1.18686e-05
1.17755e-05
1.16781e-05
1.1576e-05
1.14689e-05
1.13565e-05
1.12385e-05
1.11145e-05
1.09841e-05
1.13421e-05
9.52451e-06
1.11217e-05
1.12444e-05
1.13602e-05
1.14694e-05
1.15725e-05
1.16697e-05
1.17614e-05
1.18479e-05
1.19296e-05
1.20068e-05
1.20798e-05
1.2149e-05
1.22146e-05
1.22769e-05
1.23364e-05
1.23932e-05
1.24476e-05
1.24999e-05
1.25503e-05
1.25989e-05
1.26457e-05
1.26906e-05
1.27335e-05
1.27743e-05
1.28132e-05
1.28506e-05
1.28875e-05
1.2925e-05
1.29674e-05
1.30667e-05
1.30954e-05
1.31215e-05
1.31456e-05
1.31672e-05
1.31876e-05
1.32095e-05
1.3235e-05
1.32644e-05
1.32946e-05
1.33172e-05
1.33251e-05
1.33373e-05
1.34159e-05
1.35807e-05
1.35951e-05
1.3254e-05
1.2771e-05
1.25652e-05
1.24631e-05
1.23646e-05
1.24219e-05
1.29439e-05
1.28553e-05
1.23837e-05
1.24076e-05
1.26172e-05
1.29945e-05
1.32507e-05
1.29352e-05
1.26451e-05
1.2533e-05
1.24664e-05
1.23515e-05
1.2314e-05
1.27813e-05
1.28863e-05
1.23715e-05
1.23387e-05
1.24688e-05
1.25051e-05
1.25819e-05
1.26718e-05
1.27752e-05
1.28737e-05
1.29357e-05
1.29419e-05
1.2898e-05
1.28245e-05
1.2741e-05
1.2658e-05
1.25786e-05
1.25023e-05
1.24274e-05
1.23526e-05
1.22768e-05
1.21994e-05
1.21196e-05
1.20371e-05
1.19513e-05
1.18618e-05
1.17685e-05
1.16707e-05
1.15683e-05
1.14609e-05
1.13482e-05
1.12299e-05
1.11057e-05
1.0975e-05
1.13318e-05
9.52979e-06
1.11258e-05
1.12484e-05
1.13641e-05
1.14732e-05
1.15762e-05
1.16733e-05
1.17649e-05
1.18513e-05
1.19329e-05
1.201e-05
1.20829e-05
1.21519e-05
1.22174e-05
1.22797e-05
1.2339e-05
1.23957e-05
1.245e-05
1.25023e-05
1.25526e-05
1.2601e-05
1.26477e-05
1.26925e-05
1.27353e-05
1.27759e-05
1.28146e-05
1.2852e-05
1.28888e-05
1.29262e-05
1.29684e-05
1.30671e-05
1.30954e-05
1.31209e-05
1.31445e-05
1.31656e-05
1.31856e-05
1.32069e-05
1.32317e-05
1.32601e-05
1.32895e-05
1.3313e-05
1.3327e-05
1.3353e-05
1.34427e-05
1.35922e-05
1.35814e-05
1.32446e-05
1.27875e-05
1.25808e-05
1.24727e-05
1.23732e-05
1.24353e-05
1.29314e-05
1.28342e-05
1.23867e-05
1.2414e-05
1.26328e-05
1.30098e-05
1.3252e-05
1.29567e-05
1.26619e-05
1.25378e-05