/*--------------------------------*- C++ -*----------------------------------*\
  =========                 |
  \\      /  F ield         | OpenFOAM: The Open Source CFD Toolbox
   \\    /   O peration     | Website:  https://openfoam.org
    \\  /    A nd           | Version:  9
     \\/     M anipulation  |
\*---------------------------------------------------------------------------*/
FoamFile
{
    format      ascii;
    class       volVectorField;
    location    "0.12";
    object      U;
}
// * * * * * * * * * * * * * * * * * * * * * * * * * * * * * * * * * * * * * //

dimensions      [0 1 -1 0 0 0 0];

internalField   nonuniform List<vector> 
20000
(
(-2.35102e-05 0 0.000480502)
(-2.07464e-05 0 0.000851774)
(-2.06744e-05 0 0.00102394)
(-2.0154e-05 0 0.00110887)
(-1.91286e-05 0 0.00105229)
(-1.79245e-05 0 0.000798858)
(-1.65923e-05 0 0.000299658)
(-1.5055e-05 0 -0.000491957)
(-1.3168e-05 0 -0.00162298)
(-1.07268e-05 0 -0.00314211)
(-7.51008e-06 0 -0.00510012)
(-3.23992e-06 0 -0.00755111)
(2.38315e-06 0 -0.010555)
(9.84342e-06 0 -0.0141808)
(1.96413e-05 0 -0.0185094)
(3.23113e-05 0 -0.0236369)
(4.85047e-05 0 -0.0296745)
(6.87691e-05 0 -0.0367426)
(9.33875e-05 0 -0.0449552)
(0.000121904 0 -0.0543857)
(0.000152647 0 -0.0650102)
(0.000182396 0 -0.0766353)
(0.000206914 0 -0.0888418)
(0.000223089 0 -0.101013)
(0.000232502 0 -0.112524)
(0.000244239 0 -0.123083)
(0.00027435 0 -0.133099)
(0.000341989 0 -0.143835)
(0.000465164 0 -0.157269)
(0.000656626 0 -0.175715)
(0.000927165 0 -0.203491)
(0.00122898 0 -0.241298)
(0.00143165 0 -0.282891)
(0.00144239 0 -0.321378)
(0.00135852 0 -0.35124)
(0.00146656 0 -0.374094)
(0.00207611 0 -0.398573)
(0.00346896 0 -0.43749)
(0.0055103 0 -0.51054)
(0.0044423 0 -0.627144)
(-0.00596357 0 -0.654125)
(-0.00810289 0 -0.366944)
(0.0064628 0 0.0800332)
(0.0318484 0 0.472457)
(0.0571175 0 0.771988)
(0.234667 0 -2.0331)
(-0.217398 0 -2.33357)
(-0.045473 0 0.906961)
(-0.0143437 0 0.877309)
(0.00586484 0 0.874584)
(0.0220592 0 1.0391)
(0.0392939 0 1.20633)
(0.118104 0 -1.88383)
(-0.12468 0 -1.82503)
(-0.0390338 0 1.21601)
(-0.0187169 0 1.07751)
(-0.0129421 0 1.00934)
(0.0325726 0 0.632559)
(-2.85264e-05 0 -1.73304)
(-0.0409524 0 0.630667)
(-0.00128959 0 0.830097)
(0.000389153 0 0.73983)
(0.0120908 0 0.825122)
(0.0268486 0 1.02816)
(0.040906 0 1.25747)
(0.101084 0 -1.86947)
(-0.147125 0 -1.79761)
(-0.0370232 0 1.22912)
(-0.0300219 0 0.974236)
(-0.0163739 0 0.722659)
(-0.00980737 0 0.559658)
(-0.00540674 0 0.444536)
(-0.000635749 0 0.356053)
(0.00849656 0 0.272015)
(0.0334997 0 0.048608)
(0.11226 0 -0.915555)
(-0.0302772 0 -1.96456)
(-0.108704 0 -0.591773)
(-0.0374962 0 -0.127234)
(-0.0154813 0 -0.0752048)
(-0.00724979 0 -0.0881704)
(-0.00362456 0 -0.100786)
(-0.00205241 0 -0.105723)
(-0.00130631 0 -0.104417)
(-0.000913629 0 -0.0992266)
(-0.000682318 0 -0.0919424)
(-0.000530562 0 -0.0837027)
(-0.000421894 0 -0.0751803)
(-0.000339067 0 -0.0667598)
(-0.000273305 0 -0.0586566)
(-0.000219764 0 -0.0509877)
(-0.000175525 0 -0.0438126)
(-0.000138657 0 -0.0371568)
(-0.000107763 0 -0.0310262)
(-8.18061e-05 0 -0.0254145)
(-6.01811e-05 0 -0.0202971)
(-4.28654e-05 0 -0.0156058)
(-3.04252e-05 0 -0.0112054)
(-2.03954e-05 0 -0.00692986)
(-3.25685e-06 0 -0.00266164)
(-0.000147713 0 0.000455738)
(-0.000141703 0 0.000844501)
(-0.000143266 0 0.00101578)
(-0.000142001 0 0.00109666)
(-0.000138678 0 0.00103782)
(-0.00013469 0 0.000783318)
(-0.00012985 0 0.000283328)
(-0.000123862 0 -0.0005093)
(-0.000116624 0 -0.00164179)
(-0.000107761 0 -0.00316284)
(-9.6533e-05 0 -0.00512325)
(-8.21896e-05 0 -0.00757727)
(-6.38771e-05 0 -0.010585)
(-4.04919e-05 0 -0.0142154)
(-1.07825e-05 0 -0.0185496)
(2.66512e-05 0 -0.0236836)
(7.33441e-05 0 -0.0297285)
(0.000130561 0 -0.0368044)
(0.000198724 0 -0.0450244)
(0.000276666 0 -0.0544605)
(0.000360663 0 -0.0650874)
(0.000443869 0 -0.0767108)
(0.000517729 0 -0.0889132)
(0.000576691 0 -0.101084)
(0.000625842 0 -0.112605)
(0.00068711 0 -0.123194)
(0.000798411 0 -0.13326)
(0.00100494 0 -0.144063)
(0.00134798 0 -0.157572)
(0.00185289 0 -0.176092)
(0.00254707 0 -0.203916)
(0.00331166 0 -0.241722)
(0.0038426 0 -0.283229)
(0.00395912 0 -0.321645)
(0.00390618 0 -0.351638)
(0.00432364 0 -0.374897)
(0.00581978 0 -0.400013)
(0.00869055 0 -0.439676)
(0.0122461 0 -0.512336)
(0.009986 0 -0.623255)
(-0.00951816 0 -0.647302)
(-0.0120186 0 -0.374899)
(0.0212346 0 0.0621857)
(0.0837601 0 0.443926)
(0.132444 0 0.683733)
(0.359105 0 -1.84953)
(-0.308708 0 -2.13656)
(-0.11881 0 0.807845)
(-0.0340124 0 0.854075)
(0.016964 0 0.857391)
(0.0617759 0 1.02045)
(0.0962107 0 1.15589)
(0.203688 0 -1.75528)
(-0.2745 0 -1.71549)
(-0.0960866 0 1.15315)
(-0.0537333 0 1.0604)
(-0.0369591 0 0.997528)
(0.0776775 0 0.588925)
(-0.00233339 0 -1.60466)
(-0.10331 0 0.584344)
(-0.00541745 0 0.822985)
(0.00126649 0 0.730056)
(0.033871 0 0.813526)
(0.0768891 0 1.0094)
(0.102851 0 1.21258)
(0.236722 0 -1.71312)
(-0.291922 0 -1.70387)
(-0.098568 0 1.17277)
(-0.086267 0 0.960245)
(-0.0452811 0 0.713966)
(-0.0277265 0 0.553574)
(-0.0144286 0 0.439227)
(0.000177206 0 0.348148)
(0.0216497 0 0.252468)
(0.0669201 0 -0.00599604)
(0.178598 0 -0.914897)
(-0.0418062 0 -1.68451)
(-0.18492 0 -0.65517)
(-0.0797098 0 -0.181516)
(-0.0443363 0 -0.0992158)
(-0.025776 0 -0.0989906)
(-0.0150079 0 -0.105955)
(-0.0093228 0 -0.108366)
(-0.00614443 0 -0.105893)
(-0.00426211 0 -0.100141)
(-0.00308326 0 -0.0925713)
(-0.00230208 0 -0.0841757)
(-0.00175736 0 -0.0755603)
(-0.00136099 0 -0.0670791)
(-0.00106267 0 -0.0589325)
(-0.000832396 0 -0.0512303)
(-0.000651496 0 -0.044028)
(-0.000507803 0 -0.037349)
(-0.000393019 0 -0.0311982)
(-0.000301383 0 -0.025568)
(-0.000229359 0 -0.0204311)
(-0.000175999 0 -0.0157165)
(-0.00014134 0 -0.0112915)
(-0.000120398 0 -0.00701492)
(-9.64358e-05 0 -0.00278632)
(-0.000357219 0 0.000454966)
(-0.000352088 0 0.000847569)
(-0.000356116 0 0.00101487)
(-0.000354423 0 0.00109068)
(-0.000349759 0 0.00102822)
(-0.000343822 0 0.000770665)
(-0.000336286 0 0.000267411)
(-0.000326719 0 -0.000529161)
(-0.000314553 0 -0.00166666)
(-0.000299184 0 -0.00319379)
(-0.000279732 0 -0.00516148)
(-0.000255201 0 -0.00762417)
(-0.00022432 0 -0.0106422)
(-0.000185517 0 -0.0142846)
(-0.000136958 0 -0.0186327)
(-7.66458e-05 0 -0.0237825)
(-2.5115e-06 0 -0.0298444)
(8.73687e-05 0 -0.0369374)
(0.000193613 0 -0.0451724)
(0.000314619 0 -0.054618)
(0.000445638 0 -0.0652447)
(0.000577934 0 -0.0768551)
(0.000700779 0 -0.0890336)
(0.00080765 0 -0.10118)
(0.000906207 0 -0.112694)
(0.00102664 0 -0.123314)
(0.0012209 0 -0.13346)
(0.00155097 0 -0.144386)
(0.00207249 0 -0.158047)
(0.00281683 0 -0.176709)
(0.00382251 0 -0.204598)
(0.00491964 0 -0.242313)
(0.00569325 0 -0.283522)
(0.00592327 0 -0.321647)
(0.00594542 0 -0.351738)
(0.00657628 0 -0.375645)
(0.00852574 0 -0.40179)
(0.0119401 0 -0.442263)
(0.0156577 0 -0.512989)
(0.0127 0 -0.614505)
(-0.00946865 0 -0.635561)
(-0.0112921 0 -0.38905)
(0.029876 0 0.0266491)
(0.109905 0 0.389012)
(0.186387 0 0.565891)
(0.347178 0 -1.66742)
(-0.287858 0 -1.94967)
(-0.135356 0 0.670978)
(-0.0272062 0 0.805613)
(0.0308962 0 0.821597)
(0.0944503 0 0.980922)
(0.14293 0 1.09388)
(0.235973 0 -1.58158)
(-0.321201 0 -1.595)
(-0.133827 0 1.0707)
(-0.0767337 0 1.01913)
(-0.0567259 0 0.96393)
(0.108111 0 0.526193)
(-0.00498516 0 -1.45579)
(-0.148058 0 0.53665)
(-0.00811561 0 0.79849)
(0.0018609 0 0.705951)
(0.0506673 0 0.789133)
(0.114394 0 0.969826)
(0.14937 0 1.14544)
(0.302183 0 -1.53479)
(-0.323312 0 -1.56661)
(-0.151768 0 1.10487)
(-0.12816 0 0.924397)
(-0.0665841 0 0.693164)
(-0.0430706 0 0.537678)
(-0.0229538 0 0.424441)
(-0.00241444 0 0.327989)
(0.0245639 0 0.212908)
(0.0752067 0 -0.082556)
(0.167354 0 -0.888807)
(-0.0430089 0 -1.39941)
(-0.186129 0 -0.693304)
(-0.091915 0 -0.255219)
(-0.0584689 0 -0.142567)
(-0.036867 0 -0.12265)
(-0.0234937 0 -0.119361)
(-0.0157404 0 -0.116276)
(-0.0109101 0 -0.110775)
(-0.00779759 0 -0.103311)
(-0.00572588 0 -0.0947385)
(-0.00429564 0 -0.0857296)
(-0.00327424 0 -0.0767214)
(-0.00252297 0 -0.0679764)
(-0.00195672 0 -0.0596444)
(-0.00152175 0 -0.0518057)
(-0.00118321 0 -0.0444988)
(-0.000917736 0 -0.0377364)
(-0.000709218 0 -0.0315167)
(-0.000546417 0 -0.0258263)
(-0.000422088 0 -0.0206315)
(-0.000333273 0 -0.0158547)
(-0.000278174 0 -0.0113648)
(-0.000248183 0 -0.00704333)
(-0.000238801 0 -0.00281782)
(-0.000652494 0 0.000459415)
(-0.000645681 0 0.000851215)
(-0.000649922 0 0.0010131)
(-0.000646935 0 0.00108391)
(-0.000640461 0 0.0010177)
(-0.00063221 0 0.000756907)
(-0.000621638 0 0.000250268)
(-0.000608339 0 -0.000550215)
(-0.000591504 0 -0.0016925)
(-0.000570176 0 -0.00322559)
(-0.00054335 0 -0.00520064)
(-0.000509735 0 -0.00767233)
(-0.000467724 0 -0.0107012)
(-0.000415394 0 -0.0143565)
(-0.000350513 0 -0.0187196)
(-0.000270667 0 -0.0238863)
(-0.000173408 0 -0.0299662)
(-5.66797e-05 0 -0.0370768)
(8.02095e-05 0 -0.0453264)
(0.00023548 0 -0.0547795)
(0.000403659 0 -0.065402)
(0.000575132 0 -0.076994)
(0.000738557 0 -0.089143)
(0.000887951 0 -0.101261)
(0.00103378 0 -0.112772)
(0.00121208 0 -0.123434)
(0.00148331 0 -0.13368)
(0.00191872 0 -0.144758)
(0.00258036 0 -0.158596)
(0.00349904 0 -0.177412)
(0.0047161 0 -0.205344)
(0.00602057 0 -0.242897)
(0.00692603 0 -0.283716)
(0.00719954 0 -0.321489)
(0.00723008 0 -0.351691)
(0.00790475 0 -0.376309)
(0.00994209 0 -0.403472)
(0.0133289 0 -0.44443)
(0.0164461 0 -0.512444)
(0.0125772 0 -0.604632)
(-0.0102836 0 -0.62412)
(-0.0123363 0 -0.405839)
(0.0303306 0 -0.0165326)
(0.113715 0 0.327717)
(0.212585 0 0.457748)
(0.328136 0 -1.50164)
(-0.221534 0 -1.79512)
(-0.117419 0 0.552867)
(0.00190094 0 0.756505)
(0.0466666 0 0.778176)
(0.119633 0 0.931286)
(0.179188 0 1.03607)
(0.253827 0 -1.40863)
(-0.304858 0 -1.47703)
(-0.155362 0 0.988215)
(-0.0838317 0 0.971221)
(-0.0708571 0 0.915805)
(0.121218 0 0.465386)
(-0.00811132 0 -1.31283)
(-0.169941 0 0.489244)
(-0.00531502 0 0.761525)
(0.00229526 0 0.673304)
(0.0617499 0 0.755849)
(0.13523 0 0.921459)
(0.176236 0 1.07484)
(0.315471 0 -1.37805)
(-0.306721 0 -1.41163)
(-0.187476 0 1.0387)
(-0.148622 0 0.88216)
(-0.0796434 0 0.665349)
(-0.0548756 0 0.516042)
(-0.0306985 0 0.404517)
(-0.00786811 0 0.303021)
(0.0210185 0 0.170486)
(0.072091 0 -0.147276)
(0.131797 0 -0.838946)
(-0.0410809 0 -1.18604)
(-0.15706 0 -0.696326)
(-0.0895811 0 -0.314249)
(-0.0607351 0 -0.183948)
(-0.0398476 0 -0.148099)
(-0.0269962 0 -0.135455)
(-0.0191044 0 -0.126724)
(-0.0138299 0 -0.117765)
(-0.010223 0 -0.108154)
(-0.00768869 0 -0.0982158)
(-0.00585755 0 -0.0883114)
(-0.00450257 0 -0.078696)
(-0.00347936 0 -0.0695249)
(-0.00269367 0 -0.060883)
(-0.00208265 0 -0.052811)
(-0.00160344 0 -0.0453222)
(-0.00122614 0 -0.0384132)
(-0.000929406 0 -0.0320712)
(-0.000697934 0 -0.026274)
(-0.000521296 0 -0.020979)
(-0.000394042 0 -0.0161017)
(-0.000311369 0 -0.0115129)
(-0.00025861 0 -0.00711192)
(-0.000245264 0 -0.0028402)
(-0.00103942 0 0.00046027)
(-0.00102927 0 0.000848305)
(-0.00103263 0 0.00100319)
(-0.00102766 0 0.00106725)
(-0.00101856 0 0.000995324)
(-0.00100733 0 0.00072934)
(-0.000993246 0 0.00021729)
(-0.000975824 0 -0.000589389)
(-0.000954235 0 -0.00173895)
(-0.000927364 0 -0.00328074)
(-0.000893984 0 -0.00526615)
(-0.00085251 0 -0.00775007)
(-0.000801072 0 -0.0107932)
(-0.000737486 0 -0.0144652)
(-0.000659261 0 -0.0188472)
(-0.000563738 0 -0.0240346)
(-0.000448318 0 -0.0301364)
(-0.000310984 0 -0.0372684)
(-0.000151178 0 -0.0455358)
(2.90557e-05 0 -0.0549994)
(0.000223855 0 -0.0656208)
(0.000423424 0 -0.0771983)
(0.000616877 0 -0.0893238)
(0.000799781 0 -0.101424)
(0.000985466 0 -0.112943)
(0.00121386 0 -0.123663)
(0.00154961 0 -0.134025)
(0.0020672 0 -0.145271)
(0.00282856 0 -0.1593)
(0.00385848 0 -0.178274)
(0.0051925 0 -0.206245)
(0.00658514 0 -0.243626)
(0.00750923 0 -0.284056)
(0.00773545 0 -0.321498)
(0.00767633 0 -0.351823)
(0.00821578 0 -0.377109)
(0.0100086 0 -0.405139)
(0.012872 0 -0.446309)
(0.0148228 0 -0.511563)
(0.00979397 0 -0.595654)
(-0.0127807 0 -0.614301)
(-0.0158312 0 -0.42125)
(0.0250873 0 -0.0588593)
(0.103657 0 0.271249)
(0.213281 0 0.365708)
(0.316367 0 -1.34855)
(-0.136681 0 -1.65256)
(-0.0807202 0 0.464697)
(0.0400001 0 0.71655)
(0.061154 0 0.737068)
(0.136132 0 0.88157)
(0.202082 0 0.983353)
(0.262338 0 -1.24495)
(-0.259473 0 -1.34456)
(-0.16355 0 0.919122)
(-0.0793309 0 0.92801)
(-0.0801425 0 0.86358)
(0.121394 0 0.412795)
(-0.00992818 0 -1.17243)
(-0.173151 0 0.447145)
(0.00258742 0 0.719357)
(0.0030487 0 0.639412)
(0.0683851 0 0.719052)
(0.141471 0 0.87489)
(0.185448 0 1.01283)
(0.301209 0 -1.22544)
(-0.273429 0 -1.24399)
(-0.203101 0 0.984498)
(-0.150833 0 0.842889)
(-0.0862443 0 0.63565)
(-0.0622879 0 0.492945)
(-0.0362108 0 0.38357)
(-0.0129146 0 0.278461)
(0.0162702 0 0.132845)
(0.0649029 0 -0.193028)
(0.0978933 0 -0.783255)
(-0.0357451 0 -1.03679)
(-0.123685 0 -0.680889)
(-0.0821324 0 -0.352692)
(-0.0581015 0 -0.215561)
(-0.0392767 0 -0.16919)
(-0.0276964 0 -0.149742)
(-0.0202352 0 -0.136674)
(-0.0150581 0 -0.124898)
(-0.0113929 0 -0.113413)
(-0.00871947 0 -0.102195)
(-0.00671903 0 -0.0913932)
(-0.00519293 0 -0.0811321)
(-0.00401062 0 -0.0714835)
(-0.0030837 0 -0.0624789)
(-0.00235089 0 -0.0541238)
(-0.00176872 0 -0.0464078)
(-0.00130569 0 -0.0393118)
(-0.000938555 0 -0.0328115)
(-0.000650122 0 -0.0268753)
(-0.000428095 0 -0.0214519)
(-0.000265364 0 -0.0164508)
(-0.000156522 0 -0.0117447)
(-7.84289e-05 0 -0.00724189)
(-5.32492e-05 0 -0.00288833)
(-0.00152477 0 0.000457844)
(-0.00151176 0 0.000839639)
(-0.00151479 0 0.000986488)
(-0.00150829 0 0.00104249)
(-0.00149697 0 0.000963432)
(-0.00148319 0 0.000690839)
(-0.00146611 0 0.000171887)
(-0.00144515 0 -0.000642701)
(-0.00141948 0 -0.00180159)
(-0.00138793 0 -0.00335445)
(-0.00134907 0 -0.00535288)
(-0.00130118 0 -0.00785201)
(-0.00124221 0 -0.0109128)
(-0.0011698 0 -0.0146047)
(-0.00108133 0 -0.0190092)
(-0.000974007 0 -0.024221)
(-0.000845211 0 -0.0303482)
(-0.000693005 0 -0.0375047)
(-0.000516993 0 -0.045793)
(-0.000319444 0 -0.0552698)
(-0.000106364 0 -0.065893)
(0.000112572 0 -0.0774596)
(0.000327196 0 -0.0895669)
(0.000534488 0 -0.101656)
(0.000749648 0 -0.113193)
(0.00101438 0 -0.123981)
(0.00139422 0 -0.134471)
(0.00196297 0 -0.145893)
(0.00277857 0 -0.160116)
(0.00385716 0 -0.179245)
(0.0052229 0 -0.207245)
(0.00660156 0 -0.244433)
(0.00744704 0 -0.284461)
(0.00753817 0 -0.321565)
(0.00728223 0 -0.35198)
(0.00750797 0 -0.377841)
(0.00875903 0 -0.406554)
(0.0107 0 -0.447668)
(0.0111748 0 -0.510136)
(0.00495638 0 -0.587132)
(-0.016659 0 -0.605028)
(-0.021575 0 -0.433958)
(0.016074 0 -0.0984101)
(0.0845905 0 0.219066)
(0.19836 0 0.277178)
(0.309225 0 -1.22364)
(-0.0531931 0 -1.52463)
(-0.0413686 0 0.399283)
(0.0748975 0 0.686967)
(0.0740336 0 0.702801)
(0.144019 0 0.836384)
(0.210028 0 0.936027)
(0.262991 0 -1.09226)
(-0.205138 0 -1.20302)
(-0.163399 0 0.867111)
(-0.0703322 0 0.891469)
(-0.086918 0 0.813423)
(0.11324 0 0.365908)
(-0.0100124 0 -1.03929)
(-0.163795 0 0.410602)
(0.0126489 0 0.676799)
(0.00434333 0 0.608251)
(0.0722386 0 0.682402)
(0.137238 0 0.833716)
(0.183367 0 0.961384)
(0.273771 0 -1.07655)
(-0.238234 0 -1.07555)
(-0.20269 0 0.942732)
(-0.142502 0 0.808131)
(-0.088288 0 0.607502)
(-0.0653682 0 0.470829)
(-0.039041 0 0.363183)
(-0.0162066 0 0.254881)
(0.0122744 0 0.0986967)
(0.0565272 0 -0.226587)
(0.0725434 0 -0.733533)
(-0.0289849 0 -0.929722)
(-0.0955759 0 -0.66099)
(-0.0728292 0 -0.378355)
(-0.0534951 0 -0.240459)
(-0.0373261 0 -0.186737)
(-0.0270897 0 -0.161969)
(-0.0201684 0 -0.145494)
(-0.0152399 0 -0.131489)
(-0.0116622 0 -0.118481)
(-0.00898487 0 -0.106184)
(-0.00693422 0 -0.0945921)
(-0.00533653 0 -0.0837364)
(-0.00407538 0 -0.0736289)
(-0.00307056 0 -0.0642615)
(-0.00226523 0 -0.055613)
(-0.00161815 0 -0.0476546)
(-0.0010987 0 -0.040354)
(-0.000683724 0 -0.033677)
(-0.000355746 0 -0.0275839)
(-0.000101929 0 -0.0220153)
(8.57138e-05 0 -0.0168761)
(0.000216019 0 -0.0120396)
(0.00031232 0 -0.00741737)
(0.000340009 0 -0.00295674)
(-0.00211321 0 0.000454148)
(-0.00209819 0 0.000828805)
(-0.00210193 0 0.000967313)
(-0.00209497 0 0.0010147)
(-0.00208261 0 0.000927783)
(-0.00206745 0 0.000647901)
(-0.00204855 0 0.000121431)
(-0.00202529 0 -0.000701641)
(-0.00199681 0 -0.00187049)
(-0.00196193 0 -0.00343511)
(-0.00191912 0 -0.0054474)
(-0.0018666 0 -0.00796269)
(-0.00180224 0 -0.0110421)
(-0.00172361 0 -0.0147552)
(-0.00162799 0 -0.0191833)
(-0.00151259 0 -0.0244206)
(-0.0013748 0 -0.0305741)
(-0.00121275 0 -0.0377557)
(-0.00102616 0 -0.0460651)
(-0.000817422 0 -0.055555)
(-0.000592609 0 -0.0661799)
(-0.000361315 0 -0.077736)
(-0.000133369 0 -0.0898262)
(8.87833e-05 0 -0.101906)
(0.000320816 0 -0.113465)
(0.000604278 0 -0.124324)
(0.0010034 0 -0.134943)
(0.00158912 0 -0.146539)
(0.00241374 0 -0.160949)
(0.00348428 0 -0.180217)
(0.00481014 0 -0.208218)
(0.00609256 0 -0.245172)
(0.00677894 0 -0.284757)
(0.0066532 0 -0.321478)
(0.00609522 0 -0.351906)
(0.00585128 0 -0.378206)
(0.0063414 0 -0.407382)
(0.0071246 0 -0.448146)
(0.00600915 0 -0.507765)
(-0.00132989 0 -0.578463)
(-0.0218035 0 -0.595618)
(-0.0295332 0 -0.443602)
(0.00398374 0 -0.133764)
(0.0589393 0 0.169497)
(0.175913 0 0.183622)
(0.302974 0 -1.13896)
(0.0146257 0 -1.41178)
(-0.00892533 0 0.350091)
(0.101051 0 0.667945)
(0.0836789 0 0.676711)
(0.144149 0 0.797965)
(0.204771 0 0.893203)
(0.256162 0 -0.957094)
(-0.156011 0 -1.06187)
(-0.158857 0 0.829991)
(-0.0621023 0 0.860479)
(-0.0929803 0 0.767649)
(0.0997708 0 0.322319)
(-0.010069 0 -0.922238)
(-0.147185 0 0.377605)
(0.0224689 0 0.636532)
(0.0062488 0 0.580596)
(0.0741913 0 0.647961)
(0.125838 0 0.798213)
(0.175002 0 0.91711)
(0.240044 0 -0.939241)
(-0.207592 0 -0.91903)
(-0.192277 0 0.909342)
(-0.129689 0 0.777188)
(-0.0869027 0 0.582321)
(-0.0649109 0 0.450373)
(-0.0396058 0 0.343605)
(-0.0178438 0 0.231939)
(0.00942948 0 0.0667842)
(0.0488249 0 -0.252727)
(0.055364 0 -0.691543)
(-0.0225234 0 -0.849587)
(-0.0743338 0 -0.640358)
(-0.0633274 0 -0.395907)
(-0.0479806 0 -0.261084)
(-0.0344106 0 -0.202164)
(-0.0254728 0 -0.172976)
(-0.0191929 0 -0.15359)
(-0.0146194 0 -0.137663)
(-0.0112182 0 -0.123333)
(-0.0086161 0 -0.110089)
(-0.00658561 0 -0.0977923)
(-0.00497774 0 -0.0863944)
(-0.0036905 0 -0.0758576)
(-0.00265231 0 -0.0661419)
(-0.00181159 0 -0.0572044)
(-0.00113021 0 -0.0490012)
(-0.000579385 0 -0.0414893)
(-0.000137013 0 -0.0346262)
(0.000213912 0 -0.0283647)
(0.00048608 0 -0.0226391)
(0.0006874 0 -0.01735)
(0.000828652 0 -0.0123708)
(0.000934539 0 -0.00761653)
(0.000962123 0 -0.00303448)
(-0.0028096 0 0.000450594)
(-0.00279306 0 0.000818294)
(-0.00279825 0 0.000948548)
(-0.00279174 0 0.000986939)
(-0.00277937 0 0.000891423)
(-0.00276395 0 0.000603408)
(-0.00274439 0 6.86598e-05)
(-0.00272007 0 -0.000763528)
(-0.00269012 0 -0.00194286)
(-0.00265335 0 -0.00351968)
(-0.00260824 0 -0.00554622)
(-0.00255299 0 -0.00807805)
(-0.00248544 0 -0.0111764)
(-0.00240315 0 -0.0149111)
(-0.0023034 0 -0.0193629)
(-0.00218341 0 -0.0246259)
(-0.00204065 0 -0.0308055)
(-0.0018733 0 -0.0380121)
(-0.00168117 0 -0.046342)
(-0.00146676 0 -0.0558442)
(-0.00123625 0 -0.0664699)
(-0.00099938 0 -0.0780146)
(-0.000766161 0 -0.0900868)
(-0.000539344 0 -0.102157)
(-0.000303995 0 -0.113735)
(-2.01447e-05 0 -0.124662)
(0.000373706 0 -0.135404)
(0.000944367 0 -0.147167)
(0.00173787 0 -0.161748)
(0.00275245 0 -0.181132)
(0.0039798 0 -0.2091)
(0.00509922 0 -0.245776)
(0.00555946 0 -0.28487)
(0.00514568 0 -0.321149)
(0.00419848 0 -0.351493)
(0.00337348 0 -0.378063)
(0.00297523 0 -0.407462)
(0.00250322 0 -0.447607)
(-0.000189367 0 -0.504391)
(-0.00867396 0 -0.569479)
(-0.0281763 0 -0.585908)
(-0.0392908 0 -0.44992)
(-0.0105259 0 -0.162898)
(0.0298229 0 0.122232)
(0.150955 0 0.0844276)
(0.293437 0 -1.09097)
(0.0622167 0 -1.30873)
(0.0135044 0 0.315154)
(0.115455 0 0.655123)
(0.0884577 0 0.657953)
(0.137605 0 0.76747)
(0.189576 0 0.85315)
(0.242603 0 -0.84495)
(-0.118763 0 -0.924706)
(-0.152539 0 0.805047)
(-0.0574911 0 0.834372)
(-0.09831 0 0.727427)
(0.0837494 0 0.280258)
(-0.0116609 0 -0.82496)
(-0.127591 0 0.3466)
(0.030405 0 0.600142)
(0.00839957 0 0.555918)
(0.0746894 0 0.617146)
(0.110499 0 0.768231)
(0.16269 0 0.878379)
(0.204359 0 -0.816323)
(-0.182715 0 -0.781194)
(-0.176495 0 0.881075)
(-0.115558 0 0.749909)
(-0.0827836 0 0.560278)
(-0.0617746 0 0.431569)
(-0.0382802 0 0.324966)
(-0.0178524 0 0.20983)
(0.00810455 0 0.037329)
(0.0427866 0 -0.273297)
(0.0440922 0 -0.656328)
(-0.0169274 0 -0.787499)
(-0.058498 0 -0.619929)
(-0.0544095 0 -0.407268)
(-0.0422809 0 -0.277863)
(-0.0308971 0 -0.215618)
(-0.0230807 0 -0.1829)
(-0.0174507 0 -0.161057)
(-0.013283 0 -0.143464)
(-0.0101208 0 -0.127968)
(-0.00765669 0 -0.113876)
(-0.00570253 0 -0.10094)
(-0.00413295 0 -0.0890428)
(-0.00286085 0 -0.0781043)
(-0.00182416 0 -0.068057)
(-0.000977314 0 -0.0588394)
(-0.000286051 0 -0.0503947)
(0.0002759 0 -0.0426706)
(0.000729001 0 -0.0356174)
(0.00108925 0 -0.0291817)
(0.00136886 0 -0.023292)
(0.00157539 0 -0.0178458)
(0.00172029 0 -0.012717)
(0.00183002 0 -0.00782418)
(0.00185731 0 -0.00311569)
(-0.00361874 0 0.000447631)
(-0.00360071 0 0.000809034)
(-0.00360755 0 0.000931408)
(-0.00360179 0 0.000960649)
(-0.00358991 0 0.000855861)
(-0.0035749 0 0.000558811)
(-0.0035555 0 1.48805e-05)
(-0.00353107 0 -0.000827236)
(-0.00350078 0 -0.00201774)
(-0.00346344 0 -0.00360738)
(-0.00341756 0 -0.00564868)
(-0.00336135 0 -0.00819748)
(-0.00329269 0 -0.0113152)
(-0.00320915 0 -0.0150716)
(-0.00310808 0 -0.0195474)
(-0.00298676 0 -0.0248359)
(-0.00284277 0 -0.0310418)
(-0.00267441 0 -0.0382729)
(-0.0024816 0 -0.0466229)
(-0.00226701 0 -0.0561369)
(-0.00203708 0 -0.0667624)
(-0.0018019 0 -0.0782944)
(-0.001572 0 -0.090347)
(-0.001351 0 -0.102404)
(-0.00112546 0 -0.113997)
(-0.000857895 0 -0.124986)
(-0.000490571 0 -0.135842)
(3.81703e-05 0 -0.147756)
(0.000767568 0 -0.16249)
(0.00168736 0 -0.181965)
(0.00276862 0 -0.209868)
(0.00367058 0 -0.246222)
(0.00385042 0 -0.284785)
(0.00309313 0 -0.320563)
(0.00169803 0 -0.350716)
(0.000228945 0 -0.37739)
(-0.00110842 0 -0.406787)
(-0.0028456 0 -0.446099)
(-0.00703785 0 -0.500119)
(-0.0167181 0 -0.560205)
(-0.0355359 0 -0.575737)
(-0.0498301 0 -0.452944)
(-0.0261607 0 -0.185155)
(0.00151664 0 0.077028)
(0.127266 0 -0.0183305)
(0.278961 0 -1.06825)
(0.0879594 0 -1.21283)
(0.025042 0 0.290445)
(0.11809 0 0.644411)
(0.0878159 0 0.645008)
(0.125529 0 0.745299)
(0.167965 0 0.81528)
(0.222878 0 -0.753104)
(-0.0950286 0 -0.794146)
(-0.146131 0 0.789687)
(-0.0571454 0 0.8128)
(-0.102419 0 0.693336)
(0.0672495 0 0.239017)
(-0.0144701 0 -0.745951)
(-0.108422 0 0.316869)
(0.0357464 0 0.56799)
(0.0104864 0 0.534001)
(0.0739736 0 0.59094)
(0.0946218 0 0.743741)
(0.14788 0 0.845394)
(0.170468 0 -0.705897)
(-0.162592 0 -0.663113)
(-0.157853 0 0.85635)
(-0.101287 0 0.726517)
(-0.0764626 0 0.541092)
(-0.0565446 0 0.414448)
(-0.0351962 0 0.307519)
(-0.016138 0 0.188916)
(0.00849196 0 0.0106113)
(0.0386125 0 -0.28936)
(0.0367527 0 -0.626682)
(-0.0121291 0 -0.738135)
(-0.0462512 0 -0.600595)
(-0.0461678 0 -0.414172)
(-0.0366766 0 -0.291241)
(-0.0270915 0 -0.227117)
(-0.0202071 0 -0.191669)
(-0.0151572 0 -0.167798)
(-0.0113752 0 -0.148796)
(-0.00846504 0 -0.132298)
(-0.00616711 0 -0.117466)
(-0.00432197 0 -0.103962)
(-0.00282272 0 -0.0916138)
(-0.00159503 0 -0.0803064)
(-0.00058554 0 -0.0699496)
(0.000245417 0 -0.0604663)
(0.000928028 0 -0.051789)
(0.00148575 0 -0.0438575)
(0.00193715 0 -0.0366161)
(0.00229693 0 -0.0300057)
(0.00257661 0 -0.0239504)
(0.0027834 0 -0.0183455)
(0.0029289 0 -0.0130658)
(0.00304057 0 -0.00803331)
(0.00307026 0 -0.0031977)
(-0.00454266 0 0.00044493)
(-0.00452295 0 0.000800631)
(-0.00453113 0 0.000915719)
(-0.00452592 0 0.000936062)
(-0.00451453 0 0.000821832)
(-0.00450013 0 0.000515318)
(-0.00448131 0 -3.82978e-05)
(-0.00445742 0 -0.00089082)
(-0.00442765 0 -0.00209292)
(-0.00439083 0 -0.00369571)
(-0.00434552 0 -0.00575201)
(-0.00428996 0 -0.00831794)
(-0.00422208 0 -0.0114551)
(-0.0041395 0 -0.0152331)
(-0.00403969 0 -0.0197327)
(-0.00392008 0 -0.0250466)
(-0.0037784 0 -0.031278)
(-0.00361315 0 -0.0385332)
(-0.00342447 0 -0.0469024)
(-0.00321531 0 -0.0564269)
(-0.00299252 0 -0.0670509)
(-0.00276665 0 -0.0785684)
(-0.00254892 0 -0.0905988)
(-0.00234394 0 -0.10264)
(-0.00214006 0 -0.114242)
(-0.00190276 0 -0.125283)
(-0.00157888 0 -0.13624)
(-0.00111289 0 -0.148289)
(-0.000473041 0 -0.163154)
(0.000322129 0 -0.182692)
(0.00122024 0 -0.210496)
(0.00186234 0 -0.246491)
(0.00172244 0 -0.284483)
(0.000585953 0 -0.319708)
(-0.00129361 0 -0.349568)
(-0.00342816 0 -0.376189)
(-0.00569341 0 -0.405385)
(-0.00864386 0 -0.443699)
(-0.0142027 0 -0.49503)
(-0.0250392 0 -0.550607)
(-0.0434116 0 -0.565026)
(-0.0600402 0 -0.453142)
(-0.0410455 0 -0.202067)
(-0.0216893 0 0.0333919)
(0.107897 0 -0.121511)
(0.259294 0 -1.06067)
(0.0943389 0 -1.12411)
(0.0267158 0 0.274578)
(0.110155 0 0.633996)
(0.0819481 0 0.636211)
(0.109087 0 0.730808)
(0.143399 0 0.779888)
(0.197241 0 -0.675745)
(-0.0841378 0 -0.672521)
(-0.140653 0 0.780984)
(-0.0603535 0 0.794837)
(-0.104777 0 0.663756)
(0.0519385 0 0.199501)
(-0.0176672 0 -0.682111)
(-0.0918608 0 0.288026)
(0.0388158 0 0.539577)
(0.0125211 0 0.514707)
(0.0723758 0 0.569496)
(0.0809663 0 0.724362)
(0.132604 0 0.818082)
(0.141641 0 -0.605798)
(-0.145306 0 -0.563567)
(-0.137767 0 0.834026)
(-0.0868228 0 0.707031)
(-0.0683726 0 0.524393)
(-0.0495887 0 0.399098)
(-0.0304807 0 0.291427)
(-0.0127513 0 0.169363)
(0.0104839 0 -0.0133782)
(0.0361727 0 -0.301696)
(0.0321806 0 -0.601359)
(-0.00784125 0 -0.697955)
(-0.0363411 0 -0.58288)
(-0.0385093 0 -0.418151)
(-0.031171 0 -0.301953)
(-0.0230929 0 -0.236963)
(-0.01701 0 -0.1994)
(-0.0124701 0 -0.173838)
(-0.00903372 0 -0.153637)
(-0.00636112 0 -0.13628)
(-0.00423059 0 -0.120808)
(-0.00250406 0 -0.106807)
(-0.00108886 0 -0.0940592)
(7.94145e-05 0 -0.0824196)
(0.00104712 0 -0.0717796)
(0.00184887 0 -0.0620497)
(0.00251126 0 -0.0531535)
(0.00305521 0 -0.0450243)
(0.00349743 0 -0.0376012)
(0.00385141 0 -0.0308208)
(0.00412793 0 -0.0246037)
(0.00433393 0 -0.018844)
(0.00448079 0 -0.0134185)
(0.00459431 0 -0.00825247)
(0.00462562 0 -0.00328971)
(-0.00557936 0 0.000441818)
(-0.00555778 0 0.000791975)
(-0.00556681 0 0.000900423)
(-0.0055618 0 0.000912496)
(-0.00555069 0 0.00078926)
(-0.00553687 0 0.000473526)
(-0.00551884 0 -8.96316e-05)
(-0.00549593 0 -0.000952442)
(-0.00546734 0 -0.002166)
(-0.00543195 0 -0.00378176)
(-0.00538836 0 -0.00585283)
(-0.00533486 0 -0.00843555)
(-0.00526943 0 -0.0115916)
(-0.00518983 0 -0.0153908)
(-0.00509365 0 -0.0199135)
(-0.00497854 0 -0.0252517)
(-0.00484246 0 -0.0315077)
(-0.00468419 0 -0.0387855)
(-0.0045042 0 -0.0471721)
(-0.00430587 0 -0.0567052)
(-0.00409653 0 -0.0673253)
(-0.0038873 0 -0.0788256)
(-0.00369002 0 -0.0908304)
(-0.00351031 0 -0.102851)
(-0.00333828 0 -0.114455)
(-0.00314257 0 -0.125538)
(-0.00287512 0 -0.136582)
(-0.00248731 0 -0.148747)
(-0.00195535 0 -0.163719)
(-0.00130615 0 -0.183291)
(-0.000617321 0 -0.210962)
(-0.000263037 0 -0.246558)
(-0.000747735 0 -0.283942)
(-0.00228196 0 -0.318564)
(-0.00465265 0 -0.348042)
(-0.00744028 0 -0.374462)
(-0.010581 0 -0.403293)
(-0.0146403 0 -0.44048)
(-0.0213807 0 -0.489192)
(-0.0332148 0 -0.540674)
(-0.051251 0 -0.553903)
(-0.0691782 0 -0.451329)
(-0.0533745 0 -0.216043)
(-0.0368244 0 -0.00991599)
(0.0945027 0 -0.22149)
(0.235306 0 -1.05984)
(0.0862076 0 -1.04207)
(0.020295 0 0.265326)
(0.0939902 0 0.623059)
(0.0716897 0 0.629858)
(0.0896227 0 0.722334)
(0.118655 0 0.747434)
(0.166497 0 -0.607982)
(-0.0835051 0 -0.561883)
(-0.136703 0 0.77588)
(-0.0656838 0 0.779134)
(-0.104844 0 0.636312)
(0.0389711 0 0.162711)
(-0.0206848 0 -0.630324)
(-0.0784982 0 0.259718)
(0.0406343 0 0.514011)
(0.0147621 0 0.497745)
(0.070453 0 0.552137)
(0.0710964 0 0.709102)
(0.119367 0 0.795712)
(0.119711 0 -0.515021)
(-0.128966 0 -0.480546)
(-0.116962 0 0.813028)
(-0.0715684 0 0.691209)
(-0.0588788 0 0.509925)
(-0.0412089 0 0.38552)
(-0.0243766 0 0.276687)
(-0.00794164 0 0.151176)
(0.0137749 0 -0.0347126)
(0.0352845 0 -0.310857)
(0.0297614 0 -0.579258)
(-0.00373849 0 -0.664479)
(-0.0279654 0 -0.566832)
(-0.0313627 0 -0.420197)
(-0.0257442 0 -0.310598)
(-0.0189298 0 -0.245465)
(-0.0135518 0 -0.206273)
(-0.00946669 0 -0.179283)
(-0.00634137 0 -0.158044)
(-0.0038881 0 -0.139937)
(-0.00191694 0 -0.123905)
(-0.000307592 0 -0.109466)
(0.00102092 0 -0.0963622)
(0.00212486 0 -0.0844244)
(0.00304488 0 -0.0735275)
(0.0038115 0 -0.0635712)
(0.00444833 0 -0.0544719)
(0.00497413 0 -0.0461576)
(0.00540409 0 -0.0385633)
(0.00575067 0 -0.0316221)
(0.00602397 0 -0.0252519)
(0.00623042 0 -0.0193454)
(0.00638063 0 -0.0137783)
(0.00649862 0 -0.00847208)
(0.0065367 0 -0.0033723)
(-0.00672376 0 0.000437792)
(-0.00670034 0 0.000782129)
(-0.00670992 0 0.000884525)
(-0.0067049 0 0.000889178)
(-0.00669397 0 0.000757802)
(-0.00668077 0 0.000433619)
(-0.00666371 0 -0.000138404)
(-0.00664216 0 -0.00101088)
(-0.00661533 0 -0.00223528)
(-0.00658216 0 -0.00386337)
(-0.00654129 0 -0.00594852)
(-0.00649107 0 -0.00854726)
(-0.00642959 0 -0.0117214)
(-0.00635473 0 -0.0155407)
(-0.00626427 0 -0.0200852)
(-0.00615612 0 -0.0254465)
(-0.00602853 0 -0.0317252)
(-0.00588063 0 -0.0390233)
(-0.00571333 0 -0.0474249)
(-0.00553051 0 -0.0569636)
(-0.00534005 0 -0.0675765)
(-0.00515364 0 -0.079056)
(-0.00498379 0 -0.0910313)
(-0.00483704 0 -0.103025)
(-0.00470517 0 -0.114625)
(-0.00456005 0 -0.12574)
(-0.00435901 0 -0.136855)
(-0.00406061 0 -0.149115)
(-0.00364902 0 -0.164169)
(-0.00315928 0 -0.183745)
(-0.00269511 0 -0.211246)
(-0.0026426 0 -0.246409)
(-0.00348037 0 -0.283151)
(-0.00541234 0 -0.317124)
(-0.00825982 0 -0.346139)
(-0.0116625 0 -0.37224)
(-0.0155951 0 -0.400573)
(-0.0206229 0 -0.436547)
(-0.0283199 0 -0.482731)
(-0.0408966 0 -0.530508)
(-0.0585408 0 -0.54264)
(-0.076712 0 -0.448477)
(-0.0624014 0 -0.229227)
(-0.0433673 0 -0.0543093)
(0.0868945 0 -0.3147)
(0.208518 0 -1.05902)
(0.0689933 0 -0.96576)
(0.00796078 0 0.259888)
(0.0729426 0 0.611108)
(0.0584683 0 0.624514)
(0.0688737 0 0.717771)
(0.0955188 0 0.718631)
(0.132635 0 -0.545866)
(-0.0893312 0 -0.464127)
(-0.134177 0 0.771706)
(-0.0711664 0 0.764416)
(-0.102483 0 0.609547)
(0.0286647 0 0.129116)
(-0.0231106 0 -0.588392)
(-0.0676961 0 0.231616)
(0.0422573 0 0.4904)