/*--------------------------------*- C++ -*----------------------------------*\
  =========                 |
  \\      /  F ield         | OpenFOAM: The Open Source CFD Toolbox
   \\    /   O peration     | Website:  https://openfoam.org
    \\  /    A nd           | Version:  9
     \\/     M anipulation  |
\*---------------------------------------------------------------------------*/
FoamFile
{
    format      ascii;
    class       surfaceVectorField;
    location    "0.12";
    object      Uf;
}
// * * * * * * * * * * * * * * * * * * * * * * * * * * * * * * * * * * * * * //

dimensions      [0 1 -1 0 0 0 0];

internalField   nonuniform List<vector> 
39700
(
(-2.13174e-05 0 0.000661702)
(-8.56114e-05 0 0.000468573)
(-2.0892e-05 0 0.000935801)
(-8.12247e-05 0 0.000849175)
(-2.05277e-05 0 0.00106539)
(-8.19704e-05 0 0.00102134)
(-1.96608e-05 0 0.00108125)
(-8.10775e-05 0 0.00110472)
(-1.85356e-05 0 0.0009286)
(-7.89034e-05 0 0.00104752)
(-1.72856e-05 0 0.000555223)
(-7.63073e-05 0 0.000794062)
(-1.58665e-05 0 -8.66907e-05)
(-7.32212e-05 0 0.00029492)
(-1.41736e-05 0 -0.00104395)
(-6.94586e-05 0 -0.00049669)
(-1.20483e-05 0 -0.00236439)
(-6.48962e-05 0 -0.00162785)
(-9.26149e-06 0 -0.00409772)
(-5.9244e-05 0 -0.00314738)
(-5.56768e-06 0 -0.00629633)
(-5.20216e-05 0 -0.00510603)
(-6.60789e-07 0 -0.00901717)
(-4.27148e-05 0 -0.00755796)
(5.84239e-06 0 -0.0123246)
(-3.0747e-05 0 -0.0105632)
(1.4361e-05 0 -0.0162933)
(-1.53243e-05 0 -0.0141906)
(2.54809e-05 0 -0.0210119)
(4.42943e-06 0 -0.0185214)
(3.98031e-05 0 -0.0265835)
(2.94813e-05 0 -0.0236515)
(5.79499e-05 0 -0.0331241)
(6.09244e-05 0 -0.0296922)
(8.03825e-05 0 -0.0407508)
(9.96652e-05 0 -0.0367636)
(0.000107074 0 -0.0495578)
(0.000146056 0 -0.0449792)
(0.000137039 0 -0.059571)
(0.000199285 0 -0.0544116)
(0.000167835 0 -0.0706839)
(0.000256655 0 -0.0650359)
(0.000195553 0 -0.0825927)
(0.000313133 0 -0.0766579)
(0.000216079 0 -0.0947822)
(0.000362321 0 -0.0888591)
(0.000228088 0 -0.106631)
(0.00039989 0 -0.101026)
(0.000236674 0 -0.117678)
(0.000429172 0 -0.112538)
(0.000254856 0 -0.127972)
(0.000465675 0 -0.12311)
(0.000300952 0 -0.138339)
(0.000536381 0 -0.133149)
(0.000394031 0 -0.150391)
(0.000673462 0 -0.143919)
(0.000550086 0 -0.166272)
(0.00090657 0 -0.157391)
(0.000775011 0 -0.188206)
(0.00125476 0 -0.175876)
(0.00108403 0 -0.222395)
(0.00173712 0 -0.203671)
(0.00135737 0 -0.262094)
(0.00227032 0 -0.241467)
(0.00146635 0 -0.302134)
(0.00263713 0 -0.28299)
(0.00139385 0 -0.336309)
(0.00270076 0 -0.321406)
(0.00135877 0 -0.362667)
(0.00263235 0 -0.351314)
(0.00168561 0 -0.386333)
(0.0028951 0 -0.374381)
(0.00266074 0 -0.418032)
(0.00394794 0 -0.39922)
(0.00446014 0 -0.474015)
(0.00607975 0 -0.438606)
(0.0057722 0 -0.568842)
(0.00887821 0 -0.511469)
(-0.000171113 0 -0.640635)
(0.00721415 0 -0.624237)
(-0.00976628 0 -0.510535)
(-0.00774087 0 -0.649135)
(-0.00176024 0 -0.143456)
(-0.0100607 0 -0.371414)
(0.0162131 0 0.276245)
(0.0138487 0 0.0704158)
(0.0465724 0 0.622223)
(0.0578043 0 0.45668)
(0.17562 0 -0.630554)
(0.0947806 0 0.707478)
(-0.014768 0 -2.18333)
(0.296886 0 -1.93364)
(-0.142252 0 -0.713302)
(-0.263053 0 -2.22289)
(-0.0294299 0 0.892135)
(-0.0821413 0 0.839905)
(-0.00409473 0 0.875946)
(-0.024178 0 0.863702)
(0.0130246 0 0.956844)
(0.0114144 0 0.865836)
(0.0305521 0 1.12272)
(0.0419176 0 1.02997)
(0.0976152 0 -0.33875)
(0.0677523 0 1.17317)
(-0.00815536 0 -1.85443)
(0.160896 0 -1.81732)
(-0.0983872 0 -0.304506)
(-0.19959 0 -1.76681)
(-0.0292262 0 1.14676)
(-0.0675602 0 1.17841)
(-0.011249 0 1.04342)
(-0.0362251 0 1.0687)
(-0.000817978 0 0.820948)
(-0.0249506 0 1.0047)
(0.0553018 0 -0.550242)
(0.0551251 0 0.603189)
(-0.0601782 0 -0.551188)
(-0.00118096 0 -1.66134)
(-0.00999987 0 0.730382)
(-0.0721312 0 0.601951)
(-0.0032401 0 0.784963)
(-0.00335352 0 0.82706)
(0.00673944 0 0.782476)
(0.000827821 0 0.735009)
(0.0178214 0 0.926639)
(0.0229809 0 0.81931)
(0.0348217 0 1.14281)
(0.0518689 0 1.01902)
(0.0912249 0 -0.306001)
(0.0718784 0 1.22963)
(-0.034646 0 -1.83354)
(0.168903 0 -1.78661)
(-0.0991704 0 -0.284242)
(-0.219524 0 -1.75693)
(-0.0359395 0 1.10168)
(-0.0677956 0 1.19529)
(-0.0212579 0 0.848448)
(-0.0581445 0 0.96695)
(-0.0123827 0 0.632956)
(-0.0308275 0 0.71834)
(-0.00746907 0 0.500721)
(-0.0187669 0 0.55687)
(-0.00319144 0 0.399237)
(-0.00991765 0 0.442125)
(0.00316004 0 0.31303)
(-0.000229272 0 0.352199)
(0.0194418 0 0.157642)
(0.0150731 0 0.260736)
(0.0652628 0 -0.444994)
(0.0502099 0 0.0154158)
(0.0840354 0 -1.45259)
(0.145429 0 -0.92674)
(-0.122659 0 -1.26176)
(-0.0360417 0 -1.77642)
(-0.0613129 0 -0.353953)
(-0.146812 0 -0.646536)
(-0.0246233 0 -0.100598)
(-0.058603 0 -0.162376)
(-0.0105714 0 -0.0818425)
(-0.0299088 0 -0.0889461)
(-0.00500783 0 -0.094629)
(-0.0165129 0 -0.0937107)
(-0.00266172 0 -0.103314)
(-0.00931624 0 -0.10315)
(-0.00159964 0 -0.105055)
(-0.0056876 0 -0.106803)
(-0.00107157 0 -0.10176)
(-0.00372537 0 -0.104965)
(-0.000778253 0 -0.0954975)
(-0.00258787 0 -0.0995467)
(-0.000595514 0 -0.0877241)
(-0.00188279 0 -0.0921598)
(-0.000469672 0 -0.0793397)
(-0.00141632 0 -0.08387)
(-0.000376235 0 -0.0708695)
(-0.00108963 0 -0.0753202)
(-0.000303244 0 -0.0626114)
(-0.000850027 0 -0.0668825)
(-0.000244378 0 -0.0547305)
(-0.000667985 0 -0.0587668)
(-0.000195994 0 -0.0473145)
(-0.00052608 0 -0.0510878)
(-0.000155793 0 -0.0404052)
(-0.00041351 0 -0.0439039)
(-0.000122178 0 -0.0340182)
(-0.00032323 0 -0.0372401)
(-9.39548e-05 0 -0.0281533)
(-0.000250391 0 -0.0311022)
(-7.03033e-05 0 -0.0227947)
(-0.000191594 0 -0.0254835)
(-5.09264e-05 0 -0.0178954)
(-0.00014477 0 -0.0203582)
(-3.59887e-05 0 -0.013353)
(-0.000109432 0 -0.0156569)
(-2.52016e-05 0 -0.00901652)
(-8.58825e-05 0 -0.0112456)
(-1.43118e-05 0 -0.00474475)
(-7.03966e-05 0 -0.00697036)
(-4.98463e-05 0 -0.00272285)
(-0.00014445 0 0.000645474)
(-0.000252466 0 0.00045603)
(-0.000143994 0 0.000928094)
(-0.000246895 0 0.000847753)
(-0.000142878 0 0.00105525)
(-0.000249691 0 0.00101802)
(-0.000140316 0 0.00106794)
(-0.000248212 0 0.00109747)
(-0.000136752 0 0.00091361)
(-0.000244219 0 0.0010379)
(-0.000132403 0 0.000539297)
(-0.000239256 0 0.000782874)
(-0.000127016 0 -0.000103515)
(-0.000233068 0 0.00028171)
(-0.000120387 0 -0.00106201)
(-0.00022529 0 -0.000512182)
(-0.000112468 0 -0.00238414)
(-0.000215589 0 -0.00164549)
(-0.000102483 0 -0.00411962)
(-0.000203472 0 -0.00316858)
(-8.97827e-05 0 -0.00632094)
(-0.000188133 0 -0.00513173)
(-7.35669e-05 0 -0.00904519)
(-0.000168695 0 -0.00758924)
(-5.28544e-05 0 -0.0123568)
(-0.000144099 0 -0.0106013)
(-2.64447e-05 0 -0.0163307)
(-0.000113004 0 -0.0142369)
(7.01329e-06 0 -0.0210553)
(-7.38701e-05 0 -0.0185773)
(4.89819e-05 0 -0.0266339)
(-2.49973e-05 0 -0.0237184)
(0.000100771 0 -0.0331819)
(3.54163e-05 0 -0.0297709)
(0.000163393 0 -0.0408162)
(0.000108965 0 -0.0368543)
(0.000236543 0 -0.0496297)
(0.000196169 0 -0.0450802)
(0.000317802 0 -0.059647)
(0.000295643 0 -0.0545185)
(0.000401817 0 -0.0707602)
(0.00040315 0 -0.0651413)
(0.000480675 0 -0.0826662)
(0.000510902 0 -0.0767522)
(0.000546888 0 -0.0948531)
(0.000609254 0 -0.0889346)
(0.00059966 0 -0.106707)
(0.00069217 0 -0.101084)
(0.000652206 0 -0.117773)
(0.000766024 0 -0.112593)
(0.00073482 0 -0.128107)
(0.000856875 0 -0.123191)
(0.000889948 0 -0.138532)
(0.00100965 0 -0.133295)
(0.00116192 0 -0.150656)
(0.00127795 0 -0.144163)
(0.00158498 0 -0.166611)
(0.00171023 0 -0.157753)
(0.00216229 0 -0.188604)
(0.00233486 0 -0.176347)
(0.00294158 0 -0.222819)
(0.00318479 0 -0.204191)
(0.00361127 0 -0.262476)
(0.00411565 0 -0.241914)
(0.00392954 0 -0.302437)
(0.00476792 0 -0.283202)
(0.00391304 0 -0.336642)
(0.0049412 0 -0.321395)
(0.00404266 0 -0.363268)
(0.0049258 0 -0.3514)
(0.00499289 0 -0.387455)
(0.00544996 0 -0.375014)
(0.00724905 0 -0.419844)
(0.00717276 0 -0.400724)
(0.0105619 0 -0.476006)
(0.0103153 0 -0.440814)
(0.0115197 0 -0.567796)
(0.0139519 0 -0.512107)
(0.000757164 0 -0.635279)
(0.011343 0 -0.617062)
(-0.0137725 0 -0.5111)
(-0.0094934 0 -0.639448)
(0.00384475 0 -0.156357)
(-0.0116553 0 -0.383159)
(0.0469397 0 0.253056)
(0.0255553 0 0.0416859)
(0.117989 0 0.563829)
(0.0968324 0 0.409313)
(0.266933 0 -0.582901)
(0.159415 0 0.608183)
(0.0225134 0 -1.99305)
(0.353141 0 -1.77069)
(-0.240414 0 -0.664356)
(-0.298283 0 -2.04761)
(-0.0693479 0 0.83096)
(-0.127083 0 0.725861)
(-0.00905188 0 0.855733)
(-0.0306093 0 0.823504)
(0.0356547 0 0.938922)
(0.0239301 0 0.836031)
(0.085306 0 1.08817)
(0.0781131 0 0.996869)
(0.168146 0 -0.299698)
(0.11957 0 1.11794)
(-0.0426892 0 -1.73539)
(0.21983 0 -1.67676)
(-0.195069 0 -0.281171)
(-0.297851 0 -1.66522)
(-0.083794 0 1.10678)
(-0.114957 0 1.10423)
(-0.0331532 0 1.02896)
(-0.0652335 0 1.03494)
(0.00627298 0 0.793227)
(-0.0468425 0 0.978412)
(0.0841674 0 -0.507866)
(0.0928944 0 0.55126)
(-0.102739 0 -0.510157)
(-0.00365927 0 -1.53674)
(-0.0347452 0 0.703664)
(-0.125684 0 0.556622)
(-0.00785823 0 0.77652)
(-0.00676653 0 0.809136)
(0.0208065 0 0.771791)
(0.00156369 0 0.715899)
(0.0498978 0 0.911461)
(0.0422692 0 0.799916)
(0.0992797 0 1.11099)
(0.0956414 0 0.986098)
(0.186505 0 -0.25027)
(0.12611 0 1.17148)
(-0.0375024 0 -1.70849)
(0.269453 0 -1.63727)
(-0.197452 0 -0.26555)
(-0.307617 0 -1.6503)
(-0.102675 0 1.06651)
(-0.125168 0 1.13211)
(-0.0601558 0 0.837105)
(-0.107214 0 0.938604)
(-0.0360142 0 0.625699)
(-0.0559326 0 0.702245)
(-0.0208429 0 0.495034)
(-0.0353985 0 0.544492)
(-0.00722778 0 0.392599)
(-0.0186912 0 0.430473)
(0.0113799 0 0.299165)
(-0.00111862 0 0.335494)
(0.0469412 0 0.120148)
(0.0231068 0 0.227249)
(0.114616 0 -0.471307)
(0.0710634 0 -0.0514325)
(0.0917759 0 -1.3089)
(0.172976 0 -0.903074)
(-0.147353 0 -1.15754)
(-0.0424076 0 -1.51652)
(-0.118326 0 -0.412683)
(-0.185525 0 -0.67963)
(-0.0647816 0 -0.139383)
(-0.0858124 0 -0.22641)
(-0.0350058 0 -0.0991005)
(-0.0514026 0 -0.126299)
(-0.0197899 0 -0.102556)
(-0.0313215 0 -0.113733)
(-0.0118487 0 -0.107189)
(-0.0192508 0 -0.114112)
(-0.00753994 0 -0.1071)
(-0.0125316 0 -0.113041)
(-0.00508391 0 -0.102948)
(-0.00852724 0 -0.108696)
(-0.00360015 0 -0.0962657)
(-0.00602985 0 -0.101911)
(-0.00264782 0 -0.0882732)
(-0.00440457 0 -0.0937513)
(-0.00200117 0 -0.079765)
(-0.00329886 0 -0.0850036)
(-0.00154035 0 -0.0712183)
(-0.0025158 0 -0.0761676)
(-0.00119893 0 -0.0629085)
(-0.00194198 0 -0.0675411)
(-0.00093837 0 -0.0549894)
(-0.00150969 0 -0.059294)
(-0.000735232 0 -0.0475431)
(-0.00117707 0 -0.0515189)
(-0.000574609 0 -0.0406087)
(-0.000917352 0 -0.0442615)
(-0.000446566 0 -0.0342002)
(-0.00071277 0 -0.0375391)
(-0.000344243 0 -0.0283159)
(-0.000551118 0 -0.0313528)
(-0.000263087 0 -0.0229382)
(-0.0004239 0 -0.025692)
(-0.000200826 0 -0.0180175)
(-0.000325724 0 -0.020526)
(-0.000157054 0 -0.0134511)
(-0.000254636 0 -0.0157807)
(-0.000130666 0 -0.00910211)
(-0.000209757 0 -0.0113239)
(-0.000112803 0 -0.0048501)
(-0.00018429 0 -0.00702592)
(-0.000167618 0 -0.00279993)
(-0.000355957 0 0.000646577)
(-0.000504857 0 0.000457122)
(-0.000356525 0 0.000929221)
(-0.000498885 0 0.000849514)
(-0.000355327 0 0.00105187)
(-0.000503019 0 0.00101446)
(-0.000352028 0 0.0010602)
(-0.000500679 0 0.00108813)
(-0.000346947 0 0.000902521)
(-0.00049511 0 0.00102419)
(-0.00034017 0 0.000525051)
(-0.000488016 0 0.000765444)
(-0.000331687 0 -0.000121357)
(-0.000478962 0 0.000260909)
(-0.000321014 0 -0.00108432)
(-0.000467529 0 -0.000537132)
(-0.000307247 0 -0.00241198)
(-0.000453029 0 -0.00167617)
(-0.000289877 0 -0.00415412)
(-0.00043468 0 -0.00320547)
(-0.000267981 0 -0.0063634)
(-0.000411541 0 -0.00517605)
(-0.000240391 0 -0.00909711)
(-0.000382468 0 -0.00764246)
(-0.000205685 0 -0.0124199)
(-0.000346022 0 -0.0106651)
(-0.000162172 0 -0.0164067)
(-0.000300456 0 -0.0143132)
(-0.000107912 0 -0.0211461)
(-0.000243735 0 -0.018668)
(-4.08198e-05 0 -0.026741)
(-0.000173656 0 -0.0238254)
(4.1081e-05 0 -0.0333061)
(-8.79598e-05 0 -0.0298953)
(0.000138898 0 -0.0409565)
(1.53445e-05 0 -0.0369959)
(0.000252404 0 -0.0497824)
(0.000136911 0 -0.0452368)
(0.000378474 0 -0.0598044)
(0.00027505 0 -0.0546843)
(0.000510299 0 -0.0709112)
(0.000424649 0 -0.0653066)
(0.000638034 0 -0.0827989)
(0.000576533 0 -0.0769049)
(0.000752776 0 -0.0949616)
(0.000719668 0 -0.0890654)
(0.000854657 0 -0.1068)
(0.000847801 0 -0.101194)
(0.000962264 0 -0.117878)
(0.000969995 0 -0.112704)
(0.00111676 0 -0.128266)
(0.00111936 0 -0.123344)
(0.00137567 0 -0.138792)
(0.0013521 0 -0.133539)
(0.00179871 0 -0.151053)
(0.00173484 0 -0.144543)
(0.00242974 0 -0.167155)
(0.00232643 0 -0.158293)
(0.00326768 0 -0.18925)
(0.00315793 0 -0.177031)
(0.00437976 0 -0.223455)
(0.0042693 0 -0.204932)
(0.00533015 0 -0.262918)
(0.0054701 0 -0.242548)
(0.0058286 0 -0.302585)
(0.00630964 0 -0.283534)
(0.00592435 0 -0.336692)
(0.00656141 0 -0.321458)
(0.00622073 0 -0.363691)
(0.00658775 0 -0.351598)
(0.00751236 0 -0.388717)
(0.00724052 0 -0.375875)
(0.0102449 0 -0.422026)
(0.00923392 0 -0.402546)
(0.0138556 0 -0.477626)
(0.0126345 0 -0.443221)
(0.0143038 0 -0.563747)
(0.0160519 0 -0.512406)
(0.00225152 0 -0.625033)
(0.0126386 0 -0.609027)
(-0.012691 0 -0.512305)
(-0.00987615 0 -0.629487)
(0.0100045 0 -0.1812)
(-0.0118142 0 -0.398289)
(0.0669146 0 0.207831)
(0.0301033 0 0.0037458)
(0.146501 0 0.477452)
(0.11181 0 0.356256)
(0.293384 0 -0.550764)
(0.199486 0 0.51026)
(0.0231489 0 -1.80854)
(0.337657 0 -1.59054)
(-0.238322 0 -0.639345)
(-0.254696 0 -1.87329)
(-0.0661139 0 0.738296)
(-0.126387 0 0.611055)
(0.000363914 0 0.813605)
(-0.0126526 0 0.779186)
(0.058374 0 0.90126)
(0.0387814 0 0.797358)
(0.123109 0 1.0374)
(0.107042 0 0.953712)
(0.206338 0 -0.243851)
(0.161059 0 1.06246)
(-0.051736 0 -1.58829)
(0.2449 0 -1.50471)
(-0.232456 0 -0.262152)
(-0.31303 0 -1.54474)
(-0.114249 0 1.04491)
(-0.144595 0 1.02543)
(-0.0507996 0 0.991531)
(-0.0802827 0 0.992642)
(0.0110184 0 0.745062)
(-0.0637915 0 0.9372)
(0.0955789 0 -0.464798)
(0.114665 0 0.494886)
(-0.123937 0 -0.45957)
(-0.00654824 0 -1.3904)
(-0.0559938 0 0.66757)
(-0.158999 0 0.511326)
(-0.0100329 0 0.752221)
(-0.00671531 0 0.778495)
(0.0324084 0 0.747542)
(0.00207808 0 0.687605)
(0.0758052 0 0.87948)
(0.0562086 0 0.770985)
(0.139658 0 1.05763)
(0.124812 0 0.943529)
(0.23755 0 -0.194678)
(0.162803 0 1.10622)
(-0.0152494 0 -1.5507)
(0.308827 0 -1.46874)
(-0.242282 0 -0.230871)
(-0.315017 0 -1.49894)
(-0.14682 0 1.01463)
(-0.169622 0 1.06847)
(-0.0917248 0 0.808781)
(-0.138391 0 0.901874)
(-0.0554172 0 0.607598)
(-0.0731138 0 0.67804)
(-0.0323669 0 0.479707)
(-0.0489731 0 0.525686)
(-0.0122557 0 0.375063)
(-0.0268262 0 0.413262)
(0.0117367 0 0.269073)
(-0.00514127 0 0.313956)
(0.0512563 0 0.0616454)
(0.0227912 0 0.190035)
(0.116037 0 -0.495315)
(0.0736489 0 -0.115421)
(0.0749653 0 -1.15021)
(0.149575 0 -0.860518)
(-0.136996 0 -1.03792)
(-0.0420449 0 -1.28614)
(-0.126843 0 -0.469027)
(-0.171595 0 -0.691205)
(-0.077852 0 -0.197547)
(-0.090748 0 -0.285)
(-0.0473737 0 -0.132371)
(-0.059602 0 -0.164534)
(-0.0299393 0 -0.120966)
(-0.0383573 0 -0.136675)
(-0.0195669 0 -0.117781)
(-0.0252449 0 -0.128429)
(-0.0132444 0 -0.113459)
(-0.0174224 0 -0.122196)
(-0.00928198 0 -0.106954)
(-0.01237 0 -0.114714)
(-0.00670865 0 -0.0989222)
(-0.00901027 0 -0.10601)
(-0.00497251 0 -0.0901264)
(-0.00670729 0 -0.0966527)
(-0.00375746 0 -0.0811179)
(-0.00507659 0 -0.0871336)
(-0.00287868 0 -0.0722444)
(-0.0038884 0 -0.0777835)
(-0.00222515 0 -0.0637108)
(-0.00300117 0 -0.0688016)
(-0.00172821 0 -0.0556314)
(-0.00232519 0 -0.0602994)
(-0.00134408 0 -0.0480649)
(-0.0018022 0 -0.0523342)
(-0.001044 0 -0.0410368)
(-0.00139333 0 -0.0449295)
(-0.00080844 0 -0.0345522)
(-0.00107194 0 -0.0380891)
(-0.00062388 0 -0.0286035)
(-0.000819312 0 -0.0318049)
(-0.000481211 0 -0.0231668)
(-0.000622176 0 -0.0260586)
(-0.000375225 0 -0.018186)
(-0.000471692 0 -0.0208116)
(-0.000303625 0 -0.0135561)
(-0.000363658 0 -0.015983)
(-0.000263631 0 -0.00915245)
(-0.000294772 0 -0.0114424)
(-0.000246277 0 -0.00488009)
(-0.000253396 0 -0.00707987)
(-0.000242032 0 -0.00282992)
(-0.000650872 0 0.000650634)
(-0.000845956 0 0.000459688)
(-0.000650808 0 0.000930225)
(-0.000837476 0 0.000849311)
(-0.000648431 0 0.00104766)
(-0.000841277 0 0.0010074)
(-0.000643612 0 0.0010516)
(-0.000837297 0 0.0010745)
(-0.00063653 0 0.00089042)
(-0.00082951 0 0.00100509)
(-0.000627167 0 0.000509641)
(-0.000819771 0 0.000741367)
(-0.000615264 0 -0.000140409)
(-0.000807442 0 0.000231722)
(-0.000600265 0 -0.00110771)
(-0.000792082 0 -0.0005722)
(-0.000581243 0 -0.00244073)
(-0.00077287 0 -0.00171856)
(-0.00055727 0 -0.00418951)
(-0.00074877 0 -0.00325639)
(-0.000527157 0 -0.00640695)
(-0.000718667 0 -0.005237)
(-0.000489461 0 -0.00915056)
(-0.000681123 0 -0.00771519)
(-0.000442433 0 -0.0124852)
(-0.000634398 0 -0.0107516)
(-0.000384012 0 -0.0164859)
(-0.00057644 0 -0.0144156)
(-0.000311868 0 -0.0212412)
(-0.000504887 0 -0.0187886)
(-0.000223544 0 -0.0268536)
(-0.000417202 0 -0.0239661)
(-0.000116817 0 -0.0334365)
(-0.000310863 0 -0.0300574)
(9.7778e-06 0 -0.041103)
(-0.000183832 0 -0.0371792)
(0.000155707 0 -0.04994)
(-3.54842e-05 0 -0.0454382)
(0.000317395 0 -0.0599638)
(0.000132268 0 -0.0548971)
(0.00048731 0 -0.0710595)
(0.000313757 0 -0.0655197)
(0.000654899 0 -0.0829233)
(0.000499278 0 -0.0771053)
(0.000811281 0 -0.0950574)
(0.000677717 0 -0.0892437)
(0.000958311 0 -0.106879)
(0.000843866 0 -0.101354)
(0.00111888 0 -0.117976)
(0.00100962 0 -0.112871)
(0.00134114 0 -0.128435)
(0.00121297 0 -0.123563)
(0.00169123 0 -0.139086)
(0.00151646 0 -0.133869)
(0.00223668 0 -0.151512)
(0.00199296 0 -0.145032)
(0.00302432 0 -0.167779)
(0.00270446 0 -0.158968)
(0.00404571 0 -0.189972)
(0.00367876 0 -0.177864)
(0.00537611 0 -0.22412)
(0.0049543 0 -0.205819)
(0.00649339 0 -0.263307)
(0.00630285 0 -0.243292)
(0.00708186 0 -0.302603)
(0.00721763 0 -0.283927)
(0.00721357 0 -0.33659)
(0.00746749 0 -0.321546)
(0.00754596 0 -0.364)
(0.0074532 0 -0.351819)
(0.00889773 0 -0.38989)
(0.00806027 0 -0.376776)
(0.0116359 0 -0.423951)
(0.00997533 0 -0.404371)
(0.0149682 0 -0.478437)
(0.0131005 0 -0.445443)
(0.0145682 0 -0.558538)
(0.0156345 0 -0.512139)
(0.0016733 0 -0.614376)
(0.0111856 0 -0.60043)
(-0.0131622 0 -0.514979)
(-0.0115321 0 -0.619596)
(0.010041 0 -0.211186)
(-0.0140837 0 -0.413758)
(0.072025 0 0.155592)
(0.027709 0 -0.0375769)
(0.155093 0 0.392732)
(0.108686 0 0.300877)
(0.297133 0 -0.521946)
(0.212933 0 0.415566)
(0.043361 0 -1.64838)
(0.322252 0 -1.42136)
(-0.192032 0 -0.621128)
(-0.179108 0 -1.71636)
(-0.0426188 0 0.654686)
(-0.0990697 0 0.511447)
(0.0193495 0 0.76734)
(0.0209505 0 0.737874)
(0.07993 0 0.854731)
(0.0539103 0 0.756971)
(0.15124 0 0.98368)
(0.127882 0 0.906172)
(0.230802 0 -0.186279)
(0.190635 0 1.00941)
(-0.0326663 0 -1.44283)
(0.258083 0 -1.32907)
(-0.233082 0 -0.244408)
(-0.282166 0 -1.41113)
(-0.125437 0 0.979718)
(-0.159456 0 0.953663)
(-0.0610084 0 0.943513)
(-0.0815813 0 0.94969)
(0.011982 0 0.690596)
(-0.0754998 0 0.88854)
(0.0938298 0 -0.423721)
(0.121306 0 0.440321)
(-0.129646 0 -0.411792)
(-0.00901975 0 -1.24141)
(-0.0657367 0 0.625384)
(-0.171546 0 0.46872)
(-0.00747313 0 0.717415)
(-0.0013638 0 0.739653)
(0.0403057 0 0.714576)
(0.00267198 0 0.655753)
(0.0916317 0 0.838654)
(0.0650675 0 0.736767)
(0.159771 0 0.998148)
(0.13835 0 0.898103)
(0.253433 0 -0.151605)
(0.180842 0 1.04377)
(0.00388218 0 -1.39484)
(0.30834 0 -1.30237)
(-0.253304 0 -0.186462)
(-0.290075 0 -1.32748)
(-0.168717 0 0.960432)
(-0.195289 0 1.01208)
(-0.110483 0 0.773754)
(-0.149728 0 0.863052)
(-0.0683775 0 0.583182)
(-0.0829438 0 0.64997)
(-0.0417807 0 0.458947)
(-0.0585818 0 0.503987)
(-0.0189371 0 0.352556)
(-0.0334546 0 0.393712)
(0.00688864 0 0.23517)
(-0.0103913 0 0.290772)
(0.0467641 0 0.00780823)
(0.0186444 0 0.152485)
(0.100515 0 -0.501376)
(0.068497 0 -0.168515)
(0.0510192 0 -1.01664)
(0.114845 0 -0.809233)
(-0.111778 0 -0.935332)
(-0.038413 0 -1.1092)
(-0.115903 0 -0.500723)
(-0.140373 0 -0.686503)
(-0.0768215 0 -0.247542)
(-0.0858567 0 -0.331738)
(-0.0496142 0 -0.165595)
(-0.0594183 0 -0.198665)
(-0.0332561 0 -0.141626)
(-0.0395622 0 -0.158201)
(-0.0230419 0 -0.130985)
(-0.0273463 0 -0.142528)
(-0.0164248 0 -0.122137)
(-0.0196698 0 -0.131777)
(-0.0119917 0 -0.112845)
(-0.014444 0 -0.121447)
(-0.00892787 0 -0.103066)
(-0.0108079 0 -0.110892)
(-0.00674948 0 -0.0931453)
(-0.00820408 0 -0.100293)
(-0.00516048 0 -0.0833888)
(-0.00628829 0 -0.0899191)
(-0.003975 0 -0.0740009)
(-0.00484775 0 -0.0799634)
(-0.0030736 0 -0.0651007)
(-0.00374499 0 -0.0705403)
(-0.00237775 0 -0.0567506)
(-0.00288869 0 -0.0617073)
(-0.00183468 0 -0.0489771)
(-0.00221677 0 -0.0534867)
(-0.00140808 0 -0.0417851)
(-0.00168608 0 -0.0458792)
(-0.0010724 0 -0.0351664)
(-0.00126592 0 -0.038873)
(-0.00080938 0 -0.0291033)
(-0.00093398 0 -0.0324491)
(-0.000606266 0 -0.0235632)
(-0.000674028 0 -0.0265804)
(-0.000454882 0 -0.0184821)
(-0.000474696 0 -0.0212196)
(-0.000350138 0 -0.0137525)
(-0.000329703 0 -0.0162791)
(-0.000286721 0 -0.00925982)
(-0.000233946 0 -0.0116305)
(-0.000254999 0 -0.00492502)
(-0.000168519 0 -0.00717852)
(-0.000149257 0 -0.00286497)
(-0.00103634 0 0.000649651)
(-0.00128209 0 0.000458993)
(-0.00103455 0 0.000923896)
(-0.00127052 0 0.000843738)
(-0.00103018 0 0.00103445)
(-0.00127371 0 0.000994425)
(-0.00102302 0 0.00103215)
(-0.00126797 0 0.00105426)
(-0.00101317 0 0.00086551)
(-0.00125776 0 0.000978535)
(-0.00100058 0 0.000479433)
(-0.00124526 0 0.000708993)
(-0.00098488 0 -0.00017641)
(-0.00122968 0 0.000193225)
(-0.000965405 0 -0.00115043)
(-0.00121049 0 -0.000617738)
(-0.000941259 0 -0.00249142)
(-0.00118686 0 -0.00177238)
(-0.000911242 0 -0.00424972)
(-0.00115764 0 -0.00332015)
(-0.000873921 0 -0.00647843)
(-0.00112153 0 -0.00531255)
(-0.00082759 0 -0.00923529)
(-0.00107684 0 -0.00780457)
(-0.000770234 0 -0.0125853)
(-0.00102164 0 -0.0108571)
(-0.000699529 0 -0.0166038)
(-0.000953645 0 -0.0145396)
(-0.0006129 0 -0.0213789)
(-0.000870295 0 -0.0189334)
(-0.000507702 0 -0.0270126)
(-0.000768872 0 -0.0241337)
(-0.000381604 0 -0.0336172)
(-0.000646765 0 -0.0302489)
(-0.000233284 0 -0.0413033)
(-0.000501994 0 -0.0373939)
(-6.34475e-05 0 -0.0501545)
(-0.000334086 0 -0.0456726)
(0.000123976 0 -0.0601832)
(-0.000145194 0 -0.0551437)
(0.000321167 0 -0.0712713)
(5.87452e-05 0 -0.0657671)
(0.000517736 0 -0.0831162)
(0.000267998 0 -0.0773404)
(0.000705889 0 -0.0952292)
(0.000472037 0 -0.0894582)
(0.000889776 0 -0.107046)
(0.000667135 0 -0.101554)
(0.00109568 0 -0.118175)
(0.000867557 0 -0.113084)
(0.00137563 0 -0.12872)
(0.00111412 0 -0.12384)
(0.00179925 0 -0.139514)
(0.00147191 0 -0.134268)
(0.00243565 0 -0.152118)
(0.00201508 0 -0.145604)
(0.00332869 0 -0.168561)
(0.00280357 0 -0.159732)
(0.00445899 0 -0.190852)
(0.00385782 0 -0.178786)
(0.00589651 0 -0.224936)
(0.0052077 0 -0.206778)
(0.00706333 0 -0.263841)
(0.00659335 0 -0.24407)
(0.00763831 0 -0.302777)
(0.00747814 0 -0.28431)
(0.00771042 0 -0.33666)
(0.00763681 0 -0.321594)
(0.0079407 0 -0.364466)
(0.00747928 0 -0.351973)
(0.00910729 0 -0.391124)
(0.00786187 0 -0.377554)
(0.0114532 0 -0.425724)
(0.00938379 0 -0.405935)
(0.0139425 0 -0.478936)
(0.011786 0 -0.447102)
(0.0122582 0 -0.553609)
(0.0129988 0 -0.511016)
(-0.000997788 0 -0.604978)
(0.00737518 0 -0.591593)
(-0.0156024 0 -0.517775)
(-0.0147198 0 -0.60986)
(0.00513772 0 -0.240055)
(-0.0187031 0 -0.427585)
(0.0665887 0 0.106195)
(0.0205807 0 -0.078544)
(0.148902 0 0.318478)
(0.0941238 0 0.246002)
(0.28707 0 -0.49142)
(0.205821 0 0.323454)
(0.0772732 0 -1.50055)
(0.312796 0 -1.28149)
(-0.126126 0 -0.59393)
(-0.0949371 0 -1.58076)
(-0.0117576 0 0.590624)
(-0.0610444 0 0.435201)
(0.0428394 0 0.726809)
(0.0574488 0 0.701476)
(0.098261 0 0.809319)
(0.0675938 0 0.720023)
(0.168378 0 0.932461)
(0.140075 0 0.859427)
(0.24218 0 -0.1308)
(0.206055 0 0.960214)
(-0.00101659 0 -1.29476)
(0.262665 0 -1.16693)
(-0.21297 0 -0.212721)
(-0.232306 0 -1.26983)
(-0.12418 0 0.923566)
(-0.163474 0 0.89447)
(-0.0652645 0 0.895795)
(-0.0748316 0 0.910413)
(0.00996057 0 0.638188)
(-0.0835303 0 0.83839)
(0.0850434 0 -0.379817)
(0.117317 0 0.390266)
(-0.123891 0 -0.362642)
(-0.0099703 0 -1.10212)
(-0.0655121 0 0.583251)
(-0.168473 0 0.429801)
(-0.00294367 0 0.679385)
(0.00761816 0 0.69794)
(0.0447657 0 0.679232)
(0.00369601 0 0.623946)
(0.0990069 0 0.796971)
(0.0703119 0 0.700606)
(0.163958 0 0.943858)
(0.139355 0 0.854802)
(0.247166 0 -0.106307)
(0.184407 0 0.988302)
(0.0134321 0 -1.23471)
(0.28749 0 -1.14655)
(-0.243796 0 -0.129743)
(-0.255832 0 -1.156)
(-0.173287 0 0.913694)
(-0.202896 0 0.96507)
(-0.117852 0 0.739269)
(-0.146668 0 0.826095)
(-0.0751715 0 0.557116)
(-0.0872661 0 0.621516)
(-0.048105 0 0.43695)
(-0.063828 0 0.481904)
(-0.0244652 0 0.32976)
(-0.0376259 0 0.373481)
(0.00207276 0 0.203913)
(-0.0145606 0 0.266948)
(0.0404969 0 -0.0339852)
(0.0142723 0 0.116302)
(0.0816586 0 -0.495194)
(0.060715 0 -0.209174)
(0.0320838 0 -0.913052)
(0.0852183 0 -0.757866)
(-0.0851327 0 -0.854587)
(-0.032365 0 -0.981801)
(-0.0990329 0 -0.512869)
(-0.10963 0 -0.670655)
(-0.0711367 0 -0.282488)
(-0.0774808 0 -0.3651)
(-0.0481237 0 -0.191822)
(-0.0557983 0 -0.227534)
(-0.0333907 0 -0.159234)
(-0.0383014 0 -0.177588)
(-0.0239181 0 -0.143052)
(-0.027393 0 -0.155603)
(-0.0175894 0 -0.130646)
(-0.0202018 0 -0.14094)
(-0.0131913 0 -0.119018)
(-0.015149 0 -0.128127)
(-0.0100317 0 -0.10767)
(-0.0115276 0 -0.115926)
(-0.00769937 0 -0.096665)
(-0.00885217 0 -0.104191)
(-0.0059395 0 -0.0861401)
(-0.00682662 0 -0.0930041)
(-0.00458798 0 -0.0761925)
(-0.00526473 0 -0.0824486)
(-0.00353561 0 -0.0668736)
(-0.004043 0 -0.0725701)
(-0.00270766 0 -0.0582015)
(-0.00307713 0 -0.0633825)
(-0.00205181 0 -0.0501736)
(-0.00230806 0 -0.0548786)
(-0.00153061 0 -0.042775)
(-0.00169344 0 -0.0470395)
(-0.00111673 0 -0.035984)
(-0.00120219 0 -0.0398395)
(-0.000789996 0 -0.0297725)
(-0.000811139 0 -0.0332495)
(-0.000535751 0 -0.0240988)
(-0.000502934 0 -0.0272337)
(-0.000343864 0 -0.0188916)
(-0.000265012 0 -0.0217368)
(-0.000207019 0 -0.0140415)
(-8.9825e-05 0 -0.016666)
(-0.000118085 0 -0.00943949)
(2.97485e-05 0 -0.0118942)
(-6.93199e-05 0 -0.00501309)
(0.000116946 0 -0.00733019)
(0.00014338 0 -0.00292268)
(-0.00152053 0 0.00064418)
(-0.00181899 0 0.000456)
(-0.00151747 0 0.000911309)
(-0.00180498 0 0.000834239)
(-0.00151157 0 0.00101382)
(-0.00180836 0 0.000976934)
(-0.00150251 0 0.00100391)
(-0.00180163 0 0.00102865)
(-0.00149033 0 0.000830393)
(-0.00178979 0 0.00094568)
(-0.00147495 0 0.000437564)
(-0.00177532 0 0.000669454)
(-0.001456 0 -0.000225674)
(-0.00175733 0 0.000146746)
(-0.00143276 0 -0.0012083)
(-0.00173522 0 -0.000672088)
(-0.00140423 0 -0.00255947)
(-0.00170815 0 -0.00183597)
(-0.00136912 0 -0.00432979)
(-0.00167493 0 -0.00339473)
(-0.00132584 0 -0.00657258)
(-0.0016341 0 -0.00540013)
(-0.00127254 0 -0.00934581)
(-0.00158389 0 -0.00790741)
(-0.00120702 0 -0.0127146)
(-0.00152222 0 -0.0109776)
(-0.00112679 0 -0.0167543)
(-0.0014467 0 -0.0146802)
(-0.00102915 0 -0.0215528)
(-0.00135466 0 -0.0190966)
(-0.000911385 0 -0.0272114)
(-0.0012433 0 -0.0243213)
(-0.000771171 0 -0.033841)
(-0.00111 0 -0.0304618)
(-0.000607316 0 -0.0415498)
(-0.000952877 0 -0.0376311)
(-0.000420736 0 -0.0504182)
(-0.000771577 0 -0.0459301)
(-0.000215556 0 -0.0604544)
(-0.000568433 0 -0.0554137)
(4.00738e-07 0 -0.0715381)
(-0.000349487 0 -0.066038)
(0.000217195 0 -0.0833686)
(-0.000124372 0 -0.0775996)
(0.000428112 0 -0.0954669)
(9.69131e-05 0 -0.0896986)
(0.00063908 0 -0.107287)
(0.000311636 0 -0.101783)
(0.000878207 0 -0.118458)
(0.000535232 0 -0.113332)
(0.00119873 0 -0.129101)
(0.000809328 0 -0.124157)
(0.00167021 0 -0.140046)
(0.00119881 0 -0.134712)
(0.00235948 0 -0.152835)
(0.00177604 0 -0.146222)
(0.00330417 0 -0.169452)
(0.00259615 0 -0.16054)
(0.00447301 0 -0.191836)
(0.00367072 0 -0.17974)
(0.00591993 0 -0.225839)
(0.00501652 0 -0.207742)
(0.00703708 0 -0.264447)
(0.00634706 0 -0.244815)
(0.00750623 0 -0.303013)
(0.00711299 0 -0.284623)
(0.00741993 0 -0.336772)
(0.00709568 0 -0.321537)
(0.0074035 0 -0.36491)
(0.00668873 0 -0.351962)
(0.00814728 0 -0.392197)
(0.00667962 0 -0.37805)
(0.00974979 0 -0.427111)
(0.00755021 0 -0.407003)
(0.0110187 0 -0.478902)
(0.00891231 0 -0.447948)
(0.00796061 0 -0.548634)
(0.008592 0 -0.508978)
(-0.00523327 0 -0.59608)
(0.00181325 0 -0.582797)
(-0.0195972 0 -0.519493)
(-0.0192312 0 -0.600284)
(-0.00277247 0 -0.266184)
(-0.0255541 0 -0.438801)
(0.0537358 0 0.0603279)
(0.0100289 0 -0.116217)
(0.131626 0 0.248122)
(0.0717649 0 0.194075)
(0.27108 0 -0.473232)
(0.187136 0 0.230485)
(0.11744 0 -1.37413)
(0.306099 0 -1.17906)
(-0.059015 0 -0.562672)
(-0.0192837 0 -1.46313)
(0.0306658 0 0.543125)
(-0.0251469 0 0.375414)
(0.066207 0 0.694884)
(0.0879743 0 0.677782)
(0.111248 0 0.769592)
(0.0788562 0 0.689996)
(0.174191 0 0.886205)
(0.144084 0 0.817464)
(0.241773 0 -0.0781156)
(0.207399 0 0.915159)
(0.0247801 0 -1.14764)
(0.259576 0 -1.02227)
(-0.185258 0 -0.167955)
(-0.180575 0 -1.1298)
(-0.117785 0 0.87929)
(-0.161128 0 0.849488)
(-0.0666027 0 0.852446)
(-0.0662173 0 0.876291)
(0.00496338 0 0.589665)
(-0.0899492 0 0.790679)
(0.0738709 0 -0.33669)
(0.106506 0 0.344327)
(-0.111716 0 -0.314344)
(-0.0100407 0 -0.978398)
(-0.0588227 0 0.543701)
(-0.15549 0 0.394539)
(0.00335694 0 0.642525)
(0.0175589 0 0.656487)
(0.047087 0 0.645327)
(0.00529606 0 0.594793)
(0.100257 0 0.758059)
(0.073215 0 0.66516)
(0.158124 0 0.89755)
(0.131538 0 0.816224)
(0.230683 0 -0.0575836)
(0.179184 0 0.939929)
(0.0178938 0 -1.07605)
(0.256908 0 -1.00469)
(-0.22417 0 -0.0664093)
(-0.222913 0 -0.994621)
(-0.166953 0 0.875431)
(-0.197484 0 0.926924)
(-0.116958 0 0.707816)
(-0.136096 0 0.792765)
(-0.0771051 0 0.532288)
(-0.0875954 0 0.594948)
(-0.0511098 0 0.41572)
(-0.0651395 0 0.460696)
(-0.0276998 0 0.307738)
(-0.0393234 0 0.353446)
(-0.0015022 0 0.174923)
(-0.0170252 0 0.24343)
(0.0341825 0 -0.0678316)
(0.0108519 0 0.0826987)
(0.0650034 0 -0.486117)
(0.0526761 0 -0.239619)
(0.0210054 0 -0.833972)
(0.0639537 0 -0.712278)
(-0.064513 0 -0.792145)
(-0.0257542 0 -0.888852)
(-0.0820986 0 -0.516296)
(-0.0849549 0 -0.650606)
(-0.0636179 0 -0.307759)
(-0.0680783 0 -0.387201)
(-0.0450203 0 -0.212956)
(-0.0507379 0 -0.250865)
(-0.032172 0 -0.174057)
(-0.0358684 0 -0.194495)
(-0.023576 0 -0.153535)
(-0.0262812 0 -0.167469)
(-0.0176498 0 -0.138324)
(-0.0196806 0 -0.149521)
(-0.0134165 0 -0.124829)