/*--------------------------------*- C++ -*----------------------------------*\
  =========                 |
  \\      /  F ield         | OpenFOAM: The Open Source CFD Toolbox
   \\    /   O peration     | Website:  https://openfoam.org
    \\  /    A nd           | Version:  9
     \\/     M anipulation  |
\*---------------------------------------------------------------------------*/
FoamFile
{
    format      ascii;
    class       volScalarField;
    location    "0.16";
    object      p_rgh;
}
// * * * * * * * * * * * * * * * * * * * * * * * * * * * * * * * * * * * * * //

dimensions      [1 -1 -2 0 0 0 0];

internalField   nonuniform List<scalar> 
5000
(
3.40763e-05
7.59157e-05
0.000109597
0.000143788
0.000179153
0.000214809
0.000249428
0.000281047
0.000307256
0.00032556
0.000333802
0.000330778
0.000316655
0.000293266
0.000264126
0.000234139
0.000209105
0.000195146
0.000197931
0.000222227
0.000271325
0.000346557
0.000446927
0.000569018
0.000707429
0.000855791
0.00100757
0.00115548
0.00128996
0.00139895
0.00147574
0.00148429
0.00139036
0.00114528
0.000691709
-2.6363e-05
-0.00103801
-0.00231878
-0.00377539
-0.00526371
-0.00664846
-0.00787475
-0.00899632
-0.0101426
-0.0114619
-0.0130839
-0.0151115
-0.0176221
-0.0206483
-0.0241151
5.78663e-05
0.000147685
0.00022963
0.000313851
0.000400785
0.00048994
0.000580603
0.000671371
0.000760266
0.000845013
0.00092339
0.000993642
0.00105488
0.00110742
0.00115287
0.00119415
0.00123514
0.00128033
0.00133435
0.00140154
0.00148571
0.00159007
0.00171739
0.00187019
0.00205064
0.00225921
0.00249189
0.00273685
0.00297338
0.00317573
0.00333365
0.00339427
0.00333194
0.00312289
0.00274224
0.00216999
0.0014064
0.00048284
-0.000538401
-0.00158204
-0.00259265
-0.00356499
-0.00454863
-0.00562627
-0.00688519
-0.00839946
-0.0102219
-0.0123748
-0.0148283
-0.0174615
5.10908e-05
0.000148052
0.00024521
0.000346276
0.00045047
0.00055731
0.000666441
0.00077721
0.00088873
0.000999985
0.00110997
0.00121789
0.00132337
0.00142665
0.0015287
0.00163127
0.00173684
0.00184838
0.00196923
0.00210281
0.00225245
0.00242117
0.00261162
0.00282583
0.00306478
0.00332751
0.00360971
0.003902
0.0041892
0.00445142
0.00468691
0.00484991
0.00489716
0.00480954
0.0045696
0.00416569
0.00360092
0.00289967
0.0021063
0.00127259
0.000436009
-0.000400674
-0.00127351
-0.00224264
-0.00337203
-0.00471483
-0.00630433
-0.00814443
-0.0101947
-0.0123459
5.30475e-05
0.000160183
0.00027089
0.000386594
0.000506798
0.000631066
0.000759088
0.000890461
0.00102474
0.00116147
0.00130029
0.00144099
0.00158367
0.0017288
0.00187731
0.00203062
0.00219065
0.00235969
0.00254036
0.00273546
0.00294777
0.00317991
0.00343396
0.00371118
0.00401139
0.00433249
0.00466986
0.00501589
0.00535978
0.00568755
0.00600907
0.00627712
0.00644149
0.0064853
0.00639272
0.00615361
0.00576942
0.0052582
0.0046536
0.00399594
0.0033158
0.00261774
0.00187563
0.00104327
7.06276e-05
-0.00108306
-0.00244072
-0.00399964
-0.00572181
-0.00751535
5.82082e-05
0.000179844
0.000307564
0.000441499
0.0005816
0.000727775
0.000879974
0.0010381
0.00120204
0.00137168
0.00154697
0.00172798
0.00191495
0.00210834
0.00230893
0.00251784
0.00273655
0.00296688
0.00321092
0.00347094
0.00374927
0.00404805
0.00436899
0.00471302
0.00507986
0.00546764
0.00587261
0.00628886
0.00670812
0.00711937
0.00754289
0.00793066
0.00822408
0.00840843
0.00847152
0.00840489
0.00820981
0.00789996
0.00750004
0.00703918
0.00653939
0.00600419
0.0054151
0.00473874
0.0039387
0.00298593
0.00186644
0.000588268
-0.000812393
-0.00225709
6.55061e-05
0.000204645
0.000352552
0.000507946
0.000671108
0.00084227
0.00102164
0.00120939
0.0014057
0.00161075
0.00182475
0.00204797
0.00228077
0.00252363
0.00277722
0.00304245
0.0033205
0.00361282
0.00392111
0.00424724
0.00459317
0.00496072
0.00535141
0.00576617
0.006205
0.00666667
0.00714845
0.00764582
0.00815212
0.0086578
0.00919344
0.00971152
0.0101427
0.0104748
0.0106991
0.0108093
0.010807
0.0107026
0.0105133
0.0102584
0.00995166
0.00959463
0.00917432
0.00866793
0.00805087
0.00730438
0.00642204
0.00541603
0.00432065
0.00320225
7.37389e-05
0.000231869
0.000401266
0.000579439
0.00076684
0.000963926
0.00117105
0.00138859
0.00161695
0.00185657
0.00210789
0.00237141
0.00264766
0.00293724
0.00324088
0.00355948
0.00389412
0.00424608
0.00461685
0.00500807
0.00542146
0.00585866
0.00632104
0.0068095
0.00732419
0.00786427
0.00842775
0.0090112
0.00960947
0.0102145
0.0108675
0.0115219
0.0120969
0.0125826
0.0129717
0.0132589
0.0134459
0.0135399
0.0135525
0.0134966
0.0133808
0.0132059
0.0129626
0.0126355
0.0122081
0.0116687
0.0110158
0.010263
0.00944072
0.00860326
8.2602e-05
0.00026073
0.000452336
0.000654012
0.000866329
0.00108987
0.00132511
0.00157257
0.00183284
0.00210653
0.00239426
0.00269673
0.00301466
0.00334884
0.00370014
0.00406959
0.00445833
0.00486767
0.00529907
0.0057541
0.00623438
0.00674143
0.00727655
0.00784058
0.00843371
0.00905538
0.0097041
0.0103773
0.0110713
0.0117797
0.0125545
0.0133499
0.0140735
0.0147171
0.0152733
0.0157375
0.0161101
0.0163957
0.0166023
0.0167387
0.016811
0.0168195
0.0167581
0.0166157
0.0163811
0.0160469
0.0156139
0.0150949
0.0145155
0.0139189
9.19653e-05
0.000291024
0.000505485
0.00073131
0.000969157
0.00121973
0.00148362
0.00176153
0.00205416
0.00236226
0.00268661
0.00302806
0.00338752
0.00376597
0.00416447
0.0045842
0.00502646
0.00549267
0.00598435
0.00650313
0.00705061
0.00762828
0.0082374
0.00887881
0.00955278
0.010259
0.0109966
0.0117638
0.0125581
0.0133747
0.014277
0.0152189
0.0160963
0.0169019
0.0176282
0.0182706
0.0188282
0.0193035
0.0197017
0.0200287
0.0202891
0.0204833
0.0206069
0.0206522
0.0206113
0.0204793
0.0202582
0.0199588
0.0196021
0.0192216
0.0001016
0.000322331
0.00056024
0.000810792
0.00107473
0.00135293
0.00164611
0.00195504
0.00228056
0.00262355
0.00298496
0.00336581
0.00376721
0.0041903
0.00463636
0.00510674
0.00560292
0.00612646
0.00667903
0.00726231
0.00787797
0.00852753
0.00921226
0.00993306
0.0106904
0.0114843
0.0123144
0.01318
0.0140796
0.0150097
0.0160453
0.0171398
0.0181765
0.0191484
0.0200481
0.0208709
0.0216146
0.02228
0.0228699
0.0233882
0.0238382
0.0242201
0.0245309
0.0247654
0.0249177
0.0249849
0.0249689
0.0248788
0.0247312
0.0245514
0.000111231
0.000354068
0.000615823
0.000891499
0.00118197
0.00148826
0.00181116
0.00215154
0.00251033
0.00288855
0.00328735
0.00370794
0.00415161
0.00461972
0.00511373
0.00563523
0.00618586
0.0067674
0.00738163
0.00803038
0.00871538
0.00943823
0.0102003
0.0110025
0.0118457
0.0127303
0.0136565
0.0146245
0.0156339
0.0166825
0.017857
0.0191099
0.0203109
0.0214535
0.0225302
0.0235355
0.0244665
0.0253222
0.0261038
0.0268135
0.0274535
0.0280241
0.0285233
0.0289473
0.0292917
0.0295546
0.0297377
0.029848
0.0298985
0.0299072
0.00012065
0.000385807
0.000671722
0.000972881
0.00129028
0.00162501
0.00197792
0.00234997
0.00274227
0.00315601
0.00359249
0.00405312
0.00453937
0.00505284
0.00559522
0.00616828
0.00677393
0.00741411
0.0080908
0.00880592
0.00956134
0.0103588
0.0111997
0.0120853
0.0130166
0.0139946
0.0150203
0.0160944
0.0172178
0.0183893
0.0197078
0.0211244
0.0224946
0.0238119
0.0250685
0.0262584
0.0273774
0.0284233
0.0293959
0.0302962
0.0311258
0.031885
0.0325725
0.0331853
0.0337201
0.034175
0.0345514
0.0348543
0.0350931
0.0352797
0.000129722
0.000417283
0.000727676
0.00105465
0.00139927
0.00176269
0.00214584
0.00254984
0.00297595
0.00342553
0.00390005
0.00440111
0.00493039
0.0054897
0.00608097
0.00670622
0.00736756
0.00806713
0.00880707
0.00958948
0.0104164
0.0112896
0.0122108
0.0131816
0.0142034
0.0152775
0.0164056
0.0175896
0.018831
0.0201297
0.0215969
0.023182
0.0247257
0.0262213
0.0276604
0.0290363
0.0303439
0.0315798
0.0327426
0.0338326
0.0348509
0.035798
0.0366729
0.0374734
0.0381963
0.0388397
0.039404
0.0398925
0.0403117
0.0406679
0.000138474
0.000448581
0.000783751
0.00113678
0.00150875
0.001901
0.00231462
0.00275089
0.00321119
0.00369703
0.00421005
0.00475204
0.00532493
0.00593073
0.00657161
0.00724981
0.00796766
0.00872747
0.00953158
0.0103823
0.0112817
0.012232
0.0132351
0.0142929
0.0154073
0.0165802
0.0178141
0.0191114
0.0204747
0.0219046
0.0235249
0.0252829
0.0270038
0.0286807
0.0303044
0.0318677
0.0333643
0.0347899
0.0361423
0.0374212
0.0386273
0.0397612
0.0408225
0.0418089
0.0427174
0.0435458
0.0442936
0.0449619
0.0455551
0.0460748
0.000146999
0.000479863
0.000839918
0.00121906
0.00161852
0.00203982
0.00248422
0.00295309
0.00344795
0.00397048
0.00452251
0.00510603
0.00572319
0.00637624
0.00706756
0.0077996
0.00857487
0.00939587
0.0102651
0.0111851
0.0121583
0.013187
0.0142736
0.0154203
0.0166296
0.0179041
0.0192467
0.0206608
0.0221497
0.0237146
0.0254918
0.0274265
0.029328
0.0311887
0.0329987
0.0347502
0.036436
0.038051
0.0395922
0.0410589
0.0424517
0.0437713
0.0450174
0.0461879
0.0472796
0.0482898
0.0492169
0.0500605
0.0508227
0.0515014
0.000155268
0.000511064
0.000895981
0.00130128
0.00172841
0.00217905
0.00265453
0.00315633
0.00368614
0.0042458
0.00483738
0.00546308
0.00612525
0.00682638
0.00756901
0.00835579
0.0091894
0.0100726
0.011008
0.0119983
0.0130464
0.014155
0.0153267
0.0165643
0.0178709
0.0192496
0.0207041
0.0222383
0.023856
0.0255591
0.0274967
0.0296114
0.031696
0.0337424
0.03574
0.0376801
0.0395548
0.0413585
0.0430875
0.0447407
0.0463188
0.0478225
0.0492516
0.0506041
0.0518766
0.0530657
0.0541687
0.0551838
0.0561113
0.056946
0.000163152
0.000541994
0.000951856
0.00138351
0.00183856
0.00231877
0.00282556
0.00336059
0.00392571
0.004523
0.0051547
0.00582325
0.00653119
0.00728118
0.00807596
0.00891836
0.00981123
0.0107575
0.0117601
0.012822
0.0139463
0.0151362
0.0163948
0.0177254
0.0191317
0.0206174
0.0221866
0.0238438
0.0255933
0.0274374
0.029538
0.0318351
0.0341048
0.0363382
0.0385239
0.0406526
0.0427156
0.0447068
0.0466221
0.0484602
0.0502218
0.0519078
0.0535181
0.0550505
0.0565013
0.0578667
0.059143
0.0603269
0.0614171
0.0624059
0.000170632
0.000572756
0.00100778
0.00146605
0.00194921
0.00245915
0.00299747
0.00356603
0.00416691
0.00480234
0.00547479
0.00618685
0.00694126
0.00774085
0.00858855
0.00948738
0.0104404
0.0114507
0.0125216
0.0136562
0.0148582
0.016131
0.0174784
0.0189042
0.0204125
0.0220076
0.0236942
0.025477
0.0273608
0.0293479
0.0316135
0.0340947
0.0365506
0.0389716
0.0413456
0.0436622
0.0459125
0.0480897
0.0501895
0.0522107
0.0541538
0.0560201
0.0578096
0.0595199
0.0611471
0.0626867
0.0641343
0.0654854
0.0667371
0.0678797
0.00017777
0.00060359
0.00106401
0.00154904
0.00206043
0.00260031
0.00317048
0.003773
0.00441012
0.00508426
0.00579805
0.00655427
0.00735581
0.0082057
0.00910706
0.0100631
0.0110771
0.0121525
0.0132927
0.0145013
0.0157824
0.0171399
0.018578
0.0201012
0.0217139
0.0234208
0.0252271
0.0271376
0.0291575
0.0312891
0.0337209
0.0363869
0.0390293
0.0416378
0.0441993
0.0467029
0.049139
0.0515004
0.0537828
0.0559849
0.0581075
0.0601523
0.0621192
0.0640059
0.065808
0.0675205
0.0691384
0.0706561
0.0720693
0.0733669
0.000184466
0.000634347
0.00112035
0.0016323
0.0021722
0.00274239
0.00334485
0.00398181
0.00465569
0.00536908
0.00612478
0.00692574
0.00777505
0.00867591
0.00963166
0.0106457
0.0117216
0.012863
0.0140737
0.0153577
0.0167194
0.0181634
0.0196943
0.0213169
0.0230361
0.024857
0.0267848
0.0288247
0.0309818
0.0332588
0.0358571
0.0387079
0.0415366
0.0443316
0.0470794
0.0497683
0.0523882
0.0549318
0.0573946
0.0597754
0.0620756
0.064297
0.06644
0.0685021
0.0704785
0.0723638
0.0741521
0.075837
0.0774131
0.0788684
0.000190501
0.000664664
0.00117653
0.00171579
0.00228466
0.00288566
0.0035209
0.00419278
0.00490388
0.00565698
0.00645507
0.00730131
0.00819896
0.00915145
0.0101623
0.0112352
0.0123739
0.0135823
0.0148647
0.0162255
0.0176696
0.0192018
0.0208274
0.0225515
0.0243792
0.0263158
0.0283665
0.0305369
0.0328319
0.0352543
0.0380189
0.0410538
0.0440674
0.0470474
0.0499795
0.0528515
0.0556528
0.0583761
0.0610169
0.0635744
0.0660502
0.0684469
0.0707652
0.0730025
0.0751538
0.0772128
0.0791731
0.0810274
0.0827692
0.0843863
0.000195812
0.000694588
0.00123279
0.00179992
0.00239831
0.0030306
0.00369908
0.00440629
0.005155
0.00594822
0.00678913
0.00768109
0.00862761
0.00963231
0.0106989
0.0118314
0.0130338
0.0143104
0.0156658
0.017105
0.018633
0.0202553
0.0219775
0.0238048
0.0257426
0.0277962
0.0299709
0.0322721
0.0347051
0.0372724
0.0402023
0.0434198
0.0466164
0.0497791
0.0528929
0.0559451
0.058925
0.0618251
0.0646415
0.0673736
0.0700237
0.0725949
0.0750885
0.0775019
0.0798298
0.0820652
0.0842006
0.0862281
0.08814
0.0899243
0.000200489
0.000724477
0.00128964
0.0018852
0.0025136
0.00317765
0.00387978
0.00462274
0.00540949
0.00624323
0.00712736
0.00806547
0.0090613
0.0101187
0.0112417
0.0124345
0.0137015
0.0150474
0.0164771
0.0179961
0.0196098
0.0213239
0.0231442
0.0250762
0.0271254
0.0292968
0.0315958
0.0340278
0.0365981
0.0393092
0.0424026
0.0458003
0.0491773
0.0525198
0.0558121
0.0590412
0.0621965
0.0652708
0.0682604
0.0711655
0.0739891
0.0767349
0.0794047
0.0819963
0.0845039
0.0869197
0.0892351
0.0914413
0.0935292
0.0954874
0.000204541
0.000754431
0.00134715
0.00197166
0.00263056
0.00332686
0.00406316
0.00484238
0.00566765
0.00654237
0.00747017
0.00845484
0.00950039
0.0106109
0.0117909
0.0130447
0.0143772
0.0157935
0.0172989
0.0188991
0.0206
0.0224074
0.0243272
0.026365
0.0285262
0.0308157
0.0332389
0.035801
0.0385073
0.0413604
0.0446147
0.0481895
0.0517434
0.055262
0.0587291
0.0621317
0.0654592
0.0687049
0.071866
0.0749433
0.0779405
0.0808621
0.0837104
0.0864834
0.0891751
0.0917767
0.0942785
0.0966703
0.0989417
0.101082
0.000207856
0.000784257
0.00140508
0.00205909
0.00274906
0.0034782
0.00424926
0.00506529
0.00592962
0.00684582
0.00781772
0.0088494
0.00994511
0.0111093
0.0123468
0.0136624
0.0150613
0.0165491
0.0181314
0.0198142
0.0216035
0.0235053
0.0255256
0.0276699
0.0299433
0.0323507
0.0348973
0.0375881
0.0404285
0.0434209
0.0468328
0.0505807
0.0543074
0.0579979
0.0616359
0.0652082
0.0687049
0.07212
0.0754516
0.0787013
0.0818735
0.0849734
0.0880037
0.0909626
0.0938439
0.0966379
0.0993336
0.101919
0.104383
0.106713
0.000210357
0.000813887
0.0014634
0.00214754
0.00286924
0.00363182
0.00443819
0.00529156
0.00619542
0.00715355
0.00817001
0.00924914
0.0103955
0.011614
0.0129096
0.0142878
0.0157541
0.0173144
0.0189747
0.0207411
0.0226199
0.024617
0.0267383
0.0289891
0.0313744
0.0338989
0.0365675
0.0393852
0.042357
0.0454856
0.049051
0.0529672
0.0568619
0.0607197
0.0645243
0.0682629
0.0719263
0.0755094
0.0790113
0.0824347
0.0857848
0.0890669
0.0922841
0.0954349
0.0985125
0.101507
0.104405
0.107194
0.109859
0.112389
0.00021204
0.000843455
0.00152235
0.00223729
0.00299132
0.00378792
0.00463011
0.00552127
0.00646508
0.00746556
0.00852702
0.00965411
0.0108517
0.0121251
0.0134797
0.0149213
0.0164559
0.0180896
0.0198287
0.0216796
0.0236484
0.0257411
0.0279634
0.0303204
0.0328168
0.035457
0.0382457
0.0411877
0.0442878
0.0475486
0.0512626
0.0553417
0.0593991
0.0634194
0.0673865
0.0712884
0.0751166
0.0788673
0.0825407
0.0861404
0.0896722
0.0931418
0.0965522
0.0999019
0.103184
0.106386
0.109496
0.112498
0.115375
0.118115
0.000212861
0.000872976
0.00158196
0.00232836
0.00311532
0.00394646
0.00482496
0.00575438
0.00673862
0.00778193
0.00888892
0.0100646
0.0113141
0.0126431
0.0140574
0.0155632
0.0171668
0.0188747
0.0206933
0.022629
0.024688
0.0268762
0.0291989
0.0316611
0.0342672
0.0370212
0.0399276
0.0429906
0.0462151
0.0496035
0.0534606
0.0576967
0.0619113
0.0660893
0.0702153
0.0742781
0.0782703
0.0821893
0.0860364
0.0898161
0.0935348
0.0971982
0.100809
0.104366
0.107861
0.111281
0.114612
0.117836
0.120936
0.123895
0.000212661
0.000902178
0.00164191
0.00242037
0.00324083
0.00410708
0.00502247
0.00599073
0.007016
0.00810276
0.00925592
0.0104808
0.0117829
0.0131682
0.014643
0.0162137
0.017887
0.0196695
0.0215678
0.0235884
0.0257374
0.0280203
0.0304425
0.0330084
0.0357221
0.0385874
0.0416081
0.0447883
0.0481326
0.0516436
0.0556379
0.0600249
0.0643911
0.0687223
0.0730042
0.0772265
0.081383
0.0854721
0.0894963
0.0934609
0.0973726
0.101237
0.105057
0.108829
0.112546
0.116194
0.119755
0.123213
0.126545
0.129732
0.000211238
0.000930687
0.00170171
0.0025128
0.00336736
0.00426937
0.00522231
0.00623011
0.00729712
0.00842806
0.00962813
0.0109029
0.0122584
0.0137008
0.0152367
0.0168729
0.0186162
0.0204735
0.0224516
0.0245567
0.0267948
0.0291714
0.0316914
0.0343589
0.0371776
0.0401508
0.0432819
0.0465748
0.0500338
0.0536617
0.0577871
0.0623187
0.0668315
0.0713122
0.0757478
0.0801293
0.0844515
0.0887139
0.0929197
0.0970748
0.101186
0.105259
0.109297
0.113294
0.117242
0.121127
0.124929
0.128629
0.132203
0.135627
0.000208455
0.000958297
0.00176116
0.00260544
0.00349471
0.00443311
0.0054243
0.00647237
0.00758188
0.00875778
0.0100056
0.0113311
0.0127406
0.0142408
0.0158384
0.0175404
0.019354
0.0212861
0.0233434
0.0255322
0.0278583
0.0303269
0.0329426
0.035709
0.0386294
0.0417066
0.0449435
0.0483437
0.0519116
0.0556506
0.059901
0.0645714
0.0692262
0.0738534
0.0784418
0.0829833
0.0874739
0.0919136
0.0963063
0.100658
0.104977
0.109267
0.11353
0.117762
0.121951
0.126082
0.130134
0.134085
0.137909
0.14158
0.000204258
0.000985007
0.00182027
0.00269833
0.0036229
0.00459833
0.00562843
0.00671748
0.00787021
0.00909185
0.0103881
0.0117651
0.0132295
0.014788
0.0164477
0.0182159
0.0200996
0.0221061
0.0242418
0.026513
0.0289255
0.031484
0.0341927
0.0370548
0.0400729
0.0432494
0.0465867
0.0500884
0.0537591
0.0576033
0.0619727
0.066777
0.0715701
0.0763421
0.0810831
0.0857866
0.0904491
0.095071
0.0996566
0.104212
0.108745
0.11326
0.117758
0.122233
0.126672
0.131058
0.135368
0.139578
0.143661
0.147586
0.00019861
0.00101086
0.00187913
0.00279157
0.00375203
0.00476509
0.00583472
0.00696539
0.00816205
0.00943014
0.0107756
0.0122048
0.0137246
0.0153419
0.017064
0.0188982
0.0208518
0.0229318
0.0251448
0.027497
0.0299937
0.0326394
0.0354379
0.0383918
0.0415031
0.0447735
0.0482054
0.0518022
0.0555695
0.0595131
0.0639964
0.0689302
0.0738591
0.0787752
0.08367
0.0885381
0.0933766
0.0981863
0.102971
0.107738
0.112492
0.11724
0.12198
0.126706
0.131403
0.136051
0.140627
0.145104
0.149453
0.15364
0.000191451
0.00103582
0.00193773
0.00288514
0.00388208
0.00493335
0.00604311
0.00721604
0.0084573
0.00977252
0.0111678
0.0126499
0.0142255
0.0159019
0.0176864
0.0195863
0.0216091
0.0237616
0.0260504
0.0284814
0.0310598
0.0337896
0.0366741
0.0397153
0.0429145
0.046273
0.049793
0.0534785
0.0573363
0.0613741
0.0659667
0.0710269
0.0760903
0.0811507
0.0862012
0.0912373
0.0962565
0.101259
0.10625
0.111234
0.116218
0.121205
0.126195
0.131178
0.13614
0.141057
0.145905
0.150654
0.155277
0.159735
0.00018272
0.00105983
0.001996
0.00297898
0.00401298
0.00510306
0.00625357
0.00746939
0.00875586
0.0101188
0.0115645
0.0130997
0.0147314
0.0164669
0.0183135
0.0202787
0.0223696
0.0245932
0.0269558
0.0294632
0.0321203
0.0349306
0.0378967
0.04102
0.0443012
0.0477415
0.0513431
0.055111
0.0590535
0.0631809
0.0678794
0.073064
0.0782616
0.0834676
0.0886764
0.0938842
0.0990887
0.10429
0.109492
0.1147
0.11992
0.125153
0.130398
0.135645
0.140876
0.146068
0.151193
0.156222
0.161125
0.165865
0.00017238
0.00108288
0.00205394
0.00307308
0.00414475
0.00527426
0.00646614
0.00772543
0.00905765
0.0104688
0.0119652
0.0135538
0.0152416
0.0170359
0.018944
0.0209734
0.0231311
0.025424
0.0278582
0.0304393
0.0331714
0.0360579
0.0391006
0.0423003
0.0456573
0.0491726
0.0528493
0.0566935
0.0607157
0.064929
0.069731
0.0750392
0.0803716
0.0857252
0.0910954
0.0964788
0.101873
0.107279
0.112698
0.118135
0.123595
0.12908
0.134585
0.1401
0.145605
0.151075
0.156483
0.161798
0.16699
0.172022
0.000160396
0.00110499
0.00211156
0.00316752
0.00427749
0.00544703
0.00668083
0.00798408
0.00936244
0.010822
0.0123693
0.0140111
0.0157547
0.0176072
0.019576
0.0216683
0.0238912
0.0262513
0.0287544
0.0314057
0.034209
0.0371669
0.0402806
0.0435504
0.0469766
0.0505603
0.0543056
0.0582207
0.0623184
0.0666148
0.0715188
0.0769506
0.0824194
0.0879231
0.0934579
0.0990208
0.104609
0.110223
0.115863
0.121534
0.127239
0.132978
0.138747
0.144532
0.150315
0.156069
0.161766
0.167374
0.172865
0.178203
0.000146718
0.00112613
0.00216891
0.00326234
0.00441122
0.00562135
0.00689753
0.00824509
0.0096698
0.0111778
0.0127758
0.0144706
0.0162693
0.0181791
0.0202073
0.022361
0.0246471
0.0270718
0.0296407
0.0323585
0.0352284
0.0382523
0.0414311
0.0447645
0.048253
0.0518986
0.0557068
0.0596879
0.0638576
0.0682354
0.0732407
0.0787971
0.0844042
0.0900608
0.0957636
0.101509
0.107295
0.11312
0.118985
0.124892
0.130844
0.13684
0.142874
0.148933
0.154997
0.161039
0.167032
0.172944
0.178746
0.184408
0.000131301
0.00114627
0.00222595
0.0033575
0.00454586
0.00579702
0.00711592
0.00850798
0.00997907
0.0115354
0.0131837
0.0149307
0.0167836
0.0187495
0.0208355
0.0230486
0.0253954
0.0278819
0.0305131
0.0332931
0.0362245
0.0393088
0.0425462
0.0459366
0.0494809
0.0531822
0.057048
0.0610912
0.0653305
0.0697883
0.0748952
0.0805776
0.0863252
0.0921376
0.0980114
0.103943
0.109929
0.115968
0.122059
0.128204
0.134403
0.140657
0.146957
0.153292
0.15964
0.165977
0.172274
0.178503
0.184632
0.190636
0.000114103
0.00116536
0.00228259
0.00345281
0.00468111
0.00597366
0.00733549
0.00877209
0.0102894
0.0118936
0.0135915
0.0153898
0.0172957
0.0193161
0.021458
0.0237282
0.026133
0.0286777
0.0313671
0.0342045
0.037192
0.0403305
0.04362
0.0470609
0.0506546
0.0544062
0.0583252
0.0624273
0.0667344
0.071272
0.076481
0.0822909
0.0881814
0.0941522
0.1002
0.10632
0.112508
0.118761
0.125078
0.13146
0.137906
0.144417
0.150985
0.157597
0.164235
0.170875
0.17749
0.18405
0.190526
0.196893
9.50636e-05
0.00118327
0.00233858
0.00354793
0.00481652
0.00615068
0.00755549
0.00903649
0.0105996
0.0122512
0.0139977
0.0158462
0.0178034
0.0198765
0.0220721
0.0243967
0.026856
0.0294553
0.0321983
0.0350878
0.0381255
0.0413118
0.0446469
0.0481318
0.0517693
0.0555663
0.0595349
0.0636937
0.0680674
0.0726848
0.0779969
0.0839362
0.0899716
0.0961029
0.102326
0.108635
0.115025
0.121492
0.128034
0.13465
0.141343
0.14811
0.154946
0.16184
0.168776
0.175729
0.182676
0.189586
0.19643
0.203184
7.40911e-05
0.00119976
0.00239356
0.00364236
0.00495144
0.00632728
0.00777496
0.00930003
0.0109084
0.0126064
0.0144006
0.0162977
0.0183047
0.0204282
0.0226748
0.0250506
0.0275609
0.0302101
0.0330017
0.0359377
0.0390192
0.0422469
0.0456213
0.0491443
0.0528205
0.0566589
0.0606744
0.0648881
0.0693281
0.0740256
0.0794418
0.0855119
0.0916939
0.0979871
0.104386
0.110884
0.117475
0.124153
0.130917
0.137765
0.144701
0.151724
0.158831
0.166013
0.173256
0.180537
0.187833
0.195114
0.202349
0.209513
5.1081e-05
0.00121457
0.00244708
0.00373548
0.0050851
0.0065025
0.00799274
0.00956136
0.0112143
0.0129577
0.0147981
0.0167423
0.0187968
0.0209684
0.023263
0.0256864
0.0282434
0.0309378
0.0337723
0.0367487
0.0398679
0.0431306
0.0465382
0.050094
0.0538045
0.057681
0.0617411
0.0660089
0.0705148
0.075293
0.0808143
0.0870165
0.093346
0.0998014
0.106376
0.113061
0.11985
0.126735
0.133716
0.140793
0.14797
0.15525
0.162632
0.170111
0.177673
0.185299
0.192963
0.200637
0.208287
0.215884
2.59379e-05
0.00122742
0.00249869
0.00382664
0.00521662
0.00667523
0.00820752
0.00981896
0.0115154
0.013303
0.0151882
0.0171774
0.0192773
0.0214939
0.0238332
0.0263002
0.0288992
0.0316335
0.0345052
0.0375158
0.0406663
0.0439579
0.0473932
0.050977
0.054718
0.05863
0.0627332
0.0670543
0.0716263
0.0764857
0.082113
0.0884478
0.0949249
0.101541
0.108289
0.115158
0.122139
0.129227
0.136421
0.143723
0.151141
0.15868
0.166345
0.17413
0.182026
0.190013
0.198067
0.206155
0.214242
0.222293
-1.42775e-06
0.001238
0.00254786
0.00391507
0.00534499
0.00684426
0.00841784
0.0100712
0.01181
0.0136403
0.0155684
0.0176005
0.019743
0.0220016
0.0243817
0.0268879
0.0295239
0.0322924
0.0351952
0.0382338
0.0414095
0.0447243
0.0481822
0.05179
0.0555585
0.0595039
0.0636489
0.0680229
0.0726612
0.0776023
0.0833359
0.089803
0.0964264
0.103201
0.110118
0.117165
0.124333
0.131618
0.13902
0.146545
0.154205
0.162009
0.169964
0.178068
0.186314
0.194681
0.203142
0.211665
0.220209
0.228733
-3.1117e-05
0.00124597
0.00259396
0.00399989
0.00546908
0.00700818
0.00862207
0.0103161
0.0120958
0.0139671
0.015936
0.0180086
0.0201907
0.0224877
0.0249045
0.0274452
0.0301128
0.0329097
0.0358376
0.0388981
0.0420931
0.045426
0.0489021
0.0525303
0.0563236
0.0603007
0.0644868
0.0689134
0.0736182
0.078641
0.0844805
0.0910787
0.0978455
0.104775
0.111854
0.119073
0.126421
0.133896
0.141503
0.149251
0.157155
0.16523
0.173486
0.181924
0.190534
0.199297
0.208183
0.217157
0.226175
0.235188
-6.32435e-05
0.00125093
0.00263631
0.00408011
0.00558763
0.00716549
0.00881846
0.0105517
0.0123706
0.0142809
0.0162883
0.0183985
0.0206169
0.0229484
0.0253975
0.0279675
0.0306611
0.0334806
0.0364276
0.0395043
0.0427134
0.0460596
0.0495501
0.0531956
0.0570117
0.0610192
0.0652455
0.0697246
0.0744957
0.0795999
0.085544
0.0922702
0.0991761
0.106253
0.113489
0.120871
0.128392
0.136053
0.143861
0.151833
0.159987
0.168342
0.176909
0.185692
0.194681
0.203853
0.213178
0.222615
0.23212
0.241635
-9.79152e-05
0.00125245
0.00267418
0.00415473
0.00569935
0.00731461
0.00900511
0.0107758
0.012632
0.014579
0.0166221
0.0187667
0.0210178
0.0233797
0.0258561
0.0284503
0.0311645
0.0340007
0.0369612
0.0400486
0.0432669
0.0466224
0.0501238
0.0537843
0.0576212
0.0616579
0.065924
0.0704551
0.0752919
0.0804764
0.0865226
0.0933723
0.100411
0.107628
0.115011
0.122548
0.130236
0.138078
0.146088
0.154286
0.162695
0.171338
0.180228
0.189366
0.198744
0.208335
0.218107
0.228016
0.238016
0.248044
-0.000135215
0.00125017
0.0027069
0.00422277
0.00580297
0.00745396
0.00918016
0.0109863
0.0128774
0.0148584
0.0169342
0.0191098
0.0213895
0.0237772
0.0262762
0.0288891
0.0316183
0.0344659
0.0374345
0.0405278
0.0437511
0.0471121
0.0506217
0.0542948
0.0581511
0.062216
0.0665211
0.0711036
0.0760051
0.0812675
0.0874117
0.0943785
0.101542
0.10889
0.116411
0.124095
0.131943
0.139964
0.148176
0.156604
0.165275
0.174213
0.183433
0.192935
0.202707
0.212723
0.222945
0.23333
0.243831
0.254381
-0.0001752
0.00124374
0.00273385
0.00428333
0.00589726
0.007582
0.00934173
0.0111809
0.0131043
0.0151162
0.0172215
0.0194242
0.0217282
0.024137
0.0266534
0.0292799
0.0320187
0.0348724
0.0378443
0.0409391
0.0441635
0.047527
0.0510421
0.0547259
0.0586003
0.0626924
0.0670357
0.0716686
0.0766327
0.0819696
0.088206
0.0952816
0.10256
0.11003
0.117679
0.125503
0.133507
0.141705
0.150121
0.158783
0.167721
0.176959
0.186513
0.196381
0.206549
0.216988
0.227661
0.238522
0.249527
0.260612
-0.000217908
0.00123288
0.00275445
0.00433552
0.00598107
0.00769726
0.00948803
0.0113576
0.0133101
0.0153497
0.0174805
0.0197062
0.02203
0.0244551
0.0269838
0.0296186
0.0323621
0.0352171
0.0381879
0.0412803
0.0445025
0.0478656
0.0513841
0.055077
0.0589681
0.0630865
0.0674669
0.0721482
0.0771719
0.0825783
0.0888994
0.0960739
0.103457
0.111037
0.118806
0.126764
0.134921
0.143296
0.151916
0.160815
0.170022
0.179563
0.18945
0.199682
0.210242
0.2211
0.23222
0.243556
0.255069
0.266701
-0.000263369
0.00121728
0.00276813
0.00437851
0.00605325
0.0077983
0.00961729
0.011514
0.0134924
0.0155559
0.0177082
0.0199524
0.0222914
0.0247277
0.0272638
0.029902
0.0326453
0.0354973
0.038463
0.0415496
0.0447666
0.0481269
0.0516469
0.0553474
0.0592541
0.0633976
0.0678134
0.0725405
0.0776193
0.0830887
0.0894853
0.0967474
0.104223
0.111904
0.119785
0.127872
0.136179
0.14473
0.153556
0.162692
0.172167
0.182007
0.192223
0.202811
0.213754
0.225024
0.236585
0.248396
0.260423
0.27262
-0.000311607
0.00119665
0.00277434
0.00441148
0.0061127
0.0078837
0.00972778
0.0116483
0.0136487
0.0157321
0.0179014
0.0201596
0.0225089
0.0249516
0.0274902
0.0301272
0.032866
0.0357108
0.0386679
0.0417455
0.0449548
0.0483102
0.0518299
0.0555367
0.0594578
0.0636249
0.0680738
0.0728427
0.0779708
0.0834953
0.0899569
0.0972945
0.104852
0.112623
0.120609
0.12882
0.137274
0.146
0.155031
0.164401
0.17414
0.184271
0.194805
0.205737
0.217052
0.228723
0.240721
0.25301
0.265562
0.278344
-0.000362633
0.00117073
0.00277256
0.00443362
0.00615835
0.0079521
0.00981779
0.0117584
0.0137768
0.0158756
0.0180575
0.0203248
0.0226796
0.025124
0.0276605
0.0302919
0.033022
0.0358561
0.0388013
0.0418672
0.0450663
0.0484149
0.051933
0.0556448
0.0595789
0.0637675
0.0682461
0.0730519
0.0782219
0.0837923
0.0903073
0.097708
0.105336
0.113189
0.121273
0.129603
0.138202
0.1471
0.15633
0.165927
0.175919
0.186329
0.197166
0.208428
0.220101
0.232165
0.244597
0.257371
0.270464
0.283858
-0.000416444
0.00113926
0.00276226
0.00444417
0.00618913
0.00800213
0.00988568
0.0118423
0.0138744
0.0159842
0.018174
0.0204456
0.0228011
0.0252426
0.0277725
0.0303941
0.0331119
0.0359319
0.0388623
0.0419139
0.045101
0.0484411
0.0519562
0.0556716
0.0596169
0.0638243
0.0683282
0.0731642
0.0783678
0.0839738
0.0905305
0.0979818
0.105669
0.113596
0.121772
0.130216
0.138954
0.148017
0.157439
0.167251
0.177483
0.188155
0.199277
0.21085
0.222869
0.23532
0.248189
0.26146
0.275116
0.289149
-0.00047303
0.001102
0.00274295
0.00444233
0.00620398
0.00803246
0.00992985
0.0118982
0.0139396
0.0160558
0.0182486
0.0205199
0.0228715
0.0253055
0.0278246
0.0304327
0.0331347
0.0359375
0.0388504
0.0418855
0.0450586
0.0483889
0.0518995
0.055617
0.0595712
0.0637936
0.0683173
0.0731759
0.0784034
0.0840343
0.0906206
0.0981106
0.105848
0.113839
0.1221
0.130652
0.139522
0.148741
0.158341
0.168354
0.178806
0.189718
0.201106
0.212975
0.225328
0.238164
0.251478
0.265262
0.279506
0.294206
-0.000532369
0.00105869
0.0027141
0.00442732
0.00620185
0.0080418
0.00994882
0.0119246
0.0139706
0.0160885
0.0182798
0.0205461
0.0228892
0.0253115
0.0278159
0.0304068
0.0330896
0.0358724
0.0387653
0.041782
0.0449395
0.0482585
0.0517632
0.0554809
0.0594408
0.0636734
0.0682101
0.0730826
0.0783237
0.0839687
0.090573
0.0980903
0.105867
0.113916
0.122253
0.130904
0.139895
0.149257
0.159019
0.169211
0.179861
0.190992
0.202625
0.214776
0.227457
0.240679
0.25445
0.268766
0.283622
0.299013
-0.00059443
0.0010091
0.00267521
0.00439837
0.00618173
0.00802894
0.00994124
0.0119199
0.0139661
0.016081
0.0182662
0.020523
0.0228534
0.0252599
0.0277458
0.030316
0.0329767
0.0357367
0.0386074
0.0416038
0.0447442
0.0480505
0.0515476
0.0552628
0.0592244
0.0634614
0.0680032
0.07288
0.0781243
0.0837725
0.0903835
0.0979172
0.105724
0.11382
0.122225
0.130963
0.140061
0.149547
0.159451
0.169799
0.180623
0.19195
0.203811
0.216232
0.229239
0.242854
0.257094
0.27196
0.287447
0.303545