/*--------------------------------*- C++ -*----------------------------------*\
  =========                 |
  \\      /  F ield         | OpenFOAM: The Open Source CFD Toolbox
   \\    /   O peration     | Website:  https://openfoam.org
    \\  /    A nd           | Version:  9
     \\/     M anipulation  |
\*---------------------------------------------------------------------------*/
FoamFile
{
    format      ascii;
    class       volScalarField;
    location    "0.16";
    object      rAU;
}
// * * * * * * * * * * * * * * * * * * * * * * * * * * * * * * * * * * * * * //

dimensions      [-1 3 1 0 0 0 0];

internalField   nonuniform List<scalar> 
5000
(
1.10086e-05
1.26597e-05
1.2784e-05
1.28994e-05
1.30063e-05
1.31048e-05
1.31953e-05
1.32783e-05
1.3354e-05
1.3423e-05
1.34859e-05
1.35433e-05
1.35958e-05
1.36441e-05
1.3689e-05
1.37309e-05
1.37705e-05
1.38084e-05
1.38451e-05
1.38809e-05
1.39165e-05
1.39521e-05
1.3988e-05
1.40242e-05
1.40605e-05
1.40958e-05
1.4129e-05
1.41591e-05
1.41863e-05
1.42156e-05
1.42796e-05
1.43006e-05
1.43251e-05
1.43572e-05
1.43967e-05
1.44427e-05
1.44935e-05
1.45462e-05
1.4597e-05
1.4642e-05
1.46787e-05
1.47071e-05
1.47297e-05
1.47504e-05
1.4773e-05
1.48001e-05
1.48334e-05
1.48736e-05
1.49211e-05
1.49743e-05
1.44697e-05
1.74657e-05
1.77056e-05
1.79308e-05
1.81416e-05
1.83386e-05
1.85222e-05
1.8693e-05
1.88515e-05
1.89985e-05
1.91346e-05
1.92607e-05
1.93776e-05
1.94861e-05
1.9587e-05
1.96811e-05
1.97692e-05
1.9852e-05
1.99301e-05
2.00041e-05
2.00747e-05
2.01423e-05
2.02074e-05
2.02702e-05
2.03305e-05
2.0388e-05
2.04417e-05
2.04911e-05
2.05363e-05
2.05867e-05
2.07061e-05
2.07271e-05
2.07463e-05
2.07714e-05
2.08023e-05
2.08382e-05
2.08776e-05
2.09184e-05
2.09576e-05
2.09923e-05
2.10206e-05
2.10424e-05
2.10598e-05
2.10757e-05
2.10929e-05
2.11135e-05
2.11387e-05
2.11691e-05
2.12049e-05
2.12449e-05
1.44702e-05
1.74661e-05
1.7706e-05
1.79311e-05
1.8142e-05
1.8339e-05
1.85226e-05
1.86933e-05
1.88519e-05
1.89988e-05
1.91349e-05
1.9261e-05
1.93779e-05
1.94863e-05
1.95872e-05
1.96814e-05
1.97695e-05
1.98522e-05
1.99303e-05
2.00043e-05
2.00749e-05
2.01425e-05
2.02076e-05
2.02704e-05
2.03308e-05
2.03882e-05
2.04419e-05
2.04913e-05
2.05365e-05
2.05869e-05
2.07062e-05
2.07272e-05
2.07464e-05
2.07715e-05
2.08024e-05
2.08382e-05
2.08776e-05
2.09182e-05
2.09573e-05
2.09919e-05
2.10201e-05
2.1042e-05
2.10594e-05
2.10754e-05
2.10926e-05
2.11132e-05
2.11383e-05
2.11686e-05
2.12042e-05
2.1244e-05
1.44708e-05
1.74666e-05
1.77065e-05
1.79317e-05
1.81425e-05
1.83395e-05
1.85231e-05
1.86938e-05
1.88523e-05
1.89993e-05
1.91354e-05
1.92614e-05
1.93783e-05
1.94867e-05
1.95876e-05
1.96817e-05
1.97698e-05
1.98525e-05
1.99306e-05
2.00046e-05
2.00752e-05
2.01428e-05
2.02079e-05
2.02707e-05
2.03311e-05
2.03885e-05
2.04422e-05
2.04915e-05
2.05368e-05
2.05871e-05
2.07065e-05
2.07274e-05
2.07466e-05
2.07718e-05
2.08026e-05
2.08384e-05
2.08776e-05
2.09182e-05
2.09571e-05
2.09916e-05
2.10198e-05
2.10417e-05
2.10591e-05
2.10751e-05
2.10924e-05
2.1113e-05
2.11381e-05
2.11684e-05
2.12038e-05
2.12433e-05
1.44717e-05
1.74674e-05
1.77072e-05
1.79324e-05
1.81432e-05
1.83402e-05
1.85237e-05
1.86945e-05
1.8853e-05
1.89999e-05
1.9136e-05
1.9262e-05
1.93788e-05
1.94872e-05
1.95881e-05
1.96821e-05
1.97702e-05
1.98529e-05
1.9931e-05
2.0005e-05
2.00756e-05
2.01432e-05
2.02083e-05
2.02711e-05
2.03315e-05
2.03889e-05
2.04425e-05
2.04919e-05
2.05371e-05
2.05874e-05
2.07067e-05
2.07277e-05
2.07469e-05
2.07721e-05
2.08029e-05
2.08387e-05
2.08779e-05
2.09183e-05
2.09571e-05
2.09914e-05
2.10195e-05
2.10414e-05
2.1059e-05
2.10751e-05
2.10924e-05
2.11131e-05
2.11381e-05
2.11683e-05
2.12035e-05
2.12428e-05
1.44728e-05
1.74682e-05
1.77081e-05
1.79332e-05
1.8144e-05
1.8341e-05
1.85245e-05
1.86952e-05
1.88537e-05
1.90006e-05
1.91367e-05
1.92627e-05
1.93795e-05
1.94878e-05
1.95886e-05
1.96827e-05
1.97707e-05
1.98534e-05
1.99314e-05
2.00054e-05
2.0076e-05
2.01436e-05
2.02088e-05
2.02716e-05
2.03319e-05
2.03893e-05
2.0443e-05
2.04923e-05
2.05375e-05
2.05878e-05
2.07071e-05
2.07281e-05
2.07473e-05
2.07725e-05
2.08033e-05
2.08391e-05
2.08782e-05
2.09185e-05
2.09571e-05
2.09914e-05
2.10194e-05
2.10413e-05
2.10589e-05
2.10751e-05
2.10925e-05
2.11132e-05
2.11383e-05
2.11684e-05
2.12034e-05
2.12423e-05
1.44741e-05
1.74693e-05
1.77091e-05
1.79342e-05
1.8145e-05
1.8342e-05
1.85255e-05
1.86962e-05
1.88546e-05
1.90015e-05
1.91375e-05
1.92635e-05
1.93803e-05
1.94886e-05
1.95894e-05
1.96833e-05
1.97713e-05
1.9854e-05
1.9932e-05
2.0006e-05
2.00765e-05
2.01442e-05
2.02093e-05
2.02721e-05
2.03325e-05
2.03898e-05
2.04435e-05
2.04928e-05
2.0538e-05
2.05883e-05
2.07075e-05
2.07285e-05
2.07478e-05
2.0773e-05
2.08039e-05
2.08396e-05
2.08787e-05
2.09188e-05
2.09573e-05
2.09914e-05
2.10193e-05
2.10412e-05
2.10589e-05
2.10752e-05
2.10928e-05
2.11135e-05
2.11386e-05
2.11686e-05
2.12035e-05
2.1242e-05
1.44756e-05
1.74706e-05
1.77103e-05
1.79354e-05
1.81462e-05
1.83431e-05
1.85266e-05
1.86973e-05
1.88557e-05
1.90025e-05
1.91385e-05
1.92645e-05
1.93812e-05
1.94895e-05
1.95902e-05
1.96841e-05
1.97721e-05
1.98547e-05
1.99327e-05
2.00066e-05
2.00772e-05
2.01448e-05
2.02099e-05
2.02727e-05
2.03331e-05
2.03904e-05
2.0444e-05
2.04933e-05
2.05385e-05
2.05888e-05
2.0708e-05
2.07291e-05
2.07484e-05
2.07737e-05
2.08045e-05
2.08402e-05
2.08792e-05
2.09193e-05
2.09576e-05
2.09915e-05
2.10194e-05
2.10413e-05
2.10591e-05
2.10755e-05
2.10932e-05
2.1114e-05
2.11391e-05
2.1169e-05
2.12036e-05
2.12417e-05
1.44773e-05
1.7472e-05
1.77117e-05
1.79368e-05
1.81475e-05
1.83444e-05
1.85279e-05
1.86985e-05
1.88569e-05
1.90037e-05
1.91397e-05
1.92656e-05
1.93822e-05
1.94905e-05
1.95911e-05
1.9685e-05
1.97729e-05
1.98555e-05
1.99334e-05
2.00074e-05
2.00779e-05
2.01455e-05
2.02106e-05
2.02734e-05
2.03337e-05
2.03911e-05
2.04447e-05
2.0494e-05
2.05392e-05
2.05894e-05
2.07086e-05
2.07297e-05
2.07491e-05
2.07744e-05
2.08053e-05
2.0841e-05
2.08799e-05
2.09198e-05
2.0958e-05
2.09918e-05
2.10196e-05
2.10415e-05
2.10594e-05
2.10759e-05
2.10937e-05
2.11145e-05
2.11396e-05
2.11694e-05
2.12038e-05
2.12416e-05
1.44792e-05
1.74736e-05
1.77133e-05
1.79383e-05
1.8149e-05
1.83459e-05
1.85293e-05
1.86999e-05
1.88583e-05
1.9005e-05
1.9141e-05
1.92668e-05
1.93834e-05
1.94916e-05
1.95922e-05
1.9686e-05
1.97739e-05
1.98564e-05
1.99343e-05
2.00082e-05
2.00787e-05
2.01463e-05
2.02114e-05
2.02742e-05
2.03345e-05
2.03918e-05
2.04454e-05
2.04947e-05
2.05399e-05
2.05902e-05
2.07092e-05
2.07304e-05
2.07498e-05
2.07752e-05
2.08061e-05
2.08418e-05
2.08807e-05
2.09205e-05
2.09585e-05
2.09922e-05
2.10199e-05
2.10418e-05
2.10598e-05
2.10764e-05
2.10943e-05
2.11152e-05
2.11403e-05
2.117e-05
2.12042e-05
2.12415e-05
1.44813e-05
1.74753e-05
1.7715e-05
1.794e-05
1.81507e-05
1.83475e-05
1.85309e-05
1.87014e-05
1.88598e-05
1.90065e-05
1.91424e-05
1.92682e-05
1.93847e-05
1.94928e-05
1.95934e-05
1.96871e-05
1.97749e-05
1.98574e-05
1.99353e-05
2.00091e-05
2.00796e-05
2.01472e-05
2.02122e-05
2.0275e-05
2.03353e-05
2.03927e-05
2.04462e-05
2.04955e-05
2.05407e-05
2.05909e-05
2.071e-05
2.07312e-05
2.07507e-05
2.07761e-05
2.08071e-05
2.08428e-05
2.08816e-05
2.09213e-05
2.09592e-05
2.09927e-05
2.10203e-05
2.10423e-05
2.10603e-05
2.1077e-05
2.1095e-05
2.1116e-05
2.11411e-05
2.11707e-05
2.12046e-05
2.12415e-05
1.44837e-05
1.74773e-05
1.77169e-05
1.79419e-05
1.81525e-05
1.83492e-05
1.85326e-05
1.87031e-05
1.88614e-05
1.90081e-05
1.91439e-05
1.92696e-05
1.93861e-05
1.94942e-05
1.95947e-05
1.96884e-05
1.97761e-05
1.98585e-05
1.99363e-05
2.00101e-05
2.00806e-05
2.01481e-05
2.02132e-05
2.0276e-05
2.03363e-05
2.03936e-05
2.04471e-05
2.04964e-05
2.05415e-05
2.05918e-05
2.07108e-05
2.0732e-05
2.07516e-05
2.07771e-05
2.08081e-05
2.08438e-05
2.08826e-05
2.09222e-05
2.09599e-05
2.09933e-05
2.10208e-05
2.10428e-05
2.10609e-05
2.10778e-05
2.10958e-05
2.11169e-05
2.1142e-05
2.11715e-05
2.12051e-05
2.12416e-05
1.44862e-05
1.74794e-05
1.7719e-05
1.79439e-05
1.81545e-05
1.83512e-05
1.85345e-05
1.8705e-05
1.88632e-05
1.90098e-05
1.91456e-05
1.92713e-05
1.93877e-05
1.94957e-05
1.95961e-05
1.96897e-05
1.97774e-05
1.98597e-05
1.99375e-05
2.00113e-05
2.00817e-05
2.01492e-05
2.02143e-05
2.0277e-05
2.03373e-05
2.03946e-05
2.04481e-05
2.04974e-05
2.05425e-05
2.05928e-05
2.07116e-05
2.07329e-05
2.07526e-05
2.07781e-05
2.08092e-05
2.08449e-05
2.08837e-05
2.09231e-05
2.09607e-05
2.0994e-05
2.10215e-05
2.10435e-05
2.10617e-05
2.10786e-05
2.10968e-05
2.11179e-05
2.11429e-05
2.11723e-05
2.12058e-05
2.12418e-05
1.4489e-05
1.74817e-05
1.77212e-05
1.79461e-05
1.81566e-05
1.83533e-05
1.85365e-05
1.8707e-05
1.88651e-05
1.90117e-05
1.91474e-05
1.9273e-05
1.93894e-05
1.94973e-05
1.95976e-05
1.96912e-05
1.97788e-05
1.98611e-05
1.99388e-05
2.00125e-05
2.00829e-05
2.01504e-05
2.02154e-05
2.02781e-05
2.03384e-05
2.03957e-05
2.04492e-05
2.04984e-05
2.05435e-05
2.05938e-05
2.07126e-05
2.07339e-05
2.07537e-05
2.07793e-05
2.08105e-05
2.08462e-05
2.08848e-05
2.09242e-05
2.09617e-05
2.09948e-05
2.10222e-05
2.10442e-05
2.10625e-05
2.10796e-05
2.10978e-05
2.1119e-05
2.1144e-05
2.11733e-05
2.12065e-05
2.12421e-05
1.4492e-05
1.74842e-05
1.77237e-05
1.79485e-05
1.8159e-05
1.83555e-05
1.85388e-05
1.87091e-05
1.88672e-05
1.90137e-05
1.91494e-05
1.92749e-05
1.93912e-05
1.9499e-05
1.95993e-05
1.96928e-05
1.97803e-05
1.98625e-05
1.99401e-05
2.00138e-05
2.00841e-05
2.01516e-05
2.02166e-05
2.02793e-05
2.03396e-05
2.03968e-05
2.04503e-05
2.04995e-05
2.05446e-05
2.05949e-05
2.07136e-05
2.0735e-05
2.07548e-05
2.07805e-05
2.08117e-05
2.08475e-05
2.08861e-05
2.09254e-05
2.09627e-05
2.09957e-05
2.10231e-05
2.10451e-05
2.10635e-05
2.10806e-05
2.1099e-05
2.11202e-05
2.11452e-05
2.11744e-05
2.12073e-05
2.12425e-05
1.44952e-05
1.74868e-05
1.77263e-05
1.7951e-05
1.81614e-05
1.8358e-05
1.85411e-05
1.87114e-05
1.88695e-05
1.90159e-05
1.91515e-05
1.92769e-05
1.93931e-05
1.95009e-05
1.96011e-05
1.96945e-05
1.97819e-05
1.9864e-05
1.99416e-05
2.00152e-05
2.00855e-05
2.01529e-05
2.02179e-05
2.02806e-05
2.03409e-05
2.03981e-05
2.04516e-05
2.05007e-05
2.05458e-05
2.05961e-05
2.07147e-05
2.07362e-05
2.07561e-05
2.07818e-05
2.08131e-05
2.08489e-05
2.08875e-05
2.09266e-05
2.09638e-05
2.09967e-05
2.10241e-05
2.10461e-05
2.10645e-05
2.10818e-05
2.11003e-05
2.11215e-05
2.11465e-05
2.11755e-05
2.12082e-05
2.1243e-05
1.44986e-05
1.74897e-05
1.77291e-05
1.79537e-05
1.81641e-05
1.83606e-05
1.85436e-05
1.87139e-05
1.88718e-05
1.90182e-05
1.91537e-05
1.92791e-05
1.93952e-05
1.95029e-05
1.9603e-05
1.96963e-05
1.97836e-05
1.98657e-05
1.99432e-05
2.00168e-05
2.0087e-05
2.01544e-05
2.02193e-05
2.0282e-05
2.03422e-05
2.03994e-05
2.04529e-05
2.0502e-05
2.05471e-05
2.05974e-05
2.07158e-05
2.07374e-05
2.07574e-05
2.07832e-05
2.08146e-05
2.08503e-05
2.08889e-05
2.0928e-05
2.09651e-05
2.09979e-05
2.10251e-05
2.10472e-05
2.10657e-05
2.10831e-05
2.11016e-05
2.11229e-05
2.11479e-05
2.11768e-05
2.12092e-05
2.12436e-05
1.45022e-05
1.74927e-05
1.7732e-05
1.79566e-05
1.81669e-05
1.83633e-05
1.85463e-05
1.87165e-05
1.88744e-05
1.90207e-05
1.91561e-05
1.92814e-05
1.93974e-05
1.9505e-05
1.9605e-05
1.96982e-05
1.97854e-05
1.98674e-05
1.99449e-05
2.00184e-05
2.00885e-05
2.01559e-05
2.02208e-05
2.02835e-05
2.03437e-05
2.04009e-05
2.04543e-05
2.05034e-05
2.05485e-05
2.05987e-05
2.0717e-05
2.07387e-05
2.07588e-05
2.07847e-05
2.08161e-05
2.08519e-05
2.08904e-05
2.09295e-05
2.09664e-05
2.09991e-05
2.10263e-05
2.10484e-05
2.1067e-05
2.10845e-05
2.11031e-05
2.11244e-05
2.11494e-05
2.11782e-05
2.12103e-05
2.12444e-05
1.45061e-05
1.74959e-05
1.77351e-05
1.79597e-05
1.81699e-05
1.83662e-05
1.85491e-05
1.87192e-05
1.8877e-05
1.90232e-05
1.91586e-05
1.92838e-05
1.93997e-05
1.95072e-05
1.96071e-05
1.97002e-05
1.97874e-05
1.98693e-05
1.99466e-05
2.00201e-05
2.00902e-05
2.01575e-05
2.02224e-05
2.0285e-05
2.03452e-05
2.04024e-05
2.04557e-05
2.05049e-05
2.05499e-05
2.06002e-05
2.07183e-05
2.074e-05
2.07602e-05
2.07862e-05
2.08177e-05
2.08535e-05
2.08921e-05
2.0931e-05
2.09678e-05
2.10004e-05
2.10276e-05
2.10497e-05
2.10684e-05
2.1086e-05
2.11047e-05
2.11261e-05
2.1151e-05
2.11796e-05
2.12115e-05
2.12452e-05
1.45101e-05
1.74992e-05
1.77384e-05
1.79629e-05
1.8173e-05
1.83693e-05
1.85521e-05
1.87221e-05
1.88798e-05
1.9026e-05
1.91612e-05
1.92863e-05
1.94022e-05
1.95095e-05
1.96093e-05
1.97024e-05
1.97894e-05
1.98712e-05
1.99485e-05
2.00219e-05
2.0092e-05
2.01592e-05
2.02241e-05
2.02867e-05
2.03468e-05
2.04039e-05
2.04573e-05
2.05064e-05
2.05514e-05
2.06017e-05
2.07196e-05
2.07415e-05
2.07617e-05
2.07879e-05
2.08194e-05
2.08553e-05
2.08937e-05
2.09326e-05
2.09694e-05
2.10019e-05
2.1029e-05
2.10511e-05
2.10699e-05
2.10876e-05
2.11064e-05
2.11278e-05
2.11527e-05
2.11812e-05
2.12129e-05
2.12462e-05
1.45143e-05
1.75027e-05
1.77418e-05
1.79662e-05
1.81763e-05
1.83725e-05
1.85552e-05
1.87251e-05
1.88828e-05
1.90288e-05
1.9164e-05
1.9289e-05
1.94047e-05
1.9512e-05
1.96117e-05
1.97046e-05
1.97916e-05
1.98733e-05
1.99505e-05
2.00238e-05
2.00938e-05
2.0161e-05
2.02258e-05
2.02884e-05
2.03485e-05
2.04056e-05
2.04589e-05
2.0508e-05
2.0553e-05
2.06032e-05
2.0721e-05
2.0743e-05
2.07633e-05
2.07895e-05
2.08212e-05
2.08571e-05
2.08955e-05
2.09343e-05
2.0971e-05
2.10034e-05
2.10305e-05
2.10526e-05
2.10715e-05
2.10893e-05
2.11081e-05
2.11296e-05
2.11545e-05
2.11829e-05
2.12143e-05
2.12473e-05
1.45188e-05
1.75064e-05
1.77454e-05
1.79698e-05
1.81797e-05
1.83758e-05
1.85585e-05
1.87283e-05
1.88859e-05
1.90318e-05
1.91669e-05
1.92918e-05
1.94074e-05
1.95146e-05
1.96142e-05
1.9707e-05
1.97938e-05
1.98755e-05
1.99526e-05
2.00258e-05
2.00957e-05
2.01629e-05
2.02277e-05
2.02902e-05
2.03503e-05
2.04073e-05
2.04606e-05
2.05097e-05
2.05547e-05
2.06049e-05
2.07225e-05
2.07445e-05
2.0765e-05
2.07913e-05
2.0823e-05
2.08589e-05
2.08974e-05
2.09361e-05
2.09727e-05
2.1005e-05
2.10321e-05
2.10543e-05
2.10732e-05
2.10911e-05
2.111e-05
2.11316e-05
2.11564e-05
2.11847e-05
2.12159e-05
2.12486e-05
1.45234e-05
1.75102e-05
1.77492e-05
1.79734e-05
1.81833e-05
1.83793e-05
1.85619e-05
1.87316e-05
1.88891e-05
1.90349e-05
1.91699e-05
1.92947e-05
1.94102e-05
1.95173e-05
1.96167e-05
1.97095e-05
1.97962e-05
1.98777e-05
1.99547e-05
2.00279e-05
2.00978e-05
2.01649e-05
2.02296e-05
2.02921e-05
2.03521e-05
2.04092e-05
2.04624e-05
2.05114e-05
2.05564e-05
2.06066e-05
2.0724e-05
2.07461e-05
2.07667e-05
2.07931e-05
2.08249e-05
2.08609e-05
2.08993e-05
2.0938e-05
2.09745e-05
2.10067e-05
2.10338e-05
2.1056e-05
2.1075e-05
2.1093e-05
2.1112e-05
2.11336e-05
2.11584e-05
2.11866e-05
2.12176e-05
2.12499e-05
1.45282e-05
1.75142e-05
1.77531e-05
1.79773e-05
1.81871e-05
1.83829e-05
1.85654e-05
1.87351e-05
1.88924e-05
1.90382e-05
1.9173e-05
1.92977e-05
1.94131e-05
1.95201e-05
1.96194e-05
1.9712e-05
1.97987e-05
1.98801e-05
1.9957e-05
2.00301e-05
2.00999e-05
2.0167e-05
2.02316e-05
2.02941e-05
2.03541e-05
2.04111e-05
2.04643e-05
2.05132e-05
2.05582e-05
2.06084e-05
2.07256e-05
2.07478e-05
2.07685e-05
2.0795e-05
2.08269e-05
2.08629e-05
2.09013e-05
2.094e-05
2.09763e-05
2.10085e-05
2.10356e-05
2.10578e-05
2.10769e-05
2.1095e-05
2.11142e-05
2.11358e-05
2.11606e-05
2.11887e-05
2.12195e-05
2.12515e-05
1.45332e-05
1.75184e-05
1.77572e-05
1.79812e-05
1.81909e-05
1.83867e-05
1.85691e-05
1.87387e-05
1.88959e-05
1.90415e-05
1.91763e-05
1.93009e-05
1.94162e-05
1.9523e-05
1.96222e-05
1.97147e-05
1.98012e-05
1.98825e-05
1.99594e-05
2.00324e-05
2.01021e-05
2.01691e-05
2.02337e-05
2.02961e-05
2.03561e-05
2.0413e-05
2.04662e-05
2.05151e-05
2.056e-05
2.06102e-05
2.07272e-05
2.07495e-05
2.07703e-05
2.07969e-05
2.08289e-05
2.0865e-05
2.09034e-05
2.0942e-05
2.09783e-05
2.10105e-05
2.10375e-05
2.10598e-05
2.10789e-05
2.10972e-05
2.11164e-05
2.11381e-05
2.11629e-05
2.11909e-05
2.12215e-05
2.12532e-05
1.45384e-05
1.75227e-05
1.77614e-05
1.79854e-05
1.8195e-05
1.83907e-05
1.8573e-05
1.87424e-05
1.88995e-05
1.9045e-05
1.91797e-05
1.93041e-05
1.94193e-05
1.9526e-05
1.96251e-05
1.97175e-05
1.98039e-05
1.98851e-05
1.99618e-05
2.00347e-05
2.01044e-05
2.01713e-05
2.02359e-05
2.02983e-05
2.03582e-05
2.04151e-05
2.04682e-05
2.05171e-05
2.0562e-05
2.06121e-05
2.07289e-05
2.07513e-05
2.07722e-05
2.0799e-05
2.0831e-05
2.08672e-05
2.09056e-05
2.09441e-05
2.09804e-05
2.10124e-05
2.10394e-05
2.10618e-05
2.10811e-05
2.10994e-05
2.11187e-05
2.11405e-05
2.11653e-05
2.11932e-05
2.12236e-05
2.1255e-05
1.45438e-05
1.75272e-05
1.77658e-05
1.79896e-05
1.81991e-05
1.83947e-05
1.85769e-05
1.87462e-05
1.89033e-05
1.90487e-05
1.91832e-05
1.93075e-05
1.94226e-05
1.95291e-05
1.96281e-05
1.97204e-05
1.98066e-05
1.98877e-05
1.99644e-05
2.00372e-05
2.01068e-05
2.01736e-05
2.02382e-05
2.03005e-05
2.03603e-05
2.04172e-05
2.04703e-05
2.05191e-05
2.05639e-05
2.06141e-05
2.07307e-05
2.07531e-05
2.07741e-05
2.0801e-05
2.08332e-05
2.08694e-05
2.09078e-05
2.09463e-05
2.09825e-05
2.10145e-05
2.10415e-05
2.10639e-05
2.10833e-05
2.11018e-05
2.11212e-05
2.1143e-05
2.11678e-05
2.11956e-05
2.12259e-05
2.1257e-05
1.45494e-05
1.75318e-05
1.77703e-05
1.79941e-05
1.82035e-05
1.83989e-05
1.8581e-05
1.87502e-05
1.89071e-05
1.90524e-05
1.91868e-05
1.9311e-05
1.94259e-05
1.95324e-05
1.96312e-05
1.97233e-05
1.98095e-05
1.98905e-05
1.9967e-05
2.00397e-05
2.01092e-05
2.0176e-05
2.02405e-05
2.03028e-05
2.03626e-05
2.04194e-05
2.04724e-05
2.05212e-05
2.0566e-05
2.06161e-05
2.07324e-05
2.0755e-05
2.07762e-05
2.08032e-05
2.08354e-05
2.08717e-05
2.09102e-05
2.09486e-05
2.09847e-05
2.10167e-05
2.10437e-05
2.10662e-05
2.10856e-05
2.11042e-05
2.11238e-05
2.11457e-05
2.11705e-05
2.11982e-05
2.12283e-05
2.12592e-05
1.45552e-05
1.75366e-05
1.7775e-05
1.79986e-05
1.82079e-05
1.84033e-05
1.85852e-05
1.87543e-05
1.89111e-05
1.90563e-05
1.91905e-05
1.93146e-05
1.94294e-05
1.95357e-05
1.96344e-05
1.97264e-05
1.98124e-05
1.98933e-05
1.99697e-05
2.00423e-05
2.01118e-05
2.01785e-05
2.02429e-05
2.03051e-05
2.03649e-05
2.04216e-05
2.04746e-05
2.05233e-05
2.05681e-05
2.06182e-05
2.07343e-05
2.0757e-05
2.07782e-05
2.08053e-05
2.08377e-05
2.08741e-05
2.09126e-05
2.0951e-05
2.09871e-05
2.1019e-05
2.1046e-05
2.10685e-05
2.10881e-05
2.11068e-05
2.11265e-05
2.11484e-05
2.11733e-05
2.1201e-05
2.12309e-05
2.12616e-05
1.45611e-05
1.75415e-05
1.77798e-05
1.80033e-05
1.82125e-05
1.84077e-05
1.85896e-05
1.87585e-05
1.89152e-05
1.90602e-05
1.91943e-05
1.93183e-05
1.9433e-05
1.95391e-05
1.96377e-05
1.97296e-05
1.98155e-05
1.98962e-05
1.99725e-05
2.0045e-05
2.01144e-05
2.0181e-05
2.02454e-05
2.03075e-05
2.03672e-05
2.04239e-05
2.04769e-05
2.05255e-05
2.05702e-05
2.06203e-05
2.07361e-05
2.0759e-05
2.07803e-05
2.08076e-05
2.08401e-05
2.08765e-05
2.0915e-05
2.09534e-05
2.09895e-05
2.10214e-05
2.10484e-05
2.1071e-05
2.10907e-05
2.11095e-05
2.11293e-05
2.11513e-05
2.11762e-05
2.12039e-05
2.12337e-05
2.12641e-05
1.45672e-05
1.75466e-05
1.77847e-05
1.80082e-05
1.82172e-05
1.84123e-05
1.8594e-05
1.87628e-05
1.89194e-05
1.90643e-05
1.91983e-05
1.93221e-05
1.94366e-05
1.95427e-05
1.96411e-05
1.97328e-05
1.98186e-05
1.98992e-05
1.99754e-05
2.00478e-05
2.01171e-05
2.01837e-05
2.02479e-05
2.031e-05
2.03697e-05
2.04263e-05
2.04792e-05
2.05278e-05
2.05725e-05
2.06225e-05
2.0738e-05
2.0761e-05
2.07825e-05
2.08099e-05
2.08425e-05
2.0879e-05
2.09175e-05
2.09559e-05
2.09919e-05
2.10238e-05
2.10508e-05
2.10735e-05
2.10933e-05
2.11123e-05
2.11322e-05
2.11544e-05
2.11793e-05
2.1207e-05
2.12366e-05
2.12668e-05
1.45735e-05
1.75518e-05
1.77898e-05
1.80131e-05
1.82221e-05
1.8417e-05
1.85986e-05
1.87673e-05
1.89237e-05
1.90685e-05
1.92023e-05
1.9326e-05
1.94404e-05
1.95463e-05
1.96446e-05
1.97361e-05
1.98218e-05
1.99023e-05
1.99783e-05
2.00507e-05
2.01198e-05
2.01863e-05
2.02506e-05
2.03126e-05
2.03722e-05
2.04287e-05
2.04815e-05
2.05301e-05
2.05747e-05
2.06247e-05
2.074e-05
2.0763e-05
2.07847e-05
2.08122e-05
2.0845e-05
2.08816e-05
2.09201e-05
2.09585e-05
2.09945e-05
2.10263e-05
2.10534e-05
2.10761e-05
2.10961e-05
2.11152e-05
2.11353e-05
2.11576e-05
2.11825e-05
2.12102e-05
2.12397e-05
2.12698e-05
1.458e-05
1.75571e-05
1.77951e-05
1.80182e-05
1.8227e-05
1.84219e-05
1.86033e-05
1.87719e-05
1.89281e-05
1.90728e-05
1.92065e-05
1.933e-05
1.94442e-05
1.955e-05
1.96481e-05
1.97396e-05
1.98251e-05
1.99054e-05
1.99814e-05
2.00536e-05
2.01227e-05
2.01891e-05
2.02532e-05
2.03152e-05
2.03747e-05
2.04312e-05
2.0484e-05
2.05325e-05
2.0577e-05
2.0627e-05
2.07419e-05
2.07652e-05
2.07869e-05
2.08146e-05
2.08475e-05
2.08842e-05
2.09228e-05
2.09612e-05
2.09971e-05
2.1029e-05
2.1056e-05
2.10789e-05
2.1099e-05
2.11183e-05
2.11385e-05
2.11609e-05
2.11859e-05
2.12136e-05
2.1243e-05
2.12729e-05
1.45866e-05
1.75626e-05
1.78004e-05
1.80235e-05
1.82321e-05
1.84268e-05
1.86081e-05
1.87765e-05
1.89327e-05
1.90771e-05
1.92107e-05
1.93341e-05
1.94482e-05
1.95538e-05
1.96518e-05
1.9743e-05
1.98284e-05
1.99086e-05
1.99845e-05
2.00566e-05
2.01256e-05
2.01919e-05
2.0256e-05
2.03179e-05
2.03774e-05
2.04338e-05
2.04864e-05
2.05349e-05
2.05794e-05
2.06293e-05
2.07439e-05
2.07673e-05
2.07892e-05
2.08171e-05
2.08501e-05
2.08868e-05
2.09255e-05
2.09639e-05
2.09998e-05
2.10317e-05
2.10588e-05
2.10817e-05
2.11019e-05
2.11214e-05
2.11418e-05
2.11643e-05
2.11895e-05
2.12171e-05
2.12465e-05
2.12762e-05
1.45934e-05
1.75682e-05
1.78059e-05
1.80288e-05
1.82373e-05
1.84319e-05
1.86131e-05
1.87813e-05
1.89373e-05
1.90816e-05
1.9215e-05
1.93383e-05
1.94522e-05
1.95576e-05
1.96555e-05
1.97466e-05
1.98318e-05
1.99119e-05
1.99876e-05
2.00596e-05
2.01285e-05
2.01948e-05
2.02588e-05
2.03206e-05
2.038e-05
2.04364e-05
2.0489e-05
2.05373e-05
2.05818e-05
2.06317e-05
2.0746e-05
2.07695e-05
2.07915e-05
2.08195e-05
2.08527e-05
2.08896e-05
2.09283e-05
2.09667e-05
2.10026e-05
2.10344e-05
2.10616e-05
2.10846e-05
2.1105e-05
2.11247e-05
2.11453e-05
2.11679e-05
2.11931e-05
2.12208e-05
2.12502e-05
2.12798e-05
1.46004e-05
1.7574e-05
1.78115e-05
1.80343e-05
1.82427e-05
1.84371e-05
1.86181e-05
1.87862e-05
1.8942e-05
1.90862e-05
1.92194e-05
1.93425e-05
1.94563e-05
1.95616e-05
1.96593e-05
1.97503e-05
1.98353e-05
1.99153e-05
1.99909e-05
2.00628e-05
2.01315e-05
2.01977e-05
2.02617e-05
2.03234e-05
2.03828e-05
2.0439e-05
2.04915e-05
2.05398e-05
2.05842e-05
2.06341e-05
2.0748e-05
2.07716e-05
2.07939e-05
2.08221e-05
2.08553e-05
2.08923e-05
2.09311e-05
2.09695e-05
2.10054e-05
2.10373e-05
2.10645e-05
2.10877e-05
2.11082e-05
2.1128e-05
2.11488e-05
2.11716e-05
2.1197e-05
2.12247e-05
2.12541e-05
2.12836e-05
1.46075e-05
1.75798e-05
1.78173e-05
1.80399e-05
1.82481e-05
1.84424e-05
1.86232e-05
1.87912e-05
1.89468e-05
1.90908e-05
1.92239e-05
1.93469e-05
1.94605e-05
1.95656e-05
1.96631e-05
1.9754e-05
1.98389e-05
1.99187e-05
1.99942e-05
2.00659e-05
2.01346e-05
2.02007e-05
2.02646e-05
2.03263e-05
2.03855e-05
2.04417e-05
2.04941e-05
2.05423e-05
2.05866e-05
2.06365e-05
2.07501e-05
2.07739e-05
2.07963e-05
2.08246e-05
2.0858e-05
2.08951e-05
2.0934e-05
2.09724e-05
2.10083e-05
2.10402e-05
2.10675e-05
2.10908e-05
2.11115e-05
2.11315e-05
2.11525e-05
2.11755e-05
2.1201e-05
2.12288e-05
2.12582e-05
2.12876e-05
1.46148e-05
1.75858e-05
1.78231e-05
1.80456e-05
1.82537e-05
1.84478e-05
1.86285e-05
1.87962e-05
1.89517e-05
1.90956e-05
1.92285e-05
1.93513e-05
1.94647e-05
1.95697e-05
1.96671e-05
1.97577e-05
1.98425e-05
1.99222e-05
1.99975e-05
2.00692e-05
2.01377e-05
2.02038e-05
2.02675e-05
2.03292e-05
2.03883e-05
2.04444e-05
2.04968e-05
2.05449e-05
2.05891e-05
2.06389e-05
2.07522e-05
2.07761e-05
2.07987e-05
2.08272e-05
2.08608e-05
2.0898e-05
2.09369e-05
2.09754e-05
2.10113e-05
2.10432e-05
2.10706e-05
2.1094e-05
2.11149e-05
2.11351e-05
2.11563e-05
2.11795e-05
2.12052e-05
2.12331e-05
2.12624e-05
2.12918e-05
1.46222e-05
1.75919e-05
1.78291e-05
1.80514e-05
1.82593e-05
1.84533e-05
1.86338e-05
1.88014e-05
1.89567e-05
1.91004e-05
1.92332e-05
1.93557e-05
1.9469e-05
1.95738e-05
1.9671e-05
1.97615e-05
1.98462e-05
1.99257e-05
2.00009e-05
2.00724e-05
2.01409e-05
2.02068e-05
2.02705e-05
2.03321e-05
2.03912e-05
2.04472e-05
2.04994e-05
2.05474e-05
2.05916e-05
2.06413e-05
2.07543e-05
2.07783e-05
2.08011e-05
2.08298e-05
2.08635e-05
2.09009e-05
2.09399e-05
2.09784e-05
2.10143e-05
2.10463e-05
2.10737e-05
2.10972e-05
2.11183e-05
2.11388e-05
2.11602e-05
2.11837e-05
2.12095e-05
2.12375e-05
2.12669e-05
2.12963e-05
1.46297e-05
1.75981e-05
1.78351e-05
1.80573e-05
1.82651e-05
1.84589e-05
1.86392e-05
1.88066e-05
1.89618e-05
1.91053e-05
1.92379e-05
1.93603e-05
1.94734e-05
1.9578e-05
1.96751e-05
1.97654e-05
1.98499e-05
1.99293e-05
2.00043e-05
2.00757e-05
2.01441e-05
2.021e-05
2.02736e-05
2.0335e-05
2.0394e-05
2.045e-05
2.05021e-05
2.055e-05
2.05941e-05
2.06438e-05
2.07564e-05
2.07806e-05
2.08035e-05
2.08324e-05
2.08663e-05
2.09038e-05
2.09429e-05
2.09814e-05
2.10174e-05
2.10494e-05
2.10769e-05
2.11006e-05
2.11219e-05
2.11426e-05
2.11643e-05
2.1188e-05
2.1214e-05
2.12421e-05
2.12716e-05
2.1301e-05
1.46374e-05
1.76044e-05
1.78413e-05
1.80633e-05
1.82709e-05
1.84645e-05
1.86447e-05
1.88119e-05
1.89669e-05
1.91102e-05
1.92426e-05
1.93649e-05
1.94778e-05
1.95823e-05
1.96791e-05
1.97693e-05
1.98536e-05
1.99329e-05
2.00078e-05
2.00791e-05
2.01474e-05
2.02131e-05
2.02766e-05
2.0338e-05
2.03969e-05
2.04528e-05
2.05048e-05
2.05526e-05
2.05966e-05
2.06463e-05
2.07584e-05
2.07828e-05
2.0806e-05
2.0835e-05
2.08691e-05
2.09067e-05
2.09459e-05
2.09845e-05
2.10205e-05
2.10525e-05
2.10802e-05
2.1104e-05
2.11256e-05
2.11465e-05
2.11685e-05
2.11924e-05
2.12186e-05
2.12469e-05
2.12765e-05
2.1306e-05
1.46452e-05
1.76108e-05
1.78475e-05
1.80694e-05
1.82768e-05
1.84703e-05
1.86502e-05
1.88173e-05
1.89721e-05
1.91152e-05
1.92475e-05
1.93695e-05
1.94823e-05
1.95865e-05
1.96832e-05
1.97732e-05
1.98574e-05
1.99365e-05
2.00113e-05
2.00825e-05
2.01506e-05
2.02163e-05
2.02797e-05
2.0341e-05
2.03999e-05
2.04556e-05
2.05075e-05
2.05552e-05
2.05992e-05
2.06488e-05
2.07605e-05
2.07851e-05
2.08084e-05
2.08376e-05
2.08719e-05
2.09097e-05
2.0949e-05
2.09876e-05
2.10237e-05
2.10558e-05
2.10835e-05
2.11075e-05
2.11293e-05
2.11505e-05
2.11728e-05
2.11969e-05
2.12234e-05
2.12519e-05
2.12817e-05
2.13112e-05
1.46531e-05
1.76173e-05
1.78538e-05
1.80755e-05
1.82828e-05
1.84761e-05
1.86559e-05
1.88228e-05
1.89774e-05
1.91203e-05
1.92523e-05
1.93742e-05
1.94868e-05
1.95909e-05
1.96874e-05
1.97772e-05
1.98612e-05
1.99402e-05
2.00148e-05
2.00859e-05
2.01539e-05
2.02195e-05
2.02828e-05
2.03441e-05
2.04028e-05
2.04584e-05
2.05102e-05
2.05578e-05
2.06017e-05
2.06512e-05
2.07626e-05
2.07873e-05
2.08108e-05
2.08403e-05
2.08747e-05
2.09126e-05
2.0952e-05
2.09907e-05
2.10268e-05
2.1059e-05
2.10869e-05
2.11111e-05
2.11331e-05
2.11546e-05
2.11772e-05
2.12016e-05
2.12284e-05
2.12571e-05
2.1287e-05
2.13167e-05
1.46611e-05
1.76239e-05
1.78602e-05
1.80818e-05
1.82888e-05
1.84819e-05
1.86615e-05
1.88282e-05
1.89826e-05
1.91254e-05
1.92572e-05
1.93789e-05
1.94913e-05
1.95952e-05
1.96916e-05
1.97812e-05
1.98651e-05
1.99438e-05
2.00184e-05
2.00893e-05
2.01572e-05
2.02227e-05
2.0286e-05
2.03471e-05
2.04057e-05
2.04613e-05
2.0513e-05
2.05605e-05
2.06042e-05
2.06537e-05
2.07646e-05
2.07895e-05
2.08132e-05
2.08429e-05
2.08775e-05
2.09156e-05
2.09551e-05
2.09939e-05
2.10301e-05
2.10623e-05
2.10903e-05
2.11147e-05
2.1137e-05
2.11588e-05
2.11817e-05
2.12065e-05
2.12335e-05
2.12625e-05
2.12926e-05
2.13224e-05
1.46691e-05
1.76305e-05
1.78667e-05
1.8088e-05
1.82949e-05
1.84878e-05
1.86673e-05
1.88338e-05
1.8988e-05
1.91305e-05
1.92622e-05
1.93837e-05
1.94959e-05
1.95996e-05
1.96958e-05
1.97852e-05
1.98689e-05
1.99475e-05
2.00219e-05
2.00927e-05
2.01606e-05
2.02259e-05
2.02891e-05
2.03501e-05
2.04087e-05
2.04641e-05
2.05157e-05
2.05631e-05
2.06067e-05
2.06561e-05
2.07667e-05
2.07917e-05
2.08156e-05
2.08455e-05
2.08803e-05
2.09186e-05
2.09582e-05
2.0997e-05
2.10333e-05
2.10656e-05
2.10937e-05
2.11184e-05
2.11409e-05
2.11631e-05
2.11863e-05
2.12114e-05
2.12388e-05
2.12681e-05
2.12984e-05
2.13284e-05
1.46772e-05
1.76371e-05
1.78732e-05
1.80944e-05
1.83011e-05
1.84938e-05
1.8673e-05
1.88393e-05
1.89933e-05
1.91357e-05
1.92671e-05
1.93884e-05
1.95004e-05
1.9604e-05
1.97e-05
1.97893e-05
1.98728e-05
1.99512e-05
2.00255e-05
2.00962e-05
2.01639e-05
2.02291e-05
2.02922e-05
2.03532e-05
2.04116e-05
2.04669e-05
2.05184e-05
2.05656e-05
2.06092e-05
2.06586e-05
2.07687e-05
2.07939e-05
2.0818e-05
2.08481e-05
2.08831e-05
2.09215e-05
2.09612e-05
2.10002e-05
2.10365e-05
2.10689e-05
2.10972e-05
2.11221e-05
2.11449e-05
2.11674e-05
2.1191e-05
2.12165e-05
2.12442e-05
2.12738e-05
2.13044e-05
2.13346e-05
1.46854e-05
1.76439e-05
1.78797e-05
1.81007e-05
1.83073e-05
1.84998e-05
1.86788e-05
1.88449e-05
1.89987e-05
1.91409e-05
1.92721e-05
1.93932e-05
1.9505e-05
1.96084e-05
1.97042e-05
1.97933e-05
1.98766e-05
1.99549e-05
2.0029e-05
2.00996e-05
2.01672e-05
2.02323e-05
2.02953e-05
2.03562e-05
2.04145e-05
2.04697e-05
2.0521e-05
2.05682e-05
2.06116e-05
2.06609e-05
2.07706e-05
2.0796e-05
2.08203e-05
2.08506e-05
2.08859e-05
2.09244e-05
2.09643e-05
2.10033e-05
2.10397e-05
2.10723e-05
2.11007e-05
2.11258e-05
2.1149e-05
2.11718e-05
2.11958e-05
2.12217e-05
2.12498e-05
2.12797e-05
2.13106e-05
2.13411e-05
1.46937e-05
1.76506e-05
1.78863e-05
1.81071e-05
1.83135e-05
1.85058e-05
1.86846e-05
1.88505e-05
1.90041e-05
1.91461e-05
1.92771e-05
1.9398e-05
1.95096e-05
1.96128e-05
1.97084e-05
1.97973e-05
1.98805e-05
1.99586e-05
2.00326e-05
2.0103e-05
2.01705e-05
2.02355e-05
2.02985e-05
2.03592e-05
2.04174e-05
2.04725e-05
2.05237e-05
2.05707e-05
2.06141e-05
2.06633e-05
2.07725e-05
2.07981e-05
2.08226e-05
2.08531e-05
2.08886e-05
2.09273e-05
2.09673e-05
2.10064e-05
2.10429e-05
2.10756e-05
2.11042e-05
2.11296e-05
2.11531e-05
2.11763e-05
2.12007e-05
2.1227e-05
2.12555e-05
2.12858e-05
2.13171e-05
2.13478e-05
1.47019e-05
1.76574e-05
1.78929e-05
1.81135e-05
1.83197e-05
1.85118e-05
1.86904e-05
1.88561e-05
1.90095e-05
1.91513e-05
1.92821e-05
1.94028e-05
1.95142e-05
1.96171e-05
1.97126e-05
1.98013e-05
1.98843e-05
1.99623e-05
2.00361e-05
2.01064e-05
2.01738e-05
2.02387e-05
2.03015e-05
2.03622e-05
2.04203e-05
2.04752e-05
2.05263e-05
2.05732e-05
2.06164e-05
2.06656e-05
2.07744e-05
2.08001e-05
2.08249e-05
2.08556e-05
2.08913e-05
2.09302e-05
2.09703e-05
2.10095e-05
2.10461e-05
2.10789e-05
2.11077e-05
2.11333e-05
2.11572e-05
2.11808e-05
2.12056e-05
2.12324e-05
2.12613e-05
2.12921e-05
2.13237e-05
2.13548e-05
1.47102e-05
1.76641e-05
1.78995e-05
1.81199e-05
1.83259e-05
1.85178e-05
1.86962e-05
1.88617e-05
1.90149e-05
1.91564e-05
1.92871e-05
1.94075e-05
1.95187e-05
1.96215e-05
1.97167e-05
1.98053e-05