/*--------------------------------*- C++ -*----------------------------------*\
  =========                 |
  \\      /  F ield         | OpenFOAM: The Open Source CFD Toolbox
   \\    /   O peration     | Website:  https://openfoam.org
    \\  /    A nd           | Version:  9
     \\/     M anipulation  |
\*---------------------------------------------------------------------------*/
FoamFile
{
    format      ascii;
    class       volVectorField;
    location    "0.16";
    object      U;
}
// * * * * * * * * * * * * * * * * * * * * * * * * * * * * * * * * * * * * * //

dimensions      [0 1 -1 0 0 0 0];

internalField   nonuniform List<vector> 
5000
(
(-1.05226e-05 0 0.000937252)
(-8.09258e-06 0 0.00195113)
(-7.1452e-06 0 0.00288318)
(-7.36135e-06 0 0.00399154)
(-7.40352e-06 0 0.00535513)
(-6.96198e-06 0 0.00702431)
(-5.97439e-06 0 0.00903558)
(-4.3784e-06 0 0.011405)
(-2.19811e-06 0 0.0141208)
(4.21637e-07 0 0.0171388)
(3.19521e-06 0 0.020382)
(5.72236e-06 0 0.023745)
(7.55816e-06 0 0.0271022)
(8.2909e-06 0 0.0303186)
(7.62696e-06 0 0.0332594)
(5.44463e-06 0 0.0357987)
(1.80843e-06 0 0.0378226)
(-3.03898e-06 0 0.0392295)
(-8.70978e-06 0 0.0399272)
(-1.47068e-05 0 0.0398296)
(-2.04391e-05 0 0.0388563)
(-2.52489e-05 0 0.0369424)
(-2.84927e-05 0 0.0340647)
(-2.97206e-05 0 0.0302895)
(-2.89252e-05 0 0.0258311)
(-2.66655e-05 0 0.0210798)
(-2.3808e-05 0 0.0165319)
(-2.09494e-05 0 0.0125825)
(-1.80409e-05 0 0.00926124)
(-1.45416e-05 0 0.00609477)
(-8.9718e-06 0 0.00186081)
(5.55828e-07 0 -0.00458318)
(1.63044e-05 0 -0.0135168)
(4.05557e-05 0 -0.0251848)
(7.4066e-05 0 -0.0394983)
(0.000115099 0 -0.0560983)
(0.000158078 0 -0.074311)
(0.000193828 0 -0.0930916)
(0.000212564 0 -0.111095)
(0.000209691 0 -0.126973)
(0.000190596 0 -0.139854)
(0.000169105 0 -0.149757)
(0.00015975 0 -0.157598)
(0.000170749 0 -0.164755)
(0.000203039 0 -0.172526)
(0.000253792 0 -0.181829)
(0.0003196 0 -0.193197)
(0.000396105 0 -0.206905)
(0.000473117 0 -0.222981)
(0.000527279 0 -0.240934)
(-5.83473e-05 0 0.000905135)
(-5.57031e-05 0 0.00193781)
(-5.42882e-05 0 0.00287815)
(-5.56656e-05 0 0.0039858)
(-5.6906e-05 0 0.00534547)
(-5.7313e-05 0 0.00700967)
(-5.66895e-05 0 0.00901508)
(-5.47915e-05 0 0.0113781)
(-5.15263e-05 0 0.0140873)
(-4.70608e-05 0 0.0170991)
(-4.18762e-05 0 0.0203371)
(-3.67449e-05 0 0.0236962)
(-3.26215e-05 0 0.027051)
(-3.04779e-05 0 0.0302661)
(-3.11108e-05 0 0.0332067)
(-3.49838e-05 0 0.035746)
(-4.21365e-05 0 0.0377699)
(-5.21641e-05 0 0.0391765)
(-6.42561e-05 0 0.0398733)
(-7.72678e-05 0 0.0397741)
(-8.98051e-05 0 0.0387985)
(-0.000100354 0 0.0368818)
(-0.00010753 0 0.034001)
(-0.000110494 0 0.0302227)
(-0.000109393 0 0.0257614)
(-0.000105407 0 0.0210068)
(-9.99616e-05 0 0.0164542)
(-9.34578e-05 0 0.0124978)
(-8.47928e-05 0 0.0091675)
(-7.22843e-05 0 0.00599211)
(-5.15814e-05 0 0.00174995)
(-1.89141e-05 0 -0.00470169)
(2.93373e-05 0 -0.0136429)
(9.80629e-05 0 -0.0253195)
(0.000188101 0 -0.0396425)
(0.000294326 0 -0.0562516)
(0.00040289 0 -0.0744711)
(0.000492645 0 -0.0932548)
(0.000542353 0 -0.111259)
(0.000543228 0 -0.127141)
(0.00050858 0 -0.140033)
(0.000469826 0 -0.149957)
(0.00045978 0 -0.157825)
(0.000497556 0 -0.165007)
(0.000585972 0 -0.1728)
(0.000718269 0 -0.182123)
(0.000884182 0 -0.193511)
(0.00106879 0 -0.207238)
(0.00124274 0 -0.223327)
(0.00134925 0 -0.241275)
(-0.000133241 0 0.000897334)
(-0.000133495 0 0.00193676)
(-0.000133795 0 0.00288457)
(-0.000135924 0 0.00399319)
(-0.000137699 0 0.00535184)
(-0.000138654 0 0.00701434)
(-0.000138517 0 0.00901764)
(-0.000136954 0 0.0113784)
(-0.000133801 0 0.0140859)
(-0.000129199 0 0.017097)
(-0.000123668 0 0.0203358)
(-0.000118102 0 0.0236977)
(-0.000113659 0 0.027057)
(-0.000111563 0 0.0302779)
(-0.000112872 0 0.0332249)
(-0.000118259 0 0.0357705)
(-0.00012787 0 0.0377995)
(-0.00014126 0 0.0392095)
(-0.000157416 0 0.0399077)
(-0.000174827 0 0.0398074)
(-0.000191601 0 0.0388284)
(-0.000205664 0 0.0369061)
(-0.000215116 0 0.0340186)
(-0.000218797 0 0.0302337)
(-0.000216855 0 0.0257674)
(-0.000210767 0 0.0210106)
(-0.000202235 0 0.0164578)
(-0.000191467 0 0.0125014)
(-0.000176487 0 0.00916957)
(-0.000154475 0 0.0059907)
(-0.000118945 0 0.00174191)
(-6.41073e-05 0 -0.00472116)
(1.47768e-05 0 -0.0136786)
(0.000123376 0 -0.0253739)
(0.000261625 0 -0.0397134)
(0.000421355 0 -0.0563302)
(0.000582711 0 -0.0745413)
(0.000716623 0 -0.0932973)
(0.000794927 0 -0.11126)
(0.000806843 0 -0.1271)
(0.000771121 0 -0.139971)
(0.000730442 0 -0.149902)
(0.00072941 0 -0.1578)
(0.000794554 0 -0.165023)
(0.000930295 0 -0.172855)
(0.00112685 0 -0.18221)
(0.00136751 0 -0.193618)
(0.00162726 0 -0.207346)
(0.00186082 0 -0.223399)
(0.00198887 0 -0.241248)
(-0.000242788 0 0.000897728)
(-0.000245456 0 0.00194147)
(-0.000247624 0 0.00289129)
(-0.000249996 0 0.00399953)
(-0.000251758 0 0.00535667)
(-0.000252657 0 0.00701714)
(-0.000252425 0 0.00901801)
(-0.00025073 0 0.0113763)
(-0.000247419 0 0.014082)
(-0.000242654 0 0.0170926)
(-0.000237003 0 0.0203331)
(-0.000231439 0 0.0236989)
(-0.000227228 0 0.0270647)
(-0.000225722 0 0.030294)
(-0.000228101 0 0.0332505)
(-0.000235132 0 0.0358055)
(-0.000246994 0 0.0378429)
(-0.0002632 0 0.0392594)
(-0.000282595 0 0.0399615)
(-0.000303429 0 0.039862)
(-0.000323472 0 0.0388808)
(-0.000340247 0 0.0369536)
(-0.00035144 0 0.0340592)
(-0.00035554 0 0.0302673)
(-0.000352507 0 0.0257954)
(-0.000343834 0 0.0210357)
(-0.000331348 0 0.016482)
(-0.000315248 0 0.012525)
(-0.000293188 0 0.00919107)
(-0.000261589 0 0.00600784)
(-0.000211737 0 0.00175091)
(-0.000136243 0 -0.0047251)
(-2.98169e-05 0 -0.0137018)
(0.000113964 0 -0.0254188)
(0.000293867 0 -0.0397766)
(0.000499012 0 -0.0563996)
(0.000704986 0 -0.0745959)
(0.000877034 0 -0.0933129)
(0.000982382 0 -0.11122)
(0.00100921 0 -0.127007)
(0.000980226 0 -0.13985)
(0.000945854 0 -0.14979)
(0.000958772 0 -0.157727)
(0.00105066 0 -0.165001)
(0.00122699 0 -0.172883)
(0.00147537 0 -0.182276)
(0.00177348 0 -0.193703)
(0.00208766 0 -0.20742)
(0.00236008 0 -0.223409)
(0.00249575 0 -0.241117)
(-0.000390102 0 0.0009042)
(-0.000393823 0 0.0019511)
(-0.000397371 0 0.00289999)
(-0.000399993 0 0.00400597)
(-0.000401752 0 0.00536073)
(-0.000402587 0 0.00701857)
(-0.000402256 0 0.0090163)
(-0.000400452 0 0.0113712)
(-0.000397033 0 0.0140738)
(-0.000392184 0 0.0170826)
(-0.000386511 0 0.0203231)
(-0.000381041 0 0.0236913)
(-0.000377114 0 0.0270617)
(-0.000376166 0 0.0302978)
(-0.000379458 0 0.0332622)
(-0.000387817 0 0.0358253)
(-0.000401444 0 0.0378699)
(-0.000419812 0 0.0392917)
(-0.000441658 0 0.0399963)
(-0.000465048 0 0.0398964)
(-0.000487501 0 0.0389114)
(-0.000506234 0 0.0369776)
(-0.000518604 0 0.0340748)
(-0.000522796 0 0.0302742)
(-0.000518538 0 0.0257952)
(-0.000507201 0 0.0210307)
(-0.000490577 0 0.0164739)
(-0.000468813 0 0.0125133)
(-0.000439354 0 0.00917353)
(-0.000398115 0 0.00598161)
(-0.000334247 0 0.00171163)
(-0.000239268 0 -0.00478273)
(-0.000107862 0 -0.0137841)
(6.69645e-05 0 -0.0255274)
(0.000282776 0 -0.0399071)
(0.000526494 0 -0.0565387)
(0.000770224 0 -0.0747217)
(0.000975252 0 -0.0934005)
(0.00110596 0 -0.111253)
(0.00115024 0 -0.12699)
(0.00113365 0 -0.139809)
(0.00111166 0 -0.149763)
(0.00114208 0 -0.157745)
(0.00125988 0 -0.165078)
(0.00147113 0 -0.173016)
(0.00176121 0 -0.182451)
(0.00210305 0 -0.1939)
(0.00245581 0 -0.207604)
(0.00275206 0 -0.223523)
(0.00288621 0 -0.241082)
(-0.000577102 0 0.000912283)
(-0.000580526 0 0.00196283)
(-0.000584799 0 0.00290955)
(-0.0005876 0 0.00401216)
(-0.000589436 0 0.00536393)
(-0.000590337 0 0.00701873)
(-0.000590073 0 0.009013)
(-0.000588347 0 0.0113642)
(-0.000585017 0 0.0140634)
(-0.000580275 0 0.0170698)
(-0.00057474 0 0.0203098)
(-0.000569466 0 0.0236798)
(-0.000565835 0 0.0270545)
(-0.000565338 0 0.0302968)
(-0.000569295 0 0.0332686)
(-0.000578582 0 0.0358393)
(-0.000593422 0 0.0378906)
(-0.000613266 0 0.039317)
(-0.000636777 0 0.0400236)
(-0.000661882 0 0.0399224)
(-0.000685913 0 0.0389327)
(-0.000705861 0 0.0369913)
(-0.000718841 0 0.0340788)
(-0.000722803 0 0.0302681)
(-0.000717256 0 0.0257804)
(-0.000703377 0 0.0210094)
(-0.000682784 0 0.0164475)
(-0.000655441 0 0.012481)
(-0.000618564 0 0.00913272)
(-0.000567762 0 0.00592919)
(-0.000490348 0 0.00164292)
(-0.000376919 0 -0.00487376)
(-0.000222603 0 -0.0139036)
(-2.03824e-05 0 -0.0256765)
(0.000226254 0 -0.0400807)
(0.00050256 0 -0.0567223)
(0.000778017 0 -0.0748924)
(0.00101142 0 -0.093533)
(0.00116574 0 -0.111331)
(0.00122919 0 -0.127019)
(0.00122928 0 -0.139817)
(0.00122434 0 -0.149789)
(0.00127494 0 -0.157819)
(0.00141781 0 -0.165215)
(0.00165914 0 -0.173213)
(0.00198246 0 -0.182693)
(0.00235678 0 -0.194163)
(0.00273548 0 -0.20785)
(0.00304411 0 -0.223692)
(0.00317077 0 -0.241093)
(-0.000803681 0 0.000919889)
(-0.000806012 0 0.00197435)
(-0.000810353 0 0.00291928)
(-0.000813109 0 0.0040187)
(-0.000814971 0 0.00536752)
(-0.000815961 0 0.0070194)
(-0.000815816 0 0.00901034)
(-0.000814234 0 0.011358)
(-0.000811075 0 0.014054)
(-0.000806529 0 0.0170584)
(-0.00080122 0 0.0202981)
(-0.000796212 0 0.0236703)
(-0.000792907 0 0.0270496)
(-0.000792823 0 0.0302985)
(-0.000797318 0 0.0332782)
(-0.000807299 0 0.0358569)
(-0.000823004 0 0.0379152)
(-0.000843871 0 0.0393465)
(-0.000868506 0 0.040055)
(-0.00089474 0 0.0399522)
(-0.000919762 0 0.0389574)
(-0.000940395 0 0.0370076)
(-0.000953567 0 0.0340846)
(-0.000957037 0 0.0302627)
(-0.000950113 0 0.0257651)
(-0.000933744 0 0.0209864)
(-0.000909316 0 0.0164182)
(-0.000876557 0 0.0124446)
(-0.000832422 0 0.00908654)
(-0.000772361 0 0.00586992)
(-0.000682201 0 0.00156552)
(-0.000551499 0 -0.00497611)
(-0.000376267 0 -0.0140371)
(-0.000149956 0 -0.0258421)
(0.000123266 0 -0.0402722)
(0.000427301 0 -0.0569239)
(0.00072971 0 -0.0750798)
(0.000987873 0 -0.0936798)
(0.0011643 0 -0.111421)
(0.00124783 0 -0.127057)
(0.00126726 0 -0.139834)
(0.00128225 0 -0.149823)
(0.00135445 0 -0.157905)
(0.00152127 0 -0.165366)
(0.00178866 0 -0.173425)
(0.0021386 0 -0.18295)
(0.00253695 0 -0.194437)
(0.00293259 0 -0.2081)
(0.00324642 0 -0.223855)
(0.0033634 0 -0.241087)
(-0.00106862 0 0.000925877)
(-0.00106966 0 0.00198394)
(-0.00107367 0 0.00292797)
(-0.00107617 0 0.00402503)
(-0.00107797 0 0.00537134)
(-0.00107899 0 0.00702049)
(-0.00107891 0 0.00900827)
(-0.00107741 0 0.0113525)
(-0.00107436 0 0.0140456)
(-0.00106994 0 0.0170481)
(-0.0010648 0 0.020288)
(-0.00106 0 0.0236626)
(-0.00105696 0 0.0270469)
(-0.00105722 0 0.030303)
(-0.00106216 0 0.0332911)
(-0.0010727 0 0.0358783)
(-0.0010891 0 0.037944)
(-0.00111076 0 0.0393805)
(-0.00113625 0 0.0400912)
(-0.00116331 0 0.039987)
(-0.00118902 0 0.038987)
(-0.00121007 0 0.0370285)
(-0.00122323 0 0.0340944)
(-0.00122608 0 0.0302607)
(-0.00121774 0 0.0257524)
(-0.00119892 0 0.020965)
(-0.00117075 0 0.0163895)
(-0.00113276 0 0.0124078)
(-0.00108165 0 0.00903897)
(-0.00101278 0 0.00580819)
(-0.000910803 0 0.0014844)
(-0.000764183 0 -0.00508394)
(-0.000570102 0 -0.0141777)
(-0.000322655 0 -0.0260164)
(-2.63243e-05 0 -0.0404731)
(0.00030159 0 -0.0571347)
(0.000627327 0 -0.0752749)
(0.000907522 0 -0.0938321)
(0.00110473 0 -0.111515)
(0.00120851 0 -0.127098)
(0.00124848 0 -0.139851)
(0.00128468 0 -0.149859)
(0.00137886 0 -0.157992)
(0.00156833 0 -0.165519)
(0.00185858 0 -0.173639)
(0.00223027 0 -0.183207)
(0.00264681 0 -0.194708)
(0.00305386 0 -0.20834)
(0.00336942 0 -0.223998)
(0.00347755 0 -0.24105)
(-0.00136986 0 0.000930286)
(-0.00136992 0 0.00199132)
(-0.00137362 0 0.00293523)
(-0.0013759 0 0.00403081)
(-0.00137765 0 0.00537511)
(-0.00137872 0 0.00702171)
(-0.0013787 0 0.00900639)
(-0.00137727 0 0.0113473)
(-0.00137431 0 0.0140374)
(-0.00137001 0 0.0170382)
(-0.00136501 0 0.0202782)
(-0.00136039 0 0.0236555)
(-0.00135759 0 0.0270449)
(-0.00135815 0 0.0303082)
(-0.00136348 0 0.0333048)
(-0.00137451 0 0.0359008)
(-0.00139149 0 0.0379741)
(-0.00141382 0 0.039416)
(-0.00144001 0 0.0401289)
(-0.00146774 0 0.0400232)
(-0.00149398 0 0.0390177)
(-0.00151529 0 0.0370502)
(-0.0015283 0 0.0341046)
(-0.00153045 0 0.0302585)
(-0.00152066 0 0.0257387)
(-0.00149941 0 0.0209418)
(-0.00146764 0 0.0163578)
(-0.00142467 0 0.0123669)
(-0.00136705 0 0.00898626)
(-0.00129 0 0.00574017)
(-0.00117726 0 0.00139559)
(-0.00101623 0 -0.00520113)
(-0.000805358 0 -0.0143291)
(-0.000539356 0 -0.0262026)
(-0.000222827 0 -0.0406867)
(0.000125884 0 -0.057358)
(0.000472159 0 -0.0754819)
(0.00077227 0 -0.0939957)
(0.00098907 0 -0.111619)
(0.00111286 0 -0.127149)
(0.00117367 0 -0.13988)
(0.00123136 0 -0.149906)
(0.00134715 0 -0.158089)
(0.00155784 0 -0.165682)
(0.00186833 0 -0.173863)
(0.00225822 0 -0.183473)
(0.00268908 0 -0.194984)
(0.00310431 0 -0.208579)
(0.00342048 0 -0.224134)
(0.00352223 0 -0.241002)
(-0.00170591 0 0.000933878)
(-0.0017055 0 0.00199744)
(-0.00170921 0 0.00294169)
(-0.0017115 0 0.0040364)
(-0.00171338 0 0.00537897)
(-0.0017146 0 0.00702309)
(-0.00171474 0 0.00900467)
(-0.00171349 0 0.0113423)
(-0.00171073 0 0.0140294)
(-0.00170667 0 0.0170284)
(-0.00170194 0 0.0202686)
(-0.00169762 0 0.0236484)
(-0.00169514 0 0.027043)
(-0.00169607 0 0.0303135)
(-0.00170182 0 0.0333187)
(-0.00171333 0 0.0359234)
(-0.00173085 0 0.0380043)
(-0.00175376 0 0.0394515)
(-0.00178055 0 0.0401666)
(-0.00180881 0 0.0400591)
(-0.00183544 0 0.039048)
(-0.00185687 0 0.0370711)
(-0.00186961 0 0.0341133)
(-0.00187093 0 0.0302542)
(-0.0018596 0 0.0257221)
(-0.00183596 0 0.0209147)
(-0.00180075 0 0.0163213)
(-0.00175319 0 0.0123201)
(-0.00168968 0 0.00892653)
(-0.00160533 0 0.00566399)
(-0.00148297 0 0.00129719)
(-0.0013091 0 -0.00532949)
(-0.00108341 0 -0.0144929)
(-0.000801127 0 -0.0264023)
(-0.00046692 0 -0.0409143)
(-9.99846e-05 0 -0.0575956)
(0.000264537 0 -0.0757031)
(0.000582791 0 -0.0941735)
(0.000818094 0 -0.111738)
(0.000961398 0 -0.127216)
(0.00104288 0 -0.139925)
(0.00112181 0 -0.149969)
(0.00125849 0 -0.158204)
(0.00148898 0 -0.165861)
(0.00181755 0 -0.174101)
(0.00222296 0 -0.18375)
(0.00266549 0 -0.195268)
(0.00308711 0 -0.208822)
(0.00340402 0 -0.224271)
(0.00350252 0 -0.240953)
(-0.00207684 0 0.000937536)
(-0.00207631 0 0.00200367)
(-0.0020804 0 0.00294849)
(-0.00208298 0 0.00404254)
(-0.00208514 0 0.00538346)
(-0.00208666 0 0.00702508)
(-0.00208709 0 0.00900354)
(-0.00208617 0 0.0113378)
(-0.00208378 0 0.0140221)
(-0.00208014 0 0.0170194)
(-0.00207588 0 0.0202597)
(-0.00207206 0 0.0236421)
(-0.00207009 0 0.0270417)
(-0.00207154 0 0.0303195)
(-0.00207782 0 0.0333332)
(-0.00208986 0 0.0359465)
(-0.00210794 0 0.0380349)
(-0.00213141 0 0.0394875)
(-0.00215872 0 0.0402045)
(-0.00218742 0 0.0400951)
(-0.00221431 0 0.0390779)
(-0.00223573 0 0.0370912)
(-0.00224805 0 0.0341209)
(-0.00224842 0 0.030248)
(-0.0022355 0 0.025703)
(-0.00220951 0 0.0208842)
(-0.00217109 0 0.0162806)
(-0.0021194 0 0.0122683)
(-0.00205072 0 0.00886077)
(-0.00196001 0 0.00558081)
(-0.00182928 0 0.00119055)
(-0.00164415 0 -0.00546746)
(-0.00140552 0 -0.0146675)
(-0.00110903 0 -0.0266136)
(-0.000759378 0 -0.0411542)
(-0.000376461 0 -0.0578457)
(4.2914e-06 0 -0.0759371)
(0.000339085 0 -0.0943646)
(0.000591806 0 -0.111871)
(0.000753988 0 -0.127298)
(0.00085573 0 -0.139986)
(0.00095541 0 -0.150049)
(0.00111216 0 -0.158334)
(0.00136113 0 -0.166054)
(0.00170603 0 -0.174352)
(0.00212499 0 -0.184038)
(0.00257745 0 -0.19556)
(0.00300461 0 -0.20907)
(0.00332315 0 -0.22441)
(0.00342175 0 -0.240908)
(-0.00248405 0 0.000941761)
(-0.00248352 0 0.00201085)
(-0.00248817 0 0.00295639)
(-0.00249114 0 0.00404979)
(-0.00249366 0 0.00538896)
(-0.00249553 0 0.00702801)
(-0.00249633 0 0.00900337)
(-0.0024958 0 0.0113344)
(-0.00249389 0 0.0140158)
(-0.0024908 0 0.0170115)
(-0.00248715 0 0.020252)
(-0.00248398 0 0.0236369)
(-0.00248268 0 0.0270415)
(-0.00248479 0 0.0303265)
(-0.0024917 0 0.0333486)
(-0.00250437 0 0.0359705)
(-0.00252304 0 0.0380665)
(-0.00254708 0 0.0395242)
(-0.00257489 0 0.0402431)
(-0.00260398 0 0.0401316)
(-0.00263108 0 0.039108)
(-0.00265242 0 0.0371111)
(-0.00266427 0 0.0341277)
(-0.00266369 0 0.0302405)
(-0.00264924 0 0.0256819)
(-0.00262105 0 0.0208512)
(-0.00257972 0 0.0162367)
(-0.00252439 0 0.0122125)
(-0.00245124 0 0.0087905)
(-0.00235509 0 0.00549236)
(-0.00221716 0 0.00107761)
(-0.00202233 0 -0.00561289)
(-0.00177256 0 -0.0148504)
(-0.00146378 0 -0.0268341)
(-0.00110074 0 -0.0414038)
(-0.000703882 0 -0.0581059)
(-0.000308778 0 -0.0761814)
(4.10022e-05 0 -0.0945664)
(0.000310002 0 -0.112015)
(0.000490287 0 -0.127393)
(0.000611718 0 -0.14006)
(0.000731572 0 -0.150141)
(0.000907614 0 -0.158476)
(0.00117401 0 -0.166259)
(0.00153394 0 -0.174612)
(0.00196513 0 -0.184333)
(0.00242656 0 -0.195856)
(0.00285918 0 -0.209321)
(0.00318076 0 -0.224551)
(0.00328286 0 -0.240866)
(-0.00292927 0 0.000946565)
(-0.00292862 0 0.00201907)
(-0.00293379 0 0.00296547)
(-0.00293708 0 0.00405816)
(-0.0029399 0 0.00539548)
(-0.00294206 0 0.00703191)
(-0.00294318 0 0.00900422)
(-0.00294304 0 0.0113322)
(-0.00294158 0 0.0140109)
(-0.00293904 0 0.017005)
(-0.00293601 0 0.0202457)
(-0.00293351 0 0.0236332)
(-0.00293291 0 0.0270427)
(-0.00293572 0 0.0303347)
(-0.00294333 0 0.0333652)
(-0.00295667 0 0.0359957)
(-0.00297599 0 0.038099)
(-0.00300063 0 0.0395618)
(-0.00302898 0 0.0402824)
(-0.00305849 0 0.0401686)
(-0.00308583 0 0.0391384)
(-0.00310715 0 0.0371308)
(-0.00311864 0 0.0341339)
(-0.00311726 0 0.0302319)
(-0.00310149 0 0.0256591)
(-0.00307143 0 0.020816)
(-0.0030276 0 0.01619)
(-0.00296913 0 0.0121536)
(-0.00289214 0 0.00871651)
(-0.00279134 0 0.00539957)
(-0.00264727 0 0.000959466)
(-0.00244419 0 -0.00576447)
(-0.00218498 0 -0.0150402)
(-0.00186573 0 -0.0270622)
(-0.00149119 0 -0.0416615)
(-0.00108233 0 -0.0583745)
(-0.000674666 0 -0.0764345)
(-0.000311445 0 -0.0947778)
(-2.73781e-05 0 -0.112171)
(0.000170116 0 -0.1275)
(0.000310566 0 -0.140147)
(0.000449999 0 -0.150246)
(0.000644681 0 -0.158629)
(0.000927735 0 -0.166473)
(0.00130186 0 -0.174881)
(0.00174456 0 -0.184634)
(0.00221468 0 -0.196157)
(0.00265331 0 -0.209574)
(0.00297971 0 -0.224694)
(0.00308866 0 -0.240828)
(-0.00341357 0 0.000951671)
(-0.00341259 0 0.00202789)
(-0.00341811 0 0.00297524)
(-0.00342155 0 0.00406723)
(-0.0034245 0 0.00540268)
(-0.00342683 0 0.00703651)
(-0.00342815 0 0.00900585)
(-0.00342828 0 0.0113308)
(-0.00342718 0 0.014007)
(-0.00342507 0 0.0169997)
(-0.00342256 0 0.0202407)
(-0.00342064 0 0.0236307)
(-0.00342066 0 0.0270452)
(-0.00342413 0 0.0303442)
(-0.00343241 0 0.033383)
(-0.00344645 0 0.0360218)
(-0.00346645 0 0.0381325)
(-0.00349175 0 0.0396002)
(-0.00352071 0 0.0403224)
(-0.00355073 0 0.0402061)
(-0.00357844 0 0.039169)
(-0.00359991 0 0.0371505)
(-0.00361128 0 0.0341396)
(-0.00360943 0 0.0302225)
(-0.00359276 0 0.025635)
(-0.00356128 0 0.0207789)
(-0.00351546 0 0.016141)
(-0.00345437 0 0.0120918)
(-0.0033741 0 0.00863921)
(-0.00326933 0 0.00530293)
(-0.00312007 0 0.000836764)
(-0.00291008 0 -0.00592139)
(-0.00264299 0 -0.015236)
(-0.00231497 0 -0.027297)
(-0.00193073 0 -0.0419264)
(-0.00151165 0 -0.0586506)
(-0.00109315 0 -0.0766956)
(-0.000718003 0 -0.0949981)
(-0.000420116 0 -0.112336)
(-0.000206384 0 -0.127618)
(-4.76607e-05 0 -0.140247)
(0.000110748 0 -0.150364)
(0.000323524 0 -0.158794)
(0.000622716 0 -0.166697)
(0.00101059 0 -0.175157)
(0.00146457 0 -0.184942)
(0.00194363 0 -0.196462)
(0.00238929 0 -0.209831)
(0.00272256 0 -0.224841)
(0.00284162 0 -0.240799)
(-0.00393702 0 0.000956758)
(-0.00393558 0 0.00203671)
(-0.00394126 0 0.00298508)
(-0.00394464 0 0.00407643)
(-0.00394757 0 0.0054101)
(-0.00394992 0 0.00704144)
(-0.00395132 0 0.00900794)
(-0.00395158 0 0.01133)
(-0.00395069 0 0.0140039)
(-0.00394887 0 0.0169952)
(-0.00394671 0 0.0202366)
(-0.00394523 0 0.0236292)
(-0.00394576 0 0.0270487)
(-0.0039498 0 0.0303547)
(-0.00395871 0 0.0334018)
(-0.00397341 0 0.0360491)
(-0.00399413 0 0.038167)
(-0.00402016 0 0.0396397)
(-0.00404984 0 0.0403633)
(-0.00408054 0 0.0402442)
(-0.00410881 0 0.0392001)
(-0.00413072 0 0.0371704)
(-0.0041423 0 0.0341452)
(-0.00414041 0 0.0302124)
(-0.00412334 0 0.0256099)
(-0.004091 0 0.0207403)
(-0.00404375 0 0.0160901)
(-0.00398057 0 0.0120276)
(-0.0038976 0 0.008559)
(-0.00378949 0 0.00520296)
(-0.00363592 0 0.000710178)
(-0.00342027 0 -0.0060828)
(-0.00314676 0 -0.0154369)
(-0.00281155 0 -0.0275373)
(-0.00241929 0 -0.0421972)
(-0.00199167 0 -0.0589331)
(-0.00156391 0 -0.0769637)
(-0.00117827 0 -0.0952266)
(-0.000867789 0 -0.112512)
(-0.000638829 0 -0.127748)
(-0.000462644 0 -0.140358)
(-0.000285907 0 -0.150493)
(-5.55449e-05 0 -0.15897)
(0.000259413 0 -0.16693)
(0.000660845 0 -0.175442)
(0.00112623 0 -0.185256)
(0.00161485 0 -0.196773)
(0.0020689 0 -0.210093)
(0.00241125 0 -0.224995)
(0.00254359 0 -0.240781)
(-0.00449888 0 0.000961605)
(-0.00449697 0 0.0020451)
(-0.00450267 0 0.0029945)
(-0.00450588 0 0.00408532)
(-0.00450866 0 0.00541736)
(-0.00451095 0 0.00704635)
(-0.00451233 0 0.00901015)
(-0.00451264 0 0.0113295)
(-0.00451185 0 0.0140011)
(-0.0045102 0 0.0169912)
(-0.00450829 0 0.0202332)
(-0.00450713 0 0.0236285)
(-0.00450807 0 0.0270531)
(-0.0045126 0 0.0303662)
(-0.0045221 0 0.0334216)
(-0.00453747 0 0.0360774)
(-0.00455894 0 0.0382027)
(-0.0045858 0 0.0396802)
(-0.00461634 0 0.0404052)
(-0.0046479 0 0.0402834)
(-0.00467701 0 0.039232)
(-0.00469965 0 0.0371908)
(-0.00471185 0 0.0341511)
(-0.00471037 0 0.0302024)
(-0.00469344 0 0.0255844)
(-0.00466081 0 0.0207009)
(-0.0046127 0 0.0160376)
(-0.00454802 0 0.0119614)
(-0.00446294 0 0.00847641)
(-0.00435217 0 0.00510027)
(-0.00419518 0 0.000580466)
(-0.0039751 0 -0.00624779)
(-0.00369654 0 -0.0156418)
(-0.0033556 0 -0.0277822)
(-0.00295688 0 -0.0424731)
(-0.00252224 0 -0.059221)
(-0.00208669 0 -0.077238)
(-0.00169187 0 -0.0954623)
(-0.00136994 0 -0.112696)
(-0.00112676 0 -0.127888)
(-0.00093399 0 -0.140482)
(-0.000739647 0 -0.150635)
(-0.000492244 0 -0.159157)
(-0.00016185 0 -0.167174)
(0.000253085 0 -0.175735)
(0.000730201 0 -0.185578)
(0.00122922 0 -0.197091)
(0.0016932 0 -0.210361)
(0.00204695 0 -0.225157)
(0.00219572 0 -0.240777)
(-0.00509801 0 0.000966154)
(-0.00509569 0 0.00205291)
(-0.00510136 0 0.00300329)
(-0.00510439 0 0.00409369)
(-0.00510703 0 0.00542426)
(-0.00510924 0 0.00705106)
(-0.00511061 0 0.00901228)
(-0.00511095 0 0.0113291)
(-0.00511025 0 0.0139985)
(-0.00510874 0 0.0169876)
(-0.00510705 0 0.0202302)
(-0.00510619 0 0.0236284)
(-0.00510752 0 0.0270582)
(-0.00511254 0 0.0303785)
(-0.00512263 0 0.0334425)
(-0.00513873 0 0.0361069)
(-0.00516103 0 0.0382396)
(-0.00518883 0 0.0397221)
(-0.00522039 0 0.0404485)
(-0.00525303 0 0.0403239)
(-0.00528322 0 0.039265)
(-0.00530693 0 0.0372123)
(-0.00532012 0 0.0341579)
(-0.00531949 0 0.030193)
(-0.00530318 0 0.0255591)
(-0.00527079 0 0.0206611)
(-0.0052224 0 0.0159843)
(-0.00515685 0 0.0118938)
(-0.00507033 0 0.00839203)
(-0.00495768 0 0.00499551)
(-0.00479825 0 0.000448403)
(-0.00457498 0 -0.00641548)
(-0.00429269 0 -0.0158498)
(-0.00394742 0 -0.0280306)
(-0.00354368 0 -0.0427529)
(-0.00310342 0 -0.0595133)
(-0.00266136 0 -0.0775174)
(-0.00225852 0 -0.0957045)
(-0.00192621 0 -0.112889)
(-0.0016698 0 -0.128039)
(-0.00146136 0 -0.140616)
(-0.00125022 0 -0.150788)
(-0.000986411 0 -0.159355)
(-0.000640945 0 -0.167427)
(-0.000212531 0 -0.176037)
(0.000276721 0 -0.185907)
(0.000787106 0 -0.197416)
(0.00126265 0 -0.210638)
(0.00163018 0 -0.225329)
(0.0017985 0 -0.240787)
(-0.00573312 0 0.000970499)
(-0.0057305 0 0.00206028)
(-0.00573619 0 0.0030116)
(-0.00573913 0 0.00410166)
(-0.00574172 0 0.0054309)
(-0.00574395 0 0.00705565)
(-0.00574538 0 0.00901443)
(-0.00574585 0 0.0113287)
(-0.00574533 0 0.0139962)
(-0.00574407 0 0.0169843)
(-0.0057427 0 0.0202277)
(-0.00574224 0 0.0236289)
(-0.00574406 0 0.0270641)
(-0.00574968 0 0.0303919)
(-0.00576048 0 0.0334645)
(-0.0057774 0 0.0361377)
(-0.00580067 0 0.038278)
(-0.00582955 0 0.0397655)
(-0.00586232 0 0.0404934)
(-0.00589626 0 0.0403659)
(-0.0059278 0 0.0392997)
(-0.00595286 0 0.0372353)
(-0.00596738 0 0.0341659)
(-0.00596798 0 0.0301845)
(-0.00595269 0 0.0255344)
(-0.00592101 0 0.0206214)
(-0.00587289 0 0.0159306)
(-0.00580711 0 0.0118254)
(-0.00571994 0 0.00830655)
(-0.00560632 0 0.00488942)
(-0.00544555 0 0.000314795)
(-0.0052204 0 -0.00658502)
(-0.00493569 0 -0.01606)
(-0.00458739 0 -0.0282816)
(-0.00417999 0 -0.0430357)
(-0.00373536 0 -0.0598093)
(-0.00328793 0 -0.0778013)
(-0.0028781 0 -0.0959525)
(-0.00253637 0 -0.113089)
(-0.00226767 0 -0.128198)
(-0.00204451 0 -0.140761)
(-0.00181749 0 -0.150951)
(-0.001538 0 -0.159563)
(-0.0011779 0 -0.16769)
(-0.000736059 0 -0.176347)
(-0.00023424 0 -0.186244)
(0.000288516 0 -0.197748)
(0.000777331 0 -0.210923)
(0.00116103 0 -0.225514)
(0.00135199 0 -0.240816)
(-0.00640308 0 0.000974807)
(-0.00640029 0 0.00206752)
(-0.0064061 0 0.00301977)
(-0.0064091 0 0.00410958)
(-0.0064118 0 0.00543762)
(-0.0064142 0 0.00706048)
(-0.00641588 0 0.00901694)
(-0.00641666 0 0.0113289)
(-0.00641653 0 0.0139944)
(-0.00641574 0 0.0169818)
(-0.00641492 0 0.0202261)
(-0.0064151 0 0.0236305)
(-0.00641763 0 0.0270711)
(-0.00642406 0 0.0304065)
(-0.00643578 0 0.033488)
(-0.00645373 0 0.0361702)
(-0.00647816 0 0.0383182)
(-0.00650833 0 0.0398109)
(-0.00654252 0 0.0405403)
(-0.00657797 0 0.04041)
(-0.0066111 0 0.0393362)
(-0.00663779 0 0.03726)
(-0.0066539 0 0.0341755)
(-0.00665601 0 0.0301774)
(-0.00664208 0 0.0255107)
(-0.0066115 0 0.0205824)
(-0.00656416 0 0.0158772)
(-0.00649886 0 0.011757)
(-0.00641192 0 0.00822074)
(-0.00629837 0 0.00478285)
(-0.00613749 0 0.000180528)
(-0.00591183 0 -0.00675552)
(-0.00562602 0 -0.0162716)
(-0.00527597 0 -0.0285344)
(-0.00486615 0 -0.0433208)
(-0.00441828 0 -0.0601081)
(-0.00396649 0 -0.078089)
(-0.00355057 0 -0.0962056)
(-0.00320029 0 -0.113295)
(-0.00292023 0 -0.128367)
(-0.00268335 0 -0.140916)
(-0.00244141 0 -0.151125)
(-0.00214705 0 -0.159781)
(-0.00177283 0 -0.167962)
(-0.00131764 0 -0.176666)
(-0.000802826 0 -0.18659)
(-0.000266676 0 -0.19809)
(0.000237115 0 -0.211219)
(0.000639362 0 -0.225712)
(0.000855974 0 -0.240864)
(-0.00710714 0 0.000979239)
(-0.0071043 0 0.00207493)
(-0.00711036 0 0.0030282)
(-0.00711356 0 0.00411789)
(-0.00711653 0 0.0054449)
(-0.0071193 0 0.00706602)
(-0.00712144 0 0.00902032)
(-0.00712278 0 0.0113301)
(-0.00712331 0 0.0139939)
(-0.00712329 0 0.0169805)
(-0.00712334 0 0.0202259)
(-0.00712448 0 0.0236336)
(-0.00712806 0 0.0270799)
(-0.00713561 0 0.030423)
(-0.00714854 0 0.0335134)
(-0.00716781 0 0.0362046)
(-0.00719366 0 0.0383605)
(-0.00722538 0 0.0398584)
(-0.00726123 0 0.0405895)
(-0.00729844 0 0.0404563)
(-0.0073334 0 0.039375)
(-0.00736194 0 0.0372868)
(-0.00737988 0 0.034187)
(-0.00738374 0 0.0301719)
(-0.00737142 0 0.0254884)
(-0.00734229 0 0.0205446)
(-0.00729624 0 0.0158247)
(-0.00723213 0 0.0116892)
(-0.00714636 0 0.00813551)
(-0.00703403 0 0.00467676)
(-0.00687437 0 4.65572e-05)
(-0.00664964 0 -0.00692605)
(-0.00636407 0 -0.0164837)
(-0.0060135 0 -0.0287882)
(-0.00560243 0 -0.0436075)
(-0.00515236 0 -0.0604091)
(-0.00469713 0 -0.0783798)
(-0.00427595 0 -0.0964633)
(-0.00391797 0 -0.113509)
(-0.00362748 0 -0.128543)
(-0.0033779 0 -0.14108)
(-0.00312207 0 -0.151309)
(-0.0028137 0 -0.160009)
(-0.00242589 0 -0.168243)
(-0.00195746 0 -0.176993)
(-0.00142921 0 -0.186945)
(-0.000878641 0 -0.198442)
(-0.000358189 0 -0.211526)
(6.48892e-05 0 -0.225926)
(0.000310006 0 -0.240933)
(-0.00784511 0 0.000983922)
(-0.00784227 0 0.0020828)
(-0.00784866 0 0.00303725)
(-0.00785217 0 0.00412702)
(-0.00785555 0 0.0054532)
(-0.00785886 0 0.0070728)
(-0.00786167 0 0.00902514)
(-0.00786381 0 0.0113329)
(-0.00786528 0 0.0139951)
(-0.00786633 0 0.0169813)
(-0.00786758 0 0.0202279)
(-0.00787002 0 0.0236389)
(-0.00787501 0 0.027091)
(-0.00788406 0 0.0304418)
(-0.00789856 0 0.0335412)
(-0.00791948 0 0.0362416)
(-0.00794707 0 0.0384053)
(-0.00798063 0 0.0399086)
(-0.00801842 0 0.0406412)
(-0.00805767 0 0.0405051)
(-0.00809472 0 0.0394162)
(-0.00812535 0 0.0373159)
(-0.00814534 0 0.0342006)
(-0.00815116 0 0.0301684)
(-0.0081407 0 0.0254678)
(-0.00811337 0 0.0205082)
(-0.00806912 0 0.0157736)
(-0.00800695 0 0.0116229)
(-0.00792333 0 0.00805176)
(-0.0078134 0 0.00457214)
(-0.00765634 0 -8.61312e-05)
(-0.00743399 0 -0.0070957)
(-0.00715001 0 -0.0166954)
(-0.00680017 0 -0.0290422)
(-0.00638898 0 -0.0438949)
(-0.0059377 0 -0.0607117)
(-0.00547993 0 -0.0786733)
(-0.00505434 0 -0.0967251)
(-0.00468955 0 -0.113728)
(-0.00438962 0 -0.128726)
(-0.00412841 0 -0.141253)
(-0.00385972 0 -0.151501)
(-0.00353819 0 -0.160245)
(-0.00313733 0 -0.168533)
(-0.00265573 0 -0.17733)
(-0.00211363 0 -0.187309)
(-0.00154765 0 -0.198804)
(-0.00100893 0 -0.211847)
(-0.000562863 0 -0.226157)
(-0.000286635 0 -0.241027)
(-0.00861711 0 0.000988932)
(-0.00861429 0 0.00209127)
(-0.00862103 0 0.00304715)
(-0.00862491 0 0.00413725)
(-0.00862879 0 0.00546289)
(-0.00863276 0 0.00708124)
(-0.00863639 0 0.0090319)
(-0.00863951 0 0.0113379)
(-0.00864214 0 0.0139988)
(-0.00864451 0 0.0169847)
(-0.00864724 0 0.0202327)
(-0.00865131 0 0.0236472)
(-0.00865805 0 0.0271051)
(-0.00866894 0 0.0304637)
(-0.00868536 0 0.0335721)
(-0.00870829 0 0.0362816)
(-0.00873797 0 0.0384532)
(-0.00877371 0 0.0399617)
(-0.00881378 0 0.0406959)
(-0.00885536 0 0.0405569)
(-0.00889479 0 0.0394601)
(-0.00892779 0 0.0373476)
(-0.00895009 0 0.0342166)
(-0.00895814 0 0.030167)
(-0.00894985 0 0.0254493)
(-0.00892469 0 0.0204739)
(-0.0088828 0 0.0157246)
(-0.00882333 0 0.0115588)
(-0.00874285 0 0.00797043)
(-0.00863648 0 0.00446998)
(-0.00848337 0 -0.000216558)
(-0.00826485 0 -0.00726354)
(-0.00798384 0 -0.016906)
(-0.00763597 0 -0.0292956)
(-0.00722581 0 -0.0441824)
(-0.00677435 0 -0.0610152)
(-0.00631498 0 -0.0789688)
(-0.00588594 0 -0.0969904)
(-0.00551533 0 -0.113952)
(-0.00520705 0 -0.128917)
(-0.00493532 0 -0.141433)
(-0.00465482 0 -0.151702)
(-0.00432097 0 -0.16049)
(-0.00390753 0 -0.168831)
(-0.00341285 0 -0.177676)
(-0.0028565 0 -0.187684)
(-0.00227418 0 -0.199178)
(-0.00171572 0 -0.212183)
(-0.00124472 0 -0.226407)
(-0.000935056 0 -0.241146)
(-0.00942334 0 0.000994282)
(-0.00942053 0 0.00210041)
(-0.00942764 0 0.00305799)
(-0.00943192 0 0.00414873)
(-0.00943634 0 0.00547416)
(-0.00944101 0 0.00709162)
(-0.00944554 0 0.00904096)
(-0.00944975 0 0.0113456)
(-0.00945367 0 0.0140055)
(-0.00945754 0 0.0169914)
(-0.00946196 0 0.0202409)
(-0.0094679 0 0.0236591)
(-0.00947666 0 0.0271228)
(-0.00948968 0 0.0304893)
(-0.00950835 0 0.0336067)