/*--------------------------------*- C++ -*----------------------------------*\
  =========                 |
  \\      /  F ield         | OpenFOAM: The Open Source CFD Toolbox
   \\    /   O peration     | Website:  https://openfoam.org
    \\  /    A nd           | Version:  9
     \\/     M anipulation  |
\*---------------------------------------------------------------------------*/
FoamFile
{
    format      ascii;
    class       surfaceScalarField;
    location    "0.1";
    object      alphaPhi0.water;
}
// * * * * * * * * * * * * * * * * * * * * * * * * * * * * * * * * * * * * * //

dimensions      [0 3 -1 0 0 0 0];

internalField   nonuniform List<scalar> 
9850
(
7.42583e-71
-3.0068e-71
3.87909e-70
-1.41702e-70
2.10986e-69
-7.83026e-70
1.19276e-68
-4.49618e-69
7.00585e-68
-2.68022e-68
4.27424e-67
-1.6588e-67
2.70792e-66
-1.06586e-66
1.78093e-65
-7.10885e-66
1.21533e-64
-4.91943e-65
8.60045e-64
-3.53002e-64
6.30664e-63
-2.62441e-63
4.78777e-62
-2.01945e-62
3.75901e-61
-1.60643e-61
3.04873e-60
-1.3193e-60
2.55116e-59
-1.11708e-59
2.19989e-58
-9.73934e-59
1.95265e-57
-8.73464e-58
1.78248e-56
-8.05412e-57
1.67255e-55
-7.63719e-56
1.61308e-54
-7.454e-55
1.59948e-53
-7.49849e-54
1.63129e-52
-7.78378e-53
1.71143e-51
-8.33866e-52
1.84573e-50
-9.20504e-51
2.04273e-49
-1.04372e-49
2.31374e-48
-1.21048e-48
2.67343e-47
-1.43027e-47
3.14105e-46
-1.717e-46
3.7419e-45
-2.09183e-45
4.50829e-44
-2.586e-44
6.31492e-43
-3.78217e-43
8.5019e-42
-5.26409e-42
1.09495e-40
-7.04526e-41
1.34114e-39
-8.99894e-40
1.54349e-38
-1.08956e-38
1.65353e-37
-1.23613e-37
1.63198e-36
-1.30315e-36
1.46373e-35
-1.26438e-35
1.16959e-34
-1.11406e-34
8.06638e-34
-8.7397e-34
4.53848e-33
-5.91376e-33
1.85045e-32
-3.26202e-32
3.78542e-32
-1.3028e-31
-5.41493e-32
-2.60839e-31
-2.95236e-31
2.91199e-31
-6.53524e-30
7.85727e-30
-1.62123e-28
2.08e-28
-3.98204e-27
5.31602e-27
-9.19979e-26
1.31595e-25
3.77888e-24
2.50244e-70
-1.04289e-70
1.27974e-69
-4.79315e-70
6.80879e-69
-2.59325e-69
3.76215e-68
-1.45673e-68
2.15829e-67
-8.48797e-68
1.28543e-66
-5.13124e-67
7.94743e-66
-3.21881e-66
5.10013e-65
-2.09517e-65
3.39625e-64
-1.41481e-64
2.34582e-63
-9.90708e-64
1.67957e-62
-7.18916e-63
1.24554e-61
-5.40142e-62
9.55742e-61
-4.19716e-61
7.57967e-60
-3.36873e-60
6.20494e-59
-2.78901e-59
5.23648e-58
-2.37868e-58
4.55013e-57
-2.0877e-57
4.06675e-56
-1.88448e-56
3.73602e-55
-1.7496e-55
3.52684e-54
-1.67199e-54
3.42141e-53
-1.64654e-53
3.41147e-52
-1.67242e-52
3.49575e-51
-1.75179e-51
3.67812e-50
-1.88886e-50
3.96639e-49
-2.08938e-49
4.37174e-48
-2.36094e-48
4.9091e-47
-2.71441e-47
5.5983e-46
-3.16687e-46
6.46529e-45
-3.74542e-45
7.54157e-44
-4.48992e-44
1.02078e-42
-6.36032e-43
1.32589e-41
-8.55807e-42
1.64403e-40
-1.10547e-40
1.93368e-39
-1.35994e-39
2.13472e-38
-1.5817e-38
2.18634e-37
-1.72196e-37
2.05503e-36
-1.73626e-36
1.74745e-35
-1.60515e-35
1.31694e-34
-1.34163e-34
8.51544e-34
-9.93323e-34
4.45845e-33
-6.30621e-33
1.67184e-32
-3.23957e-32
3.06336e-32
-1.19101e-31
-3.83769e-32
-2.13808e-31
-2.32565e-31
2.15235e-31
-4.98566e-30
5.75073e-30
-1.28293e-28
1.54398e-28
-3.23379e-27
4.03186e-27
-7.6985e-26
1.02381e-25
2.9913e-24
8.15444e-70
-3.48768e-70
4.09135e-69
-1.56812e-69
2.13324e-68
-8.32474e-69
1.15371e-67
-4.58322e-68
6.47066e-67
-2.61408e-67
3.76362e-66
-1.54506e-66
2.2704e-65
-9.46586e-66
1.42058e-64
-6.0121e-65
9.21877e-64
-3.95852e-64
6.20354e-63
-2.7014e-63
4.32708e-62
-1.90987e-62
3.12665e-61
-1.39794e-61
2.3385e-60
-1.05841e-60
1.80855e-59
-8.27993e-60
1.44461e-58
-6.68454e-59
1.19028e-57
-5.56244e-58
1.0104e-56
-4.76621e-57
8.82688e-56
-4.20286e-56
7.92935e-55
-3.81409e-55
7.32112e-54
-3.56441e-54
6.94615e-53
-3.43353e-53
6.77147e-52
-3.41128e-52
6.77959e-51
-3.4938e-51
6.96323e-50
-3.68089e-50
7.3217e-49
-3.97446e-49
7.85893e-48
-4.37869e-48
8.58322e-47
-4.90233e-47
9.50822e-46
-5.56298e-46
1.06535e-44
-6.39203e-45
1.20413e-43
-7.43641e-44
1.57627e-42
-1.02114e-42
1.9772e-41
-1.32946e-41
2.36306e-40
-1.65911e-40
2.67217e-39
-1.968e-39
2.83464e-38
-2.20139e-38
2.78169e-37
-2.30382e-37
2.4966e-36
-2.22673e-36
2.01883e-35
-1.96666e-35
1.44014e-34
-1.5641e-34
8.77014e-34
-1.09685e-33
4.30136e-33
-6.56297e-33
1.50042e-32
-3.1608e-32
2.51555e-32
-1.08199e-31
-2.86069e-32
-1.77911e-31
-1.48929e-31
1.62938e-31
-3.14953e-30
4.33218e-30
-8.01725e-29
1.16263e-28
-1.96766e-27
3.02372e-27
-4.47352e-26
7.57622e-26
2.18401e-24
2.57053e-69
-1.12434e-69
1.26899e-68
-4.96401e-69
6.50213e-68
-2.59321e-68
3.45076e-67
-1.40315e-67
1.89642e-66
-7.85401e-67
1.07924e-65
-4.54897e-66
6.36106e-65
-2.72699e-65
3.88358e-64
-1.69234e-64
2.45626e-63
-1.08732e-63
1.60938e-62
-7.23206e-63
1.09223e-61
-4.97857e-62
7.67542e-61
-3.54566e-61
5.58196e-60
-2.61073e-60
4.19803e-59
-1.98585e-59
3.26198e-58
-1.55896e-58
2.61602e-57
-1.26189e-57
2.16302e-56
-1.05237e-56
1.84207e-55
-9.03866e-56
1.61447e-54
-7.99634e-55
1.45539e-53
-7.29139e-54
1.34891e-52
-6.8584e-53
1.28482e-51
-6.65714e-52
1.25663e-50
-6.6624e-51
1.26015e-49
-6.85715e-50
1.2926e-48
-7.22871e-49
1.35204e-47
-7.76844e-48
1.43729e-46
-8.47511e-47
1.54788e-45
-9.36122e-46
1.68402e-44
-1.04587e-44
1.84588e-43
-1.18181e-43
2.33901e-42
-1.57443e-42
2.8362e-41
-1.98515e-41
3.2714e-40
-2.39585e-40
3.56303e-39
-2.74375e-39
3.6339e-38
-2.95714e-38
3.42441e-37
-2.97657e-37
2.94217e-36
-2.76397e-36
2.26912e-35
-2.33811e-35
1.53719e-34
-1.77457e-34
8.84918e-34
-1.18257e-33
4.08548e-33
-6.69389e-33
1.33681e-32
-3.0372e-32
2.09357e-32
-9.76153e-32
-2.07831e-32
-1.50087e-31
-1.0578e-31
1.19535e-31
-2.24212e-30
3.20615e-30
-5.67513e-29
8.69846e-29
-1.37252e-27
2.28159e-27
-3.02865e-26
5.73459e-26
1.65962e-24
7.81993e-69
-3.48574e-69
3.80986e-68
-1.5168e-68
1.9243e-67
-7.82088e-68
1.0053e-66
-4.1719e-67
5.43034e-66
-2.29891e-66
3.03267e-65
-1.30884e-65
1.75114e-64
-7.70013e-65
1.0456e-63
-4.68178e-64
6.45683e-63
-2.94202e-63
4.12395e-62
-1.91065e-62
2.72423e-61
-1.28218e-61
1.86103e-60
-8.88827e-61
1.31439e-59
-6.36212e-60
9.59348e-59
-4.69959e-59
7.23209e-58
-3.58031e-58
5.62732e-57
-2.81148e-57
4.51637e-56
-2.27477e-56
3.73632e-55
-1.8964e-55
3.18439e-54
-1.62979e-54
2.79472e-53
-1.44524e-53
2.52452e-52
-1.32361e-52
2.34558e-51
-1.25231e-51
2.23889e-50
-1.22266e-50
2.19118e-49
-1.22814e-49
2.19269e-48
-1.2635e-48
2.2359e-47
-1.32458e-47
2.31498e-46
-1.40869e-46
2.42562e-45
-1.51552e-45
2.56462e-44
-1.64764e-44
2.72864e-43
-1.80991e-43
3.35008e-42
-2.34142e-42
3.93086e-41
-2.8618e-41
4.38102e-40
-3.34365e-40
4.6024e-39
-3.70135e-39
4.51766e-38
-3.84922e-38
4.09719e-37
-3.7305e-37
3.37875e-36
-3.33538e-36
2.49306e-35
-2.70952e-35
1.60939e-34
-1.96864e-34
8.78981e-34
-1.25098e-33
3.83473e-33
-6.72299e-33
1.18343e-32
-2.88489e-32
1.75413e-32
-8.75288e-32
-1.54933e-32
-1.27503e-31
-7.97054e-32
9.15122e-32
-1.67909e-30
2.4788e-30
-4.21184e-29
6.80212e-29
-9.99922e-28
1.80172e-27
-2.12009e-26
4.55653e-26
1.32264e-24
2.29015e-68
-1.03716e-68
1.10416e-67
-4.46259e-68
5.51374e-67
-2.27736e-67
2.8445e-66
-1.20118e-66
1.51527e-65
-6.53689e-66
8.33279e-65
-3.67048e-65
4.73012e-64
-2.12651e-64
2.77159e-63
-1.27114e-63
1.67636e-62
-7.83905e-63
1.04662e-61
-4.98659e-62
6.7448e-61
-3.27122e-61
4.48614e-60
-2.21227e-60
3.07915e-59
-1.54175e-59
2.18047e-58
-1.10674e-58
1.59265e-57
-8.18e-58
1.19962e-56
-6.22341e-57
9.31628e-56
-4.8741e-56
7.45907e-55
-3.93176e-55
6.15718e-54
-3.27026e-54
5.24014e-53
-2.80886e-53
4.59712e-52
-2.49484e-52
4.15444e-51
-2.29269e-51
3.86176e-50
-2.17734e-50
3.68349e-49
-2.12992e-49
3.59343e-48
-2.13552e-48
3.57159e-47
-2.18236e-47
3.60254e-46
-2.26216e-46
3.67457e-45
-2.37104e-45
3.77855e-44
-2.50979e-44
3.90566e-43
-2.68216e-43
4.65044e-42
-3.37239e-42
5.2857e-41
-3.99945e-41
5.69891e-40
-4.52844e-40
5.7832e-39
-4.85129e-39
5.47424e-38
-4.87528e-38
4.78282e-37
-4.55825e-37
3.7964e-36
-3.92794e-36
2.68901e-35
-3.07297e-35
1.66064e-34
-2.14455e-34
8.64007e-34
-1.30454e-33
3.57595e-33
-6.68366e-33
1.04494e-32
-2.72301e-32
1.47678e-32
-7.82988e-32
-1.20003e-32
-1.0886e-31
-5.94661e-32
7.25536e-32
-1.23758e-30
1.98201e-30
-3.07936e-29
5.48876e-29
-7.18348e-28
1.46574e-27
-1.46066e-26
3.72921e-26
1.0843e-24
6.44288e-68
-2.95723e-68
3.08105e-67
-1.26147e-67
1.52495e-66
-6.38601e-67
7.79035e-66
-3.33885e-66
4.10505e-65
-1.79949e-65
2.23029e-64
-9.99576e-65
1.24902e-63
-5.72183e-64
7.2087e-63
-3.37456e-63
4.2869e-62
-2.04994e-62
2.62631e-61
-1.28219e-61
1.65718e-60
-8.25383e-61
1.07673e-59
-5.46553e-60
7.20184e-59
-3.72082e-59
4.95767e-58
-2.60279e-58
3.51189e-57
-1.87001e-57
2.55997e-56
-1.37971e-56
1.92077e-55
-1.04569e-55
1.48424e-54
-8.14939e-55
1.18219e-53
-6.54204e-54
9.71416e-53
-5.42214e-53
8.23947e-52
-4.65027e-52
7.21221e-51
-4.13214e-51
6.50585e-50
-3.80125e-50
6.03171e-49
-3.60855e-49
5.72585e-48
-3.51654e-48
5.54114e-47
-3.49669e-47
5.44259e-46
-3.52892e-46
5.40445e-45
-3.60195e-45
5.40727e-44
-3.71247e-44
5.43371e-43
-3.86148e-43
6.27996e-42
-4.72215e-42
6.92101e-41
-5.43852e-41
7.22681e-40
-5.97344e-40
7.09369e-39
-6.19999e-39
6.48629e-38
-6.02904e-38
5.46647e-37
-5.44745e-37
4.18754e-36
-4.53014e-36
2.8574e-35
-3.42213e-35
1.6956e-34
-2.30208e-34
8.44666e-34
-1.34647e-33
3.33334e-33
-6.60974e-33
9.26428e-33
-2.56972e-32
1.25587e-32
-7.03404e-32
-9.31804e-33
-9.38973e-32
-4.38575e-32
5.6981e-32
-9.0566e-31
1.56881e-30
-2.23902e-29
4.37982e-29
-5.14132e-28
1.17892e-27
-1.00235e-26
3.01461e-26
8.79827e-25
1.73865e-67
-8.07295e-68
8.26135e-67
-3.42098e-67
4.0608e-66
-1.72099e-66
2.05888e-65
-8.93732e-66
1.07589e-64
-4.78108e-65
5.79133e-64
-2.63397e-64
3.2098e-63
-1.49395e-63
1.83103e-62
-8.72049e-63
1.07465e-61
-5.2363e-62
6.48634e-61
-3.23251e-61
4.02433e-60
-2.05018e-60
2.56522e-59
-1.3349e-59
1.67903e-58
-8.91555e-59
1.12794e-57
-6.1029e-58
7.77414e-57
-4.27876e-57
5.49701e-56
-3.07143e-56
3.98905e-55
-2.25795e-55
2.97372e-54
-1.70188e-54
2.28082e-53
-1.31801e-53
1.80332e-52
-1.05198e-52
1.47227e-51
-8.68187e-52
1.24218e-50
-7.42624e-51
1.08226e-49
-6.58526e-50
9.71265e-49
-6.03801e-49
8.9424e-48
-5.6954e-48
8.40572e-47
-5.49225e-47
8.0272e-46
-5.38369e-46
7.75363e-45
-5.34293e-45
7.54664e-44
-5.3577e-44
7.37468e-43
-5.42287e-43
8.27803e-42
-6.45168e-42
8.85335e-41
-7.22031e-41
8.96215e-40
-7.6995e-40
8.51946e-39
-7.75046e-39
7.53682e-38
-7.30172e-38
6.1399e-37
-6.38558e-37
4.54524e-36
-5.13547e-36
2.99882e-35
-3.75088e-35
1.71802e-34
-2.44112e-34
8.24323e-34
-1.37933e-33
3.12281e-33
-6.52636e-33
8.30976e-33
-2.43761e-32
1.08873e-32
-6.39389e-32
-7.05924e-33
-8.257e-32
-3.21172e-32
4.33387e-32
-6.64044e-31
1.20351e-30
-1.6387e-29
3.3888e-29
-3.72235e-28
9.20346e-28
-7.02513e-27
2.36966e-26
6.92813e-25
4.49777e-67
-2.10996e-67
2.12617e-66
-8.89448e-67
1.03944e-65
-4.45233e-66
5.23928e-65
-2.29999e-65
2.72035e-64
-1.22336e-64
1.45402e-63
-6.69738e-64
7.99569e-63
-3.77226e-63
4.52115e-62
-2.18488e-62
2.62723e-61
-1.30051e-61
1.56794e-60
-7.94938e-61
9.60335e-60
-4.98538e-60
6.03157e-59
-3.20452e-59
3.88128e-58
-2.10883e-58
2.5567e-57
-1.41916e-57
1.72274e-56
-9.75603e-57
1.18688e-55
-6.8462e-56
8.36133e-55
-4.90357e-55
6.02867e-54
-3.58789e-54
4.45703e-53
-2.68749e-53
3.38769e-52
-2.06769e-52
2.65495e-51
-1.6406e-51
2.15013e-50
-1.34719e-50
1.80036e-49
-1.14675e-49
1.55598e-48
-1.01049e-48
1.38287e-47
-9.17858e-48
1.25758e-46
-8.54345e-47
1.16405e-45
-8.10174e-46
1.09138e-44
-7.79374e-45
1.03204e-43
-7.58733e-44
9.80258e-43
-7.46368e-43
1.06875e-41
-8.63448e-42
1.1098e-40
-9.39058e-41
1.08997e-39
-9.72707e-40
1.00444e-38
-9.50359e-39
8.60793e-38
-8.68275e-38
6.7901e-37
-7.35883e-37
4.86647e-36
-5.73309e-36
3.1123e-35
-4.05607e-35
1.72948e-34
-2.56024e-34
8.0433e-34
-1.40407e-33
2.94866e-33
-6.44374e-33
7.58119e-33
-2.33077e-32
9.6985e-33
-5.91193e-32
-5.21083e-33
-7.46141e-32
-2.34796e-32
3.21104e-32
-4.90918e-31
9.01231e-31
-1.21822e-29
2.56574e-29
-2.77086e-28
7.05093e-28
-5.38988e-27
1.84135e-26
5.39283e-25
1.11565e-66
-5.28333e-67
5.25111e-66
-2.21763e-66
2.55585e-65
-1.10556e-65
1.28228e-64
-5.68707e-65
6.62467e-64
-3.01131e-64
3.52165e-63
-1.64051e-63
1.92502e-62
-9.19074e-63
1.08129e-61
-5.29188e-62
6.23678e-61
-3.12924e-61
3.69092e-60
-1.89866e-60
2.23904e-59
-1.18079e-59
1.39084e-58
-7.51764e-59
8.83625e-58
-4.89294e-58
5.73448e-57
-3.25086e-57
3.79695e-56
-2.20163e-56
2.56256e-55
-1.5181e-55
1.76208e-54
-1.06512e-54
1.23502e-53
-7.60661e-54
8.83722e-53
-5.53862e-53
6.47397e-52
-4.12452e-52
4.87314e-51
-3.15438e-51
3.78212e-50
-2.48803e-50
3.03284e-49
-2.02968e-49
2.51215e-48
-1.7128e-48
2.14365e-47
-1.491e-47
1.87602e-46
-1.33239e-46
1.67517e-45
-1.21587e-45
1.51863e-44
-1.12841e-44
1.39131e-43
-1.06238e-43
1.28218e-42
-1.01282e-42
1.3566e-41
-1.13733e-41
1.36755e-40
-1.20096e-40
1.30357e-39
-1.2082e-39
1.16527e-38
-1.14614e-38
9.68256e-38
-1.01616e-37
7.40464e-37
-8.35358e-37
5.14692e-36
-6.31221e-36
3.19616e-35
-4.3333e-35
1.72912e-34
-2.65734e-34
7.84011e-34
-1.41965e-33
2.80388e-33
-6.35619e-33
7.03721e-33
-2.2445e-32
8.89417e-33
-5.56187e-32
-3.76463e-33
-6.94108e-32
-1.72666e-32
2.3401e-32
-3.68495e-31
6.65732e-31
-9.28002e-30
1.9229e-29
-2.14096e-28
5.36806e-28
-4.10513e-27
1.42593e-26
4.21313e-25
2.6556e-66
-1.26885e-66
1.24526e-65
-5.30676e-66
6.0384e-65
-2.6364e-65
3.01785e-64
-1.35143e-64
1.55283e-63
-7.12944e-64
8.21919e-63
-3.86873e-63
4.47185e-62
-2.15822e-62
2.49904e-61
-1.23695e-61
1.4333e-60
-7.27752e-61
8.42891e-60
-4.39097e-60
5.07698e-59
-2.71372e-59
3.12818e-58
-1.71551e-58
1.96883e-57
-1.10753e-57
1.26379e-56
-7.28956e-57
8.2603e-56
-4.88287e-56
5.4896e-55
-3.32346e-55
3.70564e-54
-2.29601e-54
2.54019e-53
-1.60962e-53
1.77001e-52
-1.14627e-52
1.25668e-51
-8.31264e-52
9.12389e-51
-6.16165e-51
6.80136e-50
-4.68791e-50
5.22247e-49
-3.67326e-49
4.13587e-48
-2.96816e-48
3.374e-47
-2.47016e-47
2.8262e-46
-2.11015e-46
2.42036e-45
-1.84301e-45
2.10985e-44
-1.64054e-44
1.8639e-43
-1.48546e-43
1.6607e-42
-1.36601e-42
1.70107e-41
-1.48368e-41
1.66264e-40
-1.51752e-40
1.53753e-39
-1.4809e-39
1.33336e-38
-1.36343e-38
1.07465e-37
-1.17314e-37
7.97254e-37
-9.35811e-37
5.38026e-36
-6.86279e-36
3.24932e-35
-4.57625e-35
1.71439e-34
-2.73072e-34
7.6126e-34
-1.42359e-33
2.67382e-33
-6.24603e-33
6.61127e-33
-2.16764e-32
8.33811e-33
-5.29576e-32
-2.72277e-33
-6.60039e-32
-1.29696e-32
1.72177e-32
-2.8473e-31
4.98098e-31
-7.31775e-30
1.46617e-29
-1.73427e-28
4.17539e-28
-3.39948e-27
1.13255e-26
3.40589e-25
6.07286e-66
-2.92629e-66
2.83837e-65
-1.22018e-65
1.37186e-64
-6.04338e-65
6.83355e-64
-3.08847e-64
3.50417e-63
-1.6242e-63
1.84812e-62
-8.78445e-63
1.00169e-61
-4.88337e-62
5.57498e-61
-2.78838e-61
3.18332e-60
-1.63394e-60
1.86297e-59
-9.81554e-60
1.11609e-58
-6.03713e-59
6.83532e-58
-3.79606e-58
4.2725e-57
-2.43598e-57
2.72075e-56
-1.5923e-56
1.76177e-55
-1.0581e-55
1.15785e-54
-7.13448e-55
7.71139e-54
-4.874e-54
5.20014e-53
-3.37117e-53
3.55146e-52
-2.36166e-52
2.46052e-51
-1.67866e-51
1.73459e-50
-1.21426e-50
1.24907e-49
-8.97071e-50
9.22045e-49
-6.79016e-49
6.99237e-48
-5.27456e-48
5.44788e-47
-4.20313e-47
4.35283e-46
-3.42888e-46
3.55649e-45
-2.85651e-45
2.96246e-44
-2.42601e-44
2.5077e-43
-2.09946e-43
2.14816e-42
-1.85052e-42
2.12087e-41
-1.93327e-41
2.00405e-40
-1.90689e-40
1.79492e-39
-1.79985e-39
1.50885e-38
-1.60554e-38
1.17919e-37
-1.3396e-37
8.48613e-37
-1.03658e-36
5.56112e-36
-7.37721e-36
3.2683e-35
-4.77915e-35
1.68376e-34
-2.77658e-34
7.33424e-34
-1.41418e-33
2.54136e-33
-6.09027e-33
6.23027e-33
-2.0865e-32
7.88886e-33
-5.05769e-32
-2.01025e-33
-6.33364e-32
-1.00748e-32
1.3033e-32
-2.26718e-31
3.84473e-31
-6.02867e-30
1.15588e-29
-1.47728e-28
3.36982e-28
-3.07077e-27
9.36049e-27
2.86712e-25
1.33568e-65
-6.48846e-66
6.22488e-65
-2.69865e-65
2.99994e-64
-1.33297e-64
1.48993e-63
-6.79379e-64
7.61722e-63
-3.56291e-63
4.00491e-62
-1.92147e-62
2.16365e-61
-1.06497e-61
1.20009e-60
-6.06185e-61
6.82776e-60
-3.54035e-60
3.98028e-59
-2.11925e-59
2.37451e-58
-1.29848e-58
1.4475e-57
-8.13065e-58
9.00103e-57
-5.1935e-57
5.69836e-56
-3.37726e-56
3.66494e-55
-2.23105e-55
2.38952e-54
-1.49413e-54
1.57631e-53
-1.01259e-53
1.05066e-52
-6.93685e-53
7.07292e-52
-4.80323e-52
4.81332e-51
-3.36535e-51
3.3188e-50
-2.39122e-50
2.32589e-49
-1.72788e-49
1.6621e-48
-1.27288e-48
1.21375e-47
-9.57146e-48
9.06206e-47
-7.34394e-47
6.91091e-46
-5.7407e-46
5.37496e-45
-4.56453e-45
4.25763e-44
-3.69035e-44
3.43091e-43
-3.03759e-43
2.80597e-42
-2.54963e-42
2.65285e-41
-2.54416e-41
2.41118e-40
-2.40427e-40
2.08427e-39
-2.1838e-39
1.69457e-38
-1.88087e-38
1.28238e-37
-1.51837e-37
8.94395e-37
-1.13811e-36
5.6873e-36
-7.853e-36
3.2508e-35
-4.93869e-35
1.63499e-34
-2.79197e-34
6.98933e-34
-1.389e-33
2.39189e-33
-5.87392e-33
5.83193e-33
-1.98871e-32
7.42612e-33
-4.79759e-32
-1.54709e-33
-6.04613e-32
-8.21785e-33
1.03744e-32
-1.90567e-31
3.1192e-31
-5.21684e-30
9.59209e-30
-1.33371e-28
2.86117e-28
-2.93454e-27
8.13196e-27
2.51712e-25
2.82828e-65
-1.3847e-65
1.31476e-64
-5.74686e-65
6.31984e-64
-2.8317e-64
3.13046e-63
-1.43974e-63
1.59611e-62
-7.53184e-63
8.36878e-62
-4.0516e-62
4.50843e-61
-2.23972e-61
2.49331e-60
-1.2714e-60
1.41418e-59
-7.40447e-60
8.21737e-59
-4.41913e-59
4.88536e-58
-2.6991e-58
2.96708e-57
-1.68436e-57
1.8376e-56
-1.07196e-56
1.15816e-55
-6.94276e-56
7.41145e-55
-4.56595e-55
4.80441e-54
-3.04239e-54
3.14792e-53
-2.04991e-53
2.08113e-52
-1.39478e-52
1.38701e-51
-9.57911e-52
9.32142e-51
-6.64458e-51
6.32653e-50
-4.66254e-50
4.3468e-49
-3.31645e-49
3.03084e-48
-2.39517e-48
2.148e-47
-1.75723e-47
1.54756e-46
-1.3084e-46
1.1323e-45
-9.86859e-46
8.40349e-45
-7.52787e-45
6.32488e-44
-5.80802e-44
4.83203e-43
-4.54332e-43
3.74845e-42
-3.61659e-42
3.36757e-41
-3.42457e-41
2.92318e-40
-3.07682e-40
2.42477e-39
-2.67024e-39
1.89864e-38
-2.20777e-38
1.38713e-37
-1.7171e-37
9.35522e-37
-1.24301e-36
5.76171e-36
-8.29701e-36
3.19744e-35
-5.05596e-35
1.56743e-34
-2.77633e-34
6.56746e-34
-1.34691e-33
2.218e-33
-5.58588e-33
5.37639e-33
-1.86742e-32
6.8707e-33
-4.48144e-32
-1.27125e-33
-5.67177e-32
-7.03509e-33
8.83726e-33
-1.66312e-31
2.69903e-31
-4.64604e-30
8.46758e-30
-1.21559e-28
2.57208e-28
-2.74931e-27
7.42753e-27
2.32971e-25
5.77125e-65
-2.84739e-65
2.67675e-64
-1.17956e-64
1.28368e-63
-5.79933e-64
6.34338e-63
-2.94215e-63
3.22643e-62
-1.53573e-62
1.68752e-61
-8.24244e-62
9.06814e-61
-4.54586e-61
5.00204e-60
-2.57436e-60
2.82953e-59
-1.49558e-59
1.63959e-58
-8.90304e-59
9.71923e-58
-5.42313e-58
5.88473e-57
-3.37467e-57
3.63262e-56
-2.14118e-56
2.28138e-55
-1.38226e-55
1.45428e-54
-9.0583e-55
9.38656e-54
-6.0122e-54
6.11999e-53
-4.03332e-53
4.02275e-52
-2.73073e-52
2.66249e-51
-1.8646e-51
1.77402e-50
-1.28443e-50
1.19107e-49
-8.93595e-50
8.07153e-49
-6.28762e-49
5.53036e-48
-4.47872e-48
3.83419e-47
-3.22866e-47
2.68804e-46
-2.35148e-46
1.90224e-45
-1.72569e-45
1.3564e-44
-1.27314e-44
9.74251e-44
-9.43803e-44
7.06217e-43
-7.04697e-43
5.18054e-42
-5.32428e-42
4.39423e-41
-4.76947e-41
3.61419e-40
-4.04793e-40
2.8547e-39
-3.33016e-39
2.13864e-38
-2.62285e-38
1.50059e-37
-1.9524e-37
9.74697e-37
-1.35784e-36
5.79479e-36
-8.7323e-36
3.11255e-35
-5.13875e-35
1.48266e-34
-2.73239e-34
6.07129e-34
-1.28872e-33
2.01823e-33
-5.22584e-33
4.85103e-33
-1.72053e-32
6.19023e-33
-4.09654e-32
-1.11196e-33
-5.18013e-32
-6.29392e-33
7.93249e-33
-1.48922e-31
2.44066e-31
-4.21634e-30
7.7552e-30
-1.1104e-28
2.38139e-28
-2.52616e-27
6.947e-27
2.21998e-25
1.13614e-64
-5.64894e-65
5.25845e-64
-2.33625e-64
2.51645e-63
-1.14629e-63
1.24083e-62
-5.8038e-63
6.29741e-62
-3.02334e-62
3.28643e-61
-1.61935e-61
1.76203e-60
-8.91249e-61
9.69711e-60
-5.03651e-60
5.47245e-59
-2.91959e-59
3.1633e-58
-1.73408e-58
1.8704e-57
-1.0538e-57
1.12948e-56
-6.54137e-57
6.95289e-56
-4.13964e-56
4.35378e-55
-2.66503e-55
2.76665e-54
-1.74134e-54
1.77969e-53
-1.15212e-53
1.15603e-52
-7.70269e-53
7.56694e-52
-5.19549e-52
4.98382e-51
-3.53265e-51
3.30122e-50
-2.42159e-50
2.20021e-49
-1.67482e-49
1.47716e-48
-1.16983e-48
1.00006e-47
-8.25498e-48
6.82789e-47
-5.87963e-47
4.69427e-46
-4.21661e-46
3.24088e-45
-3.03431e-45
2.2403e-44
-2.18384e-44
1.54847e-43
-1.56954e-43
1.07169e-42
-1.12795e-42
7.45346e-42
-8.13935e-42
5.95782e-41
-6.91578e-41
4.61629e-40
-5.5341e-40
3.44449e-39
-4.29094e-39
2.44829e-38
-3.1938e-38
1.63721e-37
-2.25638e-37
1.01754e-36
-1.49608e-36
5.80782e-36
-9.20926e-36
3.00481e-35
-5.20492e-35
1.38448e-34
-2.66689e-34
5.51593e-34
-1.21718e-33
1.79719e-33
-4.80449e-33
4.2648e-33
-1.55114e-32
5.39245e-33
-3.64809e-32
-1.02248e-33
-4.57338e-32
-5.81008e-33
7.3359e-33
-1.36136e-31
2.25553e-31
-3.89032e-30
7.23154e-30
-1.01182e-28
2.2126e-28
-2.24463e-27
6.46157e-27
2.13408e-25
2.16063e-64
-1.08274e-64
9.98023e-64
-4.47093e-64
4.76667e-63
-2.18946e-63
2.3457e-62
-1.1065e-62
1.18808e-61
-5.75331e-62
6.1877e-61
-3.07581e-61
3.31078e-60
-1.68965e-60
1.81825e-59
-9.52996e-60
1.02392e-58
-5.5135e-59
5.90574e-58
-3.26809e-58
3.48408e-57
-1.98186e-57
2.09902e-56
-1.22753e-56
1.28898e-55
-7.75056e-56
8.05101e-55
-4.97772e-55
5.10259e-54
-3.24425e-54
3.27319e-53
-2.1408e-53
2.1199e-52
-1.42724e-52
1.38316e-51
-9.59803e-52
9.07749e-51
-6.50508e-51
5.98796e-50
-4.44317e-50
3.97091e-49
-3.06024e-49
2.64923e-48
-2.12675e-48
1.77916e-47
-1.49126e-47
1.20216e-46
-1.05352e-46
8.15506e-46
-7.47644e-46
5.53378e-45
-5.30795e-45
3.74093e-44
-3.75463e-44
2.51239e-43
-2.63911e-43
1.67628e-42
-1.8432e-42
1.11423e-41
-1.28266e-41
8.43132e-41
-1.04205e-40
6.15216e-40
-7.89782e-40
4.31543e-39
-5.76944e-39
2.88721e-38
-4.03845e-38
1.82316e-37
-2.68645e-37
1.07433e-36
-1.68254e-36
5.83838e-36
-9.8231e-36
2.88814e-35
-5.28792e-35
1.27855e-34
-2.59158e-34
4.92512e-34
-1.13689e-33
1.56353e-33
-4.34073e-33
3.63938e-33
-1.36606e-32
4.49826e-33
-3.15282e-32
-9.81381e-34
-3.86551e-32
-5.48893e-33
6.89582e-33
-1.23293e-31
2.07428e-31
-3.45619e-30
6.60725e-30
-9.38892e-29
2.05144e-28
-2.25375e-27
6.22447e-27
2.1239e-25
3.97505e-64
-2.00796e-64
1.83257e-63
-8.27876e-64
8.73599e-63
-4.04667e-63
4.29087e-62
-2.04145e-62
2.1692e-61
-1.0596e-61
1.12762e-60
-5.65487e-61
6.02196e-60
-3.10095e-60
3.30086e-59
-1.74589e-59
1.8552e-58
-1.00825e-58
1.0679e-57
-5.96526e-58
6.2871e-57
-3.6106e-57
3.77974e-56
-2.23193e-56
2.31605e-55
-1.40634e-55
1.44337e-54
-9.01272e-55
9.12675e-54
-5.86099e-54
5.84068e-53
-3.85853e-53
3.77344e-52
-2.56624e-52
2.45572e-51
-1.72146e-51
1.60722e-50
-1.16368e-50
1.05698e-49
-7.92621e-50
6.98457e-49
-5.44242e-49
4.63972e-48
-3.76875e-48
3.09896e-47
-2.63101e-47
2.07933e-46
-1.8484e-46
1.39788e-45
-1.30242e-45
9.3756e-45
-9.16254e-45
6.24246e-44
-6.40574e-44
4.10935e-43
-4.43491e-43
2.67026e-42
-3.03666e-42
1.71473e-41
-2.05872e-41
1.24044e-40
-1.61651e-40
8.57857e-40
-1.17187e-39
5.66511e-39
-8.11715e-39
3.55437e-38
-5.35109e-38
2.10272e-37
-3.33922e-37
1.16264e-36
-1.9599e-36
5.94885e-36
-1.074e-35
2.78353e-35
-5.44528e-35
1.17225e-34
-2.52517e-34
4.32723e-34
-1.05422e-33
1.32749e-33
-3.85862e-33
3.00088e-33
-1.17392e-32
3.52286e-33
-2.63232e-32
-1.07458e-33
-3.06657e-32
-6.53916e-33
7.59253e-33
-1.57326e-31
2.32821e-31
-4.85415e-30
7.64943e-30
-1.40813e-28
2.44995e-28
-3.94984e-27
7.97788e-27
2.82005e-25
7.08518e-64
-3.60818e-64
3.26011e-63
-1.48534e-63
1.55122e-62
-7.24698e-63
7.6051e-62
-3.64959e-62
3.83764e-61
-1.89106e-61
1.99132e-60
-1.00752e-60
1.06153e-59
-5.51568e-60
5.80813e-59
-3.10023e-59
3.25841e-58
-1.78735e-58
1.87213e-57
-1.05566e-57
1.1001e-56
-6.37831e-57
6.60087e-56
-3.93567e-56
4.0367e-55
-2.4752e-55
2.51059e-54
-1.58319e-54
1.58422e-53
-1.02748e-53
1.01169e-52
-6.75025e-53
6.52218e-52
-4.4799e-52
4.23534e-51
-2.99862e-51
2.76575e-50
-2.02253e-50
1.81456e-49
-1.37447e-49
1.19591e-48
-9.41479e-49
7.91962e-48
-6.50194e-48
5.26957e-47
-4.52464e-47
3.51882e-46
-3.16629e-46
2.35123e-45
-2.22003e-45
1.56474e-44
-1.55211e-44
1.03142e-43
-1.07664e-43
6.7005e-43
-7.37984e-43
4.27742e-42
-4.98769e-42
2.6817e-41
-3.32306e-41
1.87679e-40
-2.54855e-40
1.24404e-39
-1.7883e-39
7.79944e-39
-1.18779e-38
4.60544e-38
-7.43653e-38
2.54663e-37
-4.36878e-37
1.31081e-36
-2.39746e-36
6.23884e-36
-1.22337e-35
2.72224e-35
-5.77146e-35
1.07502e-34
-2.49665e-34
3.75262e-34
-9.77707e-34
1.09919e-33
-3.38522e-33
2.3765e-33
-9.83694e-33
2.49155e-33
-2.11035e-32
-1.5836e-33
-2.19636e-32
-1.06957e-32
1.19013e-32
-2.74885e-31
3.74652e-31
-8.86397e-30
1.27413e-29
-2.77544e-28
4.29041e-28
-8.96082e-27
1.50196e-26
5.41419e-25
1.22516e-63
-6.2907e-64
5.62638e-63
-2.5855e-63
2.67215e-62
-1.25912e-62
1.30766e-61
-6.32996e-62
6.58676e-61
-3.2744e-61
3.41177e-60
-1.74167e-60
1.81558e-59
-9.51935e-60
9.91662e-59
-5.34199e-59
5.55363e-58
-3.07482e-58
3.18526e-57
-1.81313e-57
1.8684e-56
-1.09369e-56
1.11906e-55
-6.73712e-56
6.83091e-55
-4.22972e-55
4.2405e-54
-2.70057e-54
2.67077e-53
-1.74941e-53
1.70232e-52
-1.14714e-52
1.09536e-51
-7.59848e-52
7.09944e-51
-5.07613e-51
4.62714e-50
-3.41709e-50
3.0298e-49
-2.31761e-49
1.99263e-48
-1.58428e-48
1.31645e-47
-1.09173e-47
8.73486e-47
-7.57843e-47
5.81282e-46
-5.2877e-46
3.86761e-45
-3.69418e-45
2.56041e-44
-2.5715e-44
1.67665e-43
-1.7743e-43
1.08004e-42
-1.20828e-42
6.81745e-42
-8.09899e-42
4.20871e-41
-5.33732e-41
2.88095e-40
-4.03243e-40
1.8533e-39
-2.76895e-39
1.11701e-38
-1.78565e-38
6.27342e-38
-1.07514e-37
3.26243e-37
-6.0093e-37
1.5625e-36
-3.10225e-36
6.86199e-36
-1.47336e-35
2.75081e-35
-6.41541e-35
9.99273e-35
-2.55042e-34
3.23332e-34
-9.19029e-34
8.87596e-34
-2.95041e-33
1.79099e-33
-8.03729e-33
1.43577e-33
-1.60968e-32
-3.1458e-33
-1.28136e-32
-2.19034e-32
2.3638e-32
-5.86033e-31
8.00575e-31
-1.949e-29
2.78558e-29
-6.39491e-28
9.75701e-28
-2.22535e-26
3.54978e-26
1.28491e-24
2.05779e-63
-1.06541e-63
9.43131e-63
-4.37159e-63
4.47077e-62
-2.1249e-62
2.18381e-61
-1.06638e-61
1.09803e-60
-5.50701e-61
5.67763e-60
-2.92446e-60
3.01621e-59
-1.59588e-59
1.64467e-58
-8.94174e-59
9.19533e-58
-5.13889e-58
5.26511e-57
-3.02557e-57
3.08319e-56
-1.8222e-56
1.84351e-55
-1.12069e-55
1.12338e-54
-7.02455e-55
6.96162e-54
-4.47753e-54
4.37694e-53
-2.89556e-53
2.78495e-52
-1.89539e-52
1.78887e-51
-1.25326e-51
1.15744e-50
-8.35744e-51
7.53083e-50
-5.61598e-50
4.92262e-49
-3.80224e-49
3.2317e-48
-2.59448e-48
2.13089e-47
-1.78449e-47
1.41074e-46
-1.23616e-46
9.36354e-46
-8.60457e-46
6.21077e-45
-5.99477e-45
4.09652e-44
-4.1594e-44
2.67085e-43
-2.85922e-43
1.71133e-42
-1.93873e-42
1.07288e-41
-1.29286e-41
6.56233e-41
-8.46495e-41
4.4313e-40
-6.33922e-40
2.79669e-39
-4.29629e-39
1.64145e-38
-2.71937e-38
8.89133e-38
-1.595e-37
4.40601e-37
-8.60077e-37
1.98197e-36
-4.23199e-36
8.04678e-36
-1.88825e-35
2.93777e-35
-7.60299e-35
9.62048e-35
-2.75342e-34
2.80509e-34
-8.94665e-34
7.00082e-34
-2.58887e-33
1.26446e-33
-6.41325e-33
4.4276e-34
-1.14997e-32
-7.28494e-33
-3.99925e-33
-4.59523e-32
5.33266e-32
-1.34866e-30
1.89737e-30
-4.54686e-29
6.68509e-29
-1.53844e-27
2.39185e-27
-5.4029e-26
8.82037e-26
3.22239e-24
3.36088e-63
-1.75485e-63
1.53722e-62
-7.18782e-63
7.27292e-62
-3.48698e-62
3.54596e-61
-1.74685e-61
1.77975e-60
-9.00598e-61
9.18679e-60
-4.77492e-60
4.8723e-59
-2.60166e-59
2.65243e-58
-1.45552e-58
1.48057e-57
-8.35253e-58
8.46395e-57
-4.91036e-57
4.94845e-56
-2.95296e-56
2.95402e-55
-1.81341e-55
1.79718e-54
-1.13492e-54
1.11191e-53
-7.2228e-54
6.9795e-53
-4.66346e-53
4.43373e-52
-3.04769e-52
2.84339e-51
-2.01187e-51
1.83684e-50
-1.33943e-50
1.19328e-49
-8.98594e-50
7.78788e-49
-6.07396e-49
5.10458e-48
-4.13779e-48
3.36007e-47
-2.84111e-47
2.22028e-46
-1.96447e-46
1.47049e-45
-1.36458e-45
9.72981e-45
-9.48477e-45
6.40008e-44
-6.56385e-44
4.16018e-43
-4.49945e-43
2.65666e-42
-3.04188e-42
1.65893e-41
-2.02211e-41
1.00948e-40
-1.31915e-40
6.76478e-40
-9.83243e-40
4.22284e-39
-6.61642e-39
2.43938e-38
-4.14407e-38
1.29143e-37
-2.39311e-37
6.19341e-37
-1.26157e-36
2.65966e-36
-6.00905e-36
1.01198e-35
-2.56017e-35
3.38187e-35
-9.66311e-35
9.87298e-35
-3.20403e-34
2.51223e-34
-9.28321e-34
5.43345e-34
-2.34478e-33
8.16805e-34
-5.03465e-33
-2.00114e-34
-7.51513e-33
-1.08297e-32
2.09733e-33
-9.39946e-32
1.21949e-31
-3.00699e-30
4.42522e-30
-1.02107e-28
1.5662e-28
-3.50167e-27
5.64544e-27
-1.21319e-25
2.09733e-25
7.70923e-24
5.34347e-63
-2.81415e-63
2.43887e-62
-1.15054e-62
1.1516e-61
-5.57034e-62
5.60416e-61
-2.78551e-61
2.80776e-60
-1.43367e-60
1.44686e-59
-7.5892e-60
7.66104e-59
-4.12878e-59
4.16397e-58
-2.30648e-58
2.32069e-57
-1.32167e-57
1.32461e-56
-7.7589e-57
7.73243e-56
-4.65935e-56
4.60885e-55
-2.8572e-55
2.79964e-54
-1.78558e-54
1.72949e-53
-1.1347e-53
1.08395e-52
-7.31533e-53
6.87545e-52
-4.77352e-52
4.40276e-51
-3.14634e-51
2.84007e-50
-2.09154e-50
1.84238e-49
-1.40104e-49
1.20071e-48
-9.45592e-49
7.8585e-48
-6.43184e-48
5.16473e-47
-4.40919e-47
3.40691e-46
-3.04344e-46
2.2521e-45
-2.11003e-45
1.48704e-44
-1.46355e-44
9.75996e-44
-1.01057e-43
6.33009e-43
-6.91167e-43
4.03353e-42
-4.66257e-42
2.5131e-41
-3.09331e-41
1.52534e-40
-2.01415e-40
1.01833e-39
-1.49808e-39
6.32236e-39
-1.00482e-38
3.62219e-38
-6.26213e-38
1.89375e-37
-3.58778e-37
8.91104e-37
-1.86832e-36
3.71743e-36
-8.7336e-36
1.35291e-35
-3.6155e-35
4.22089e-35
-1.30554e-34
1.10863e-34
-4.04215e-34
2.41363e-34
-1.05388e-33
4.23536e-34
-2.27795e-33
4.44395e-34
-3.96897e-33
-8.48762e-34
-4.13551e-33
-8.97927e-33
7.31823e-33
-1.83159e-31
2.66374e-31
-6.23571e-30
9.6542e-30
-2.11528e-28
3.42138e-28
-7.24973e-27
1.23536e-26
-2.47901e-25
4.60508e-25
1.69916e-23
8.27932e-63
-4.39882e-63
3.77064e-62
-1.79492e-62
1.77684e-61
-8.67214e-62
8.63026e-61
-4.32863e-61
4.3161e-60
-2.22411e-60
2.22036e-59
-1.17548e-59
1.17378e-58
-6.38537e-59
6.36985e-58
-3.56193e-58
3.54469e-57
-2.0382e-57
2.02022e-56
-1.19486e-56
1.17755e-55
-7.16541e-56
7.00834e-55
-4.38789e-55
4.25096e-54
-2.73836e-54
2.62222e-53
-1.73773e-53
1.64111e-52
-1.11872e-52
1.03948e-51
-7.28968e-52
6.64725e-51
-4.79796e-51
4.28215e-50
-3.18493e-50
2.7742e-49
-2.13046e-49
1.80559e-48
-1.43586e-48
1.18012e-47
-9.75256e-48
7.74453e-47
-6.67547e-47
5.1004e-46
-4.60012e-46
3.36556e-45
-3.18348e-45
2.21804e-44
-2.20374e-44
1.453e-43
-1.51854e-43
9.40707e-43
-1.03653e-42
5.98511e-42
-6.98026e-42
3.72455e-41
-4.62488e-41
2.25835e-40
-3.00879e-40
1.50562e-39
-2.23659e-39
9.32959e-39
-1.49888e-38
5.32791e-38
-9.32709e-38
2.77062e-37
-5.32845e-37
1.29222e-36
-2.76065e-36
5.3124e-36
-1.27939e-35
1.88639e-35
-5.22041e-35
5.6401e-35
-1.83961e-34
1.37216e-34
-5.45943e-34
2.58997e-34
-1.31866e-33
3.47613e-34
-2.47146e-33
1.45114e-34
-3.29391e-33
-1.85795e-33
-1.3656e-33
-1.23629e-32
1.4873e-32