/*--------------------------------*- C++ -*----------------------------------*\
  =========                 |
  \\      /  F ield         | OpenFOAM: The Open Source CFD Toolbox
   \\    /   O peration     | Website:  https://openfoam.org
    \\  /    A nd           | Version:  9
     \\/     M anipulation  |
\*---------------------------------------------------------------------------*/
FoamFile
{
    format      ascii;
    class       volScalarField;
    location    "0.1";
    object      alpha.water;
}
// * * * * * * * * * * * * * * * * * * * * * * * * * * * * * * * * * * * * * //

dimensions      [0 0 0 0 0 0 0];

internalField   nonuniform List<scalar> 
5000
(
-1.928e-65
-7.44707e-65
-3.88811e-64
-2.11314e-63
-1.19345e-62
-7.00169e-62
-4.26598e-61
-2.69861e-60
-1.77183e-59
-1.2069e-58
-8.52386e-58
-6.23741e-57
-4.72502e-56
-3.70179e-55
-2.99611e-54
-2.50228e-53
-2.15389e-52
-1.90855e-51
-1.73909e-50
-1.62823e-49
-1.56561e-48
-1.54597e-47
-1.56806e-46
-1.63403e-45
-1.74902e-44
-1.92089e-43
-2.16015e-42
-2.48009e-41
-2.89708e-40
-3.43095e-39
-4.10492e-38
-5.69002e-37
-7.56442e-36
-9.60584e-35
-1.15932e-33
-1.31429e-32
-1.38655e-31
-1.34704e-30
-1.18851e-29
-9.33528e-29
-6.32378e-28
-3.49191e-27
-1.39618e-26
-2.79871e-26
-5.60962e-28
5.94146e-27
2.47571e-25
7.12332e-24
1.90931e-22
7.48048e-21
-6.68335e-65
-2.51833e-64
-1.2872e-63
-6.84333e-63
-3.7776e-62
-2.16466e-61
-1.28753e-60
-7.9485e-60
-5.09236e-59
-3.38491e-58
-2.3334e-57
-1.66721e-56
-1.23374e-55
-9.4467e-55
-7.47641e-54
-6.10855e-53
-5.14583e-52
-4.46357e-51
-3.98193e-50
-3.6497e-49
-3.43469e-48
-3.31786e-47
-3.28982e-46
-3.34831e-45
-3.49659e-44
-3.74208e-43
-4.09549e-42
-4.57033e-41
-5.18273e-40
-5.95109e-39
-6.89461e-38
-9.23674e-37
-1.18495e-35
-1.44909e-34
-1.6799e-33
-1.82741e-32
-1.84376e-31
-1.70656e-30
-1.42816e-29
-1.05855e-28
-6.72682e-28
-3.45883e-27
-1.27286e-26
-2.28742e-26
-4.39756e-28
3.43774e-27
1.4762e-25
4.37958e-24
1.26279e-22
4.88971e-21
-2.23373e-64
-8.23681e-64
-4.13061e-63
-2.15213e-62
-1.16282e-61
-6.51441e-61
-3.78413e-60
-2.27942e-59
-1.42388e-58
-9.22361e-58
-6.19475e-57
-4.31208e-56
-3.10921e-55
-2.32053e-54
-1.79096e-53
-1.42778e-52
-1.17427e-51
-9.95022e-51
-8.67573e-50
-7.77501e-49
-7.15568e-48
-6.75972e-47
-6.5526e-46
-6.51595e-45
-6.64248e-44
-6.93214e-43
-7.38939e-42
-8.02154e-41
-8.83763e-40
-9.84703e-39
-1.1056e-37
-1.43281e-36
-1.7755e-35
-2.09342e-34
-2.33396e-33
-2.44047e-32
-2.36014e-31
-2.08676e-30
-1.66148e-29
-1.16628e-28
-6.98428e-28
-3.36639e-27
-1.15335e-26
-1.89821e-26
-3.2879e-28
2.73578e-27
1.10169e-25
3.26043e-24
9.63548e-23
3.36115e-21
-7.19651e-64
-2.60677e-63
-1.28626e-62
-6.58592e-62
-3.492e-61
-1.91695e-60
-1.08953e-59
-6.41239e-59
-3.9086e-58
-2.4677e-57
-1.61376e-56
-1.09298e-55
-7.66456e-55
-5.56231e-54
-4.17467e-53
-3.23749e-52
-2.59157e-51
-2.13886e-50
-1.81785e-49
-1.5893e-48
-1.42798e-47
-1.31763e-46
-1.24788e-45
-1.21219e-44
-1.20656e-43
-1.22847e-42
-1.27626e-41
-1.34874e-40
-1.44486e-39
-1.56347e-38
-1.70268e-37
-2.13644e-36
-2.55987e-35
-2.91376e-34
-3.12987e-33
-3.14761e-32
-2.92426e-31
-2.47618e-30
-1.88127e-29
-1.25477e-28
-7.10776e-28
-3.22722e-27
-1.03801e-26
-1.59729e-26
-2.55249e-28
1.62564e-27
6.95789e-26
2.11019e-24
6.52272e-23
2.15904e-21
-2.22969e-63
-7.96333e-63
-3.87794e-62
-1.95734e-61
-1.02164e-60
-5.51262e-60
-3.07475e-59
-1.7729e-58
-1.05691e-57
-6.51525e-57
-4.15337e-56
-2.73814e-55
-1.86664e-54
-1.31559e-53
-9.58247e-53
-7.20958e-52
-5.59922e-51
-4.48533e-50
-3.70291e-49
-3.14781e-48
-2.75323e-47
-2.47578e-46
-2.28704e-45
-2.16813e-44
-2.10625e-43
-2.09232e-42
-2.11941e-41
-2.18181e-40
-2.27444e-39
-2.39226e-38
-2.5293e-37
-3.07568e-36
-3.56708e-35
-3.92437e-34
-4.06735e-33
-3.93821e-32
-3.52265e-31
-2.86429e-30
-2.08302e-29
-1.32469e-28
-7.12367e-28
-3.05867e-27
-9.28641e-27
-1.35376e-26
-2.08477e-28
7.66161e-28
4.00249e-26
1.27908e-24
4.23e-23
1.3675e-21
-6.63001e-63
-2.34238e-62
-1.12886e-61
-5.63334e-61
-2.90368e-60
-1.54516e-59
-8.48674e-59
-4.81077e-58
-2.81444e-57
-1.69934e-56
-1.05897e-55
-6.81084e-55
-4.5207e-54
-3.09639e-53
-2.18816e-52
-1.59511e-51
-1.19916e-50
-9.29452e-50
-7.42553e-49
-6.11314e-48
-5.18444e-47
-4.52725e-46
-4.06746e-45
-3.75508e-44
-3.55545e-43
-3.44357e-42
-3.40047e-41
-3.41091e-40
-3.46203e-39
-3.54212e-38
-3.63903e-37
-4.29264e-36
-4.82386e-35
-5.13559e-34
-5.14337e-33
-4.80425e-32
-4.14154e-31
-3.24285e-30
-2.26502e-29
-1.37878e-28
-7.06796e-28
-2.88113e-27
-8.28964e-27
-1.15332e-26
-1.68684e-28
4.31939e-28
2.66593e-26
8.91095e-25
3.14563e-23
1.01355e-21
-1.88914e-62
-6.62004e-62
-3.1645e-61
-1.56528e-60
-7.98976e-60
-4.20584e-59
-2.28232e-58
-1.27641e-57
-7.35546e-57
-4.36675e-56
-2.67029e-55
-1.68161e-54
-1.09036e-53
-7.27783e-53
-4.99965e-52
-3.53452e-51
-2.5714e-50
-1.92546e-49
-1.48452e-48
-1.17913e-47
-9.65401e-47
-8.14987e-46
-7.09182e-45
-6.35352e-44
-5.84756e-43
-5.51172e-42
-5.30017e-41
-5.17795e-40
-5.11739e-39
-5.09532e-38
-5.09016e-37
-5.82969e-36
-6.35399e-35
-6.55347e-34
-6.35085e-33
-5.7325e-32
-4.76885e-31
-3.60532e-30
-2.4272e-29
-1.42053e-28
-6.97677e-28
-2.71373e-27
-7.43252e-27
-9.92831e-27
-1.31497e-28
3.40586e-28
2.07852e-26
6.88917e-25
2.637e-23
8.02e-22
-5.15373e-62
-1.79495e-61
-8.5258e-61
-4.1884e-60
-2.12192e-59
-1.10775e-58
-5.95597e-58
-3.29666e-57
-1.87776e-56
-1.10023e-55
-6.62867e-55
-4.10463e-54
-2.61107e-53
-1.7055e-52
-1.14335e-51
-7.86434e-51
-5.54958e-50
-4.0188e-49
-2.98887e-48
-2.28584e-47
-1.80056e-46
-1.46295e-45
-1.22698e-44
-1.06172e-43
-9.45938e-43
-8.64851e-42
-8.07929e-41
-7.67542e-40
-7.38025e-39
-7.14994e-38
-6.94743e-37
-7.73002e-36
-8.17865e-35
-8.18047e-34
-7.68014e-33
-6.70969e-32
-5.39781e-31
-3.94542e-30
-2.56957e-29
-1.45274e-28
-6.87673e-28
-2.56962e-27
-6.74392e-27
-8.71479e-27
-9.75108e-29
3.28021e-28
1.78307e-26
5.81717e-25
2.21766e-23
6.73598e-22
-1.34612e-61
-4.66619e-61
-2.20516e-60
-1.07752e-59
-5.42734e-59
-2.8154e-58
-1.50315e-57
-8.25518e-57
-4.66102e-56
-2.70408e-55
-1.6109e-54
-9.84749e-54
-6.17241e-53
-3.96368e-52
-2.60555e-51
-1.75204e-50
-1.20457e-49
-8.46759e-49
-6.09035e-48
-4.48916e-47
-3.39902e-46
-2.65078e-45
-2.13389e-44
-1.77454e-43
-1.52267e-42
-1.344e-41
-1.21488e-40
-1.11889e-39
-1.04449e-38
-9.83325e-38
-9.28892e-37
-1.00415e-35
-1.03186e-34
-1.00169e-33
-9.11983e-33
-7.72128e-32
-6.01717e-31
-4.26003e-30
-2.69079e-29
-1.47643e-28
-6.77859e-28
-2.45293e-27
-6.22522e-27
-7.86208e-27
-7.06747e-29
2.90697e-28
1.42779e-26
4.6794e-25
2.24461e-23
5.09121e-22
-3.36861e-61
-1.16331e-60
-5.4746e-60
-2.66355e-59
-1.33544e-58
-6.89329e-58
-3.6605e-57
-1.99839e-56
-1.12089e-55
-6.45476e-55
-3.81316e-54
-2.30878e-53
-1.43128e-52
-9.07439e-52
-5.87671e-51
-3.88297e-50
-2.61505e-49
-1.79413e-48
-1.25428e-47
-8.9471e-47
-6.52856e-46
-4.8897e-45
-3.77202e-44
-3.00407e-43
-2.47065e-42
-2.09403e-41
-1.82187e-40
-1.61897e-39
-1.46161e-38
-1.3334e-37
-1.22239e-36
-1.28273e-35
-1.28003e-34
-1.20642e-33
-1.06586e-32
-8.75305e-32
-6.61577e-31
-4.54472e-30
-2.78875e-29
-1.49057e-28
-6.6763e-28
-2.35852e-27
-5.84769e-27
-7.30286e-27
-5.09597e-29
2.1474e-28
1.05874e-26
3.45003e-25
1.43448e-23
3.46836e-22
-8.08534e-61
-2.78376e-60
-1.30533e-59
-6.32777e-59
-3.16061e-58
-1.62492e-57
-8.59172e-57
-4.66874e-56
-2.60538e-55
-1.49192e-54
-8.75835e-54
-5.26548e-53
-3.23785e-52
-2.03364e-51
-1.30264e-50
-8.49608e-50
-5.63396e-49
-3.79421e-48
-2.59399e-47
-1.80165e-46
-1.27394e-45
-9.20212e-45
-6.81784e-44
-5.19937e-43
-4.0886e-42
-3.31337e-41
-2.75961e-40
-2.35237e-39
-2.0425e-38
-1.79716e-37
-1.59322e-36
-1.61904e-35
-1.56699e-34
-1.43329e-33
-1.22892e-32
-9.7928e-32
-7.18331e-31
-4.79304e-30
-2.86181e-29
-1.49261e-28
-6.55128e-28
-2.27454e-27
-5.56015e-27
-6.93501e-27
-3.73107e-29
1.4777e-28
7.68043e-27
2.61703e-25
1.0029e-23
2.94822e-22
-1.86359e-60
-6.4009e-60
-2.9919e-59
-1.44577e-58
-7.19794e-58
-3.68809e-57
-1.94315e-56
-1.05193e-55
-5.84648e-55
-3.33317e-54
-1.94732e-53
-1.16446e-52
-7.11743e-52
-4.43965e-51
-2.82119e-50
-1.82284e-49
-1.19529e-48
-7.94146e-48
-5.34043e-47
-3.63501e-46
-2.50786e-45
-1.75879e-44
-1.25871e-43
-9.22818e-43
-6.94944e-42
-5.37927e-41
-4.27423e-40
-3.47673e-39
-2.8852e-38
-2.43301e-37
-2.07424e-36
-2.0323e-35
-1.90222e-34
-1.68572e-33
-1.40156e-32
-1.08338e-31
-7.71204e-31
-4.99915e-30
-2.90608e-29
-1.48078e-28
-6.37946e-28
-2.18652e-27
-5.30343e-27
-6.64661e-27
-2.89178e-29
8.1297e-29
5.06554e-27
1.91169e-25
8.24417e-24
2.68467e-22
-4.12963e-60
-1.41575e-59
-6.59874e-59
-3.17968e-58
-1.57849e-57
-8.0641e-57
-4.23581e-56
-2.28577e-55
-1.26614e-54
-7.19269e-54
-4.18601e-53
-2.49269e-52
-1.51656e-51
-9.4111e-51
-5.94523e-50
-3.81528e-49
-2.48177e-48
-1.63304e-47
-1.08532e-46
-7.28078e-46
-4.9334e-45
-3.38362e-44
-2.3566e-43
-1.67256e-42
-1.21296e-41
-8.99843e-41
-6.82554e-40
-5.28594e-39
-4.17232e-38
-3.35012e-37
-2.72746e-36
-2.55979e-35
-2.30538e-34
-1.97246e-33
-1.5867e-32
-1.18807e-31
-8.1996e-31
-5.15978e-30
-2.9186e-29
-1.45262e-28
-6.14528e-28
-2.08154e-27
-5.02486e-27
-6.33793e-27
-2.39477e-29
2.59667e-29
3.16746e-27
1.38466e-25
6.97031e-24
2.33147e-22
-8.80746e-60
-3.01505e-59
-1.40174e-58
-6.73727e-58
-3.33597e-57
-1.69981e-56
-8.90468e-56
-4.79198e-55
-2.64679e-54
-1.49907e-53
-8.69653e-53
-5.16102e-52
-3.12846e-51
-1.93357e-50
-1.21603e-49
-7.76426e-49
-5.02109e-48
-3.28128e-47
-2.16276e-46
-1.43619e-45
-9.60903e-45
-6.48661e-44
-4.42889e-43
-3.06703e-42
-2.15878e-41
-1.54561e-40
-1.12498e-39
-8.31522e-39
-6.23761e-38
-4.74933e-37
-3.66846e-36
-3.27266e-35
-2.81582e-34
-2.31265e-33
-1.79233e-32
-1.2961e-31
-8.65336e-31
-5.27625e-30
-2.8989e-29
-1.40698e-28
-5.83724e-28
-1.95242e-27
-4.68877e-27
-5.93965e-27
-2.12033e-29
-1.04047e-29
1.87183e-27
1.14925e-25
6.96837e-24
1.73127e-22
-1.80991e-59
-6.18878e-59
-2.87068e-58
-1.37659e-57
-6.80043e-57
-3.45697e-56
-1.80668e-55
-9.69885e-55
-5.34362e-54
-3.01861e-53
-1.74642e-52
-1.03346e-51
-6.24543e-51
-3.84742e-50
-2.41105e-49
-1.53341e-48
-9.87299e-48
-6.41961e-47
-4.20644e-46
-2.77358e-45
-1.83959e-44
-1.22831e-43
-8.27133e-43
-5.62864e-42
-3.87589e-41
-2.70063e-40
-1.90151e-39
-1.35061e-38
-9.67071e-38
-6.9881e-37
-5.10542e-36
-4.30159e-35
-3.50806e-34
-2.74446e-33
-2.03572e-32
-1.41432e-31
-9.09751e-31
-5.35683e-30
-2.84993e-29
-1.34474e-28
-5.45521e-28
-1.797e-27
-4.28194e-27
-5.42001e-27
-1.86239e-29
2.9985e-29
3.76281e-27
1.96546e-25
9.94846e-24
2.57204e-22
-3.58823e-59
-1.22581e-58
-5.67404e-58
-2.71523e-57
-1.33851e-56
-6.78987e-56
-3.54093e-55
-1.89676e-54
-1.0427e-53
-5.87667e-53
-3.39186e-52
-2.00216e-51
-1.20679e-50
-7.4137e-50
-4.63221e-49
-2.9367e-48
-1.88427e-47
-1.2205e-46
-7.96277e-46
-5.22404e-45
-3.44403e-44
-2.28254e-43
-1.52266e-42
-1.02384e-41
-6.94335e-41
-4.74496e-40
-3.2599e-39
-2.24513e-38
-1.54729e-37
-1.06775e-36
-7.3978e-36
-5.87571e-35
-4.51565e-34
-3.3384e-33
-2.35022e-32
-1.55669e-31
-9.58457e-31
-5.42026e-30
-2.77876e-29
-1.2688e-28
-5.0104e-28
-1.61855e-27
-3.80986e-27
-4.78138e-27
-1.53321e-29
1.25204e-28
7.52557e-27
3.42209e-25
1.43272e-23
3.68299e-22
-6.87277e-59
-2.34599e-58
-1.08377e-57
-5.17616e-57
-2.54671e-56
-1.28936e-55
-6.7109e-55
-3.5877e-54
-1.96828e-53
-1.10703e-52
-6.37583e-52
-3.75522e-51
-2.2582e-50
-1.38393e-49
-8.62506e-49
-5.45335e-48
-3.48903e-47
-2.25303e-46
-1.46501e-45
-9.5756e-45
-6.28586e-44
-4.14465e-43
-2.74733e-42
-1.83246e-41
-1.22995e-40
-8.29437e-40
-5.60176e-39
-3.77364e-38
-2.52753e-37
-1.68185e-36
-1.11396e-35
-8.3783e-35
-6.06577e-34
-4.2171e-33
-2.79539e-32
-1.74899e-31
-1.02134e-30
-5.50134e-30
-2.69768e-29
-1.18398e-28
-4.5226e-28
-1.42419e-27
-3.29e-27
-4.03846e-27
-1.44755e-29
2.08984e-28
1.08974e-26
4.72942e-25
1.74092e-23
4.82821e-22
-1.27366e-58
-4.34434e-58
-2.0031e-57
-9.54928e-57
-4.68967e-56
-2.36996e-55
-1.23128e-54
-6.57045e-54
-3.59797e-53
-2.01979e-52
-1.16101e-51
-6.82434e-51
-4.09527e-50
-2.50433e-49
-1.55724e-48
-9.82272e-48
-6.26903e-47
-4.03775e-46
-2.61837e-45
-1.70646e-44
-1.11662e-43
-7.33567e-43
-4.84121e-42
-3.21147e-41
-2.14061e-40
-1.43077e-39
-9.55248e-39
-6.33921e-38
-4.16268e-37
-2.69828e-36
-1.727e-35
-1.24217e-34
-8.52631e-34
-5.58249e-33
-3.47133e-32
-2.03539e-31
-1.11564e-30
-5.65983e-30
-2.62616e-29
-1.0969e-28
-4.01683e-28
-1.22288e-27
-2.74484e-27
-3.20173e-27
-1.61221e-29
2.59124e-28
1.43229e-26
6.1237e-25
2.1149e-23
7.09966e-22
-2.28706e-58
-7.79509e-58
-3.5874e-57
-1.7071e-56
-8.36865e-56
-4.22173e-55
-2.18952e-54
-1.16636e-53
-6.37586e-53
-3.57288e-52
-2.05005e-51
-1.20277e-50
-7.20395e-50
-4.39662e-49
-2.72829e-48
-1.71729e-47
-1.0936e-46
-7.0277e-46
-4.54668e-45
-2.95605e-44
-1.92941e-43
-1.26402e-42
-8.31556e-42
-5.49517e-41
-3.64548e-40
-2.42206e-39
-1.6048e-38
-1.05453e-37
-6.83513e-37
-4.35369e-36
-2.72119e-35
-1.89415e-34
-1.24658e-33
-7.75105e-33
-4.53748e-32
-2.48756e-31
-1.26968e-30
-5.99362e-30
-2.59426e-29
-1.01644e-28
-3.52118e-28
-1.02396e-27
-2.19907e-27
-2.29184e-27
-2.64459e-29
3.75828e-28
2.29201e-26
9.86335e-25
3.51599e-23
1.22888e-21
-3.98457e-58
-1.35702e-57
-6.23331e-57
-2.96084e-56
-1.44892e-55
-7.29681e-55
-3.77797e-54
-2.00918e-53
-1.09648e-52
-6.13413e-52
-3.51367e-51
-2.0579e-50
-1.23038e-49
-7.49534e-49
-4.64238e-48
-2.91639e-47
-1.85349e-46
-1.18867e-45
-7.67437e-45
-4.97911e-44
-3.24291e-43
-2.1198e-42
-1.39112e-41
-9.16704e-41
-6.06084e-40
-4.01024e-39
-2.64359e-38
-1.72606e-37
-1.10959e-36
-6.99016e-36
-4.30329e-35
-2.93075e-34
-1.87247e-33
-1.11963e-32
-6.23591e-32
-3.21608e-31
-1.52784e-30
-6.65682e-30
-2.64797e-29
-9.54674e-29
-3.06658e-28
-8.36038e-28
-1.67631e-27
-1.33636e-27
-3.55527e-29
6.977e-28
4.73265e-26
2.10099e-24
8.47886e-23
2.76205e-21
-6.74371e-58
-2.29477e-57
-1.05204e-56
-4.98818e-56
-2.43674e-55
-1.22507e-54
-6.3324e-54
-3.36222e-53
-1.83194e-52
-1.02322e-51
-5.85162e-51
-3.42159e-50
-2.04229e-49
-1.242e-48
-7.67904e-48
-4.81533e-47
-3.0547e-46
-1.95535e-45
-1.26005e-44
-8.15974e-44
-5.30441e-43
-3.46065e-42
-2.26644e-41
-1.49015e-40
-9.82687e-40
-6.48261e-39
-4.25838e-38
-2.76883e-37
-1.77087e-36
-1.10828e-35
-6.7617e-35
-4.54427e-34
-2.84935e-33
-1.65963e-32
-8.91767e-32
-4.38367e-31
-1.9565e-30
-7.88283e-30
-2.85651e-29
-9.28664e-29
-2.68888e-28
-6.66666e-28
-1.19688e-27
-4.16889e-28
-9.61305e-29
1.64988e-27
1.10125e-25
5.56954e-24
2.92017e-22
8.49048e-21
-1.11001e-57
-3.77372e-57
-1.72666e-56
-8.1718e-56
-3.98495e-55
-2.00006e-54
-1.03216e-53
-5.47169e-53
-2.9767e-52
-1.66006e-51
-9.47893e-51
-5.53393e-50
-3.29788e-49
-2.00234e-48
-1.23596e-47
-7.73726e-47
-4.89984e-46
-3.13099e-45
-2.01413e-44
-1.30203e-43
-8.44949e-43
-5.50292e-42
-3.59745e-41
-2.36071e-40
-1.55349e-39
-1.02241e-38
-6.69884e-38
-4.34336e-37
-2.76919e-36
-1.72662e-35
-1.0483e-34
-6.99387e-34
-4.33889e-33
-2.48809e-32
-1.307e-31
-6.21953e-31
-2.65065e-30
-1.00112e-29
-3.32152e-29
-9.62905e-29
-2.43369e-28
-5.23031e-28
-7.81737e-28
-4.73844e-30
-7.98273e-29
3.83646e-27
2.5533e-25
1.45047e-23
8.00795e-22
3.15593e-20
-1.77888e-57
-6.04174e-57
-2.7588e-56
-1.30323e-55
-6.34394e-55
-3.17872e-54
-1.63781e-53
-8.66896e-53
-4.70896e-52
-2.6222e-51
-1.49505e-50
-8.71525e-50
-5.18589e-49
-3.14383e-48
-1.93751e-47
-1.21098e-46
-7.65651e-46
-4.88455e-45
-3.13707e-44
-2.02467e-43
-1.31179e-42
-8.52947e-42
-5.56671e-41
-3.64657e-40
-2.39517e-39
-1.57323e-38
-1.02868e-37
-6.65621e-37
-4.23547e-36
-2.63563e-35
-1.59653e-34
-1.06151e-33
-6.55184e-33
-3.72734e-32
-1.93413e-31
-9.03269e-31
-3.74051e-30
-1.35159e-29
-4.18739e-29
-1.09239e-28
-2.36279e-28
-4.12075e-28
-4.29958e-28
-1.4994e-29
4.09763e-30
8.73024e-27
5.58325e-25
3.29008e-23
1.8741e-21
8.9528e-20
-2.77877e-57
-9.42788e-57
-4.29605e-56
-2.02555e-55
-9.84244e-55
-4.92341e-54
-2.53271e-53
-1.33852e-52
-7.26005e-52
-4.03688e-51
-2.29829e-50
-1.33783e-49
-7.94895e-49
-4.81177e-48
-2.96103e-47
-1.84791e-46
-1.16658e-45
-7.43096e-45
-4.76521e-44
-3.07082e-43
-1.98658e-42
-1.28973e-41
-8.40405e-41
-5.49608e-40
-3.60369e-39
-2.36277e-38
-1.54222e-37
-9.96337e-37
-6.33172e-36
-3.93633e-35
-2.38266e-34
-1.58255e-33
-9.752e-33
-5.53169e-32
-2.85578e-31
-1.32224e-30
-5.39707e-30
-1.90316e-29
-5.65173e-29
-1.36594e-28
-2.56189e-28
-3.41789e-28
-1.41905e-28
-3.69396e-29
1.19192e-28
1.78226e-26
1.13735e-24
6.76221e-23
3.89385e-21
2.12918e-19
-4.2359e-57
-1.4356e-56
-6.52777e-56
-3.07177e-55
-1.48989e-54
-7.43997e-54
-3.82113e-53
-2.01635e-52
-1.09203e-51
-6.06332e-51
-3.44705e-50
-2.00366e-49
-1.18882e-48
-7.18604e-48
-4.41575e-47
-2.75179e-46
-1.73469e-45
-1.10338e-44
-7.06546e-44
-4.54667e-43
-2.93712e-42
-1.90406e-41
-1.23882e-40
-8.08862e-40
-5.29462e-39
-3.4655e-38
-2.25834e-37
-1.45701e-36
-9.25077e-36
-5.74892e-35
-3.48035e-34
-2.31244e-33
-1.42564e-32
-8.08792e-32
-4.17297e-31
-1.9283e-30
-7.83545e-30
-2.73729e-29
-7.97432e-29
-1.84956e-28
-3.1496e-28
-3.2359e-28
-5.00979e-31
-4.37853e-29
2.70146e-28
3.38975e-26
2.21211e-24
1.2852e-22
7.37111e-21
4.47387e-19
-6.30841e-57
-2.13564e-56
-9.68984e-56
-4.5506e-55
-2.20298e-54
-1.09814e-53
-5.63064e-53
-2.96652e-52
-1.60421e-51
-8.89404e-51
-5.04908e-50
-2.93069e-49
-1.7364e-48
-1.04813e-47
-6.43167e-47
-4.0025e-46
-2.51963e-45
-1.60046e-44
-1.02345e-43
-6.57708e-43
-4.24297e-42
-2.74673e-41
-1.78444e-40
-1.16327e-39
-7.60181e-39
-4.96726e-38
-3.23193e-37
-2.08254e-36
-1.32127e-35
-8.21056e-35
-4.97377e-34
-3.30842e-33
-2.04301e-32
-1.16127e-31
-6.00394e-31
-2.78001e-30
-1.13147e-29
-3.95412e-29
-1.14828e-28
-2.62916e-28
-4.28556e-28
-3.69373e-28
-3.70826e-30
-3.30941e-29
6.41843e-28
6.11772e-26
4.01941e-24
2.26619e-22
1.28937e-20
8.6794e-19
-9.18841e-57
-3.10722e-56
-1.40672e-55
-6.59275e-55
-3.18534e-54
-1.5849e-53
-8.11234e-53
-4.26701e-52
-2.30387e-51
-1.27538e-50
-7.22963e-50
-4.19035e-49
-2.47922e-48
-1.49443e-47
-9.15769e-47
-5.6912e-46
-3.5779e-45
-2.26968e-44
-1.44952e-43
-9.3031e-43
-5.99369e-42
-3.8748e-41
-2.51363e-40
-1.63606e-39
-1.06736e-38
-6.96272e-38
-4.52325e-37
-2.9111e-36
-1.84576e-35
-1.14707e-34
-6.95485e-34
-4.63321e-33
-2.86756e-32
-1.63464e-31
-8.48101e-31
-3.94373e-30
-1.61331e-29
-5.67139e-29
-1.65731e-28
-3.81217e-28
-6.17941e-28
-4.97429e-28
-6.98439e-30
-2.68074e-29
1.24078e-27
1.08894e-25
6.84631e-24
3.72699e-22
2.10976e-20
1.60852e-18
-1.31016e-56
-4.42582e-56
-1.99928e-55
-9.35025e-55
-4.5085e-54
-2.23893e-53
-1.14391e-52
-6.00651e-52
-3.23776e-51
-1.78956e-50
-1.01289e-49
-5.86214e-49
-3.46336e-48
-2.08473e-47
-1.27575e-46
-7.91773e-46
-4.97115e-45
-3.14949e-44
-2.00888e-43
-1.28771e-42
-8.28578e-42
-5.34945e-41
-3.46527e-40
-2.25191e-39
-1.46667e-38
-9.55128e-38
-6.19519e-37
-3.98231e-36
-2.52337e-35
-1.5684e-34
-9.51875e-34
-6.35196e-33
-3.9413e-32
-2.2542e-31
-1.1745e-30
-5.49101e-30
-2.26179e-29
-8.02117e-29
-2.37019e-28
-5.52736e-28
-9.09677e-28
-7.35462e-28
-1.05091e-29
-2.88019e-29
2.2051e-27
1.88035e-25
1.11551e-23
5.72423e-22
3.30522e-20
3.66534e-18
-1.83039e-56
-6.17688e-56
-2.78418e-55
-1.29935e-54
-6.25222e-54
-3.09864e-53
-1.58014e-52
-8.28206e-52
-4.4567e-51
-2.45924e-50
-1.38974e-49
-8.03096e-49
-4.73773e-48
-2.84776e-47
-1.74028e-46
-1.07864e-45
-6.76352e-45
-4.27969e-44
-2.72645e-43
-1.74556e-42
-1.12179e-41
-7.233e-41
-4.67869e-40
-3.03567e-39
-1.97378e-38
-1.28315e-37
-8.30954e-37
-5.33485e-36
-3.37823e-35
-2.10003e-34
-1.2758e-33
-8.52824e-33
-5.30554e-32
-3.04505e-31
-1.59372e-30
-7.49474e-30
-3.1109e-29
-1.11442e-28
-3.33717e-28
-7.92228e-28
-1.33602e-27
-1.12185e-27
-1.56864e-29
-3.06248e-29
3.87308e-27
3.10229e-25
1.79175e-23
8.57073e-22
5.2252e-20
9.77644e-18
-2.50737e-56
-8.45326e-56
-3.80197e-55
-1.77059e-54
-8.50178e-54
-4.20487e-53
-2.14001e-52
-1.11953e-51
-6.01355e-51
-3.31264e-50
-1.86893e-49
-1.07831e-48
-6.35169e-48
-3.81234e-47
-2.32649e-46
-1.44004e-45
-9.01808e-45
-5.69924e-44
-3.62645e-43
-2.319e-42
-1.48851e-41
-9.58502e-41
-6.19124e-40
-4.01069e-39
-2.60325e-38
-1.68939e-37
-1.09226e-36
-7.00357e-36
-4.43193e-35
-2.75532e-34
-1.67551e-33
-1.12191e-32
-6.99764e-32
-4.03015e-31
-2.1189e-30
-1.0024e-29
-4.19369e-29
-1.51813e-28
-4.61047e-28
-1.11576e-27
-1.9344e-27
-1.70649e-27
-2.21667e-29
-3.17713e-29
6.96715e-27
4.94413e-25
2.62899e-23
1.25496e-21
8.70013e-20
2.2994e-17
-3.37014e-56
-1.13515e-55
-5.09457e-55
-2.36756e-54
-1.13441e-53
-5.59888e-53
-2.84368e-52
-1.48475e-51
-7.96041e-51
-4.37728e-50
-2.46538e-49
-1.42013e-48
-8.35214e-48
-5.00556e-47
-3.05032e-46
-1.88552e-45
-1.17926e-44
-7.44352e-44
-4.73071e-43
-3.02159e-42
-1.93714e-41
-1.24578e-40
-8.03532e-40
-5.19697e-39
-3.36737e-38
-2.18136e-37
-1.408e-36
-9.0163e-36
-5.70149e-35
-3.54476e-34
-2.1575e-33
-1.44695e-32
-9.04745e-32
-5.22821e-31
-2.76097e-30
-1.31381e-29
-5.53949e-29
-2.02631e-28
-6.24082e-28
-1.53988e-27
-2.74625e-27
-2.55131e-27
-2.9975e-29
-3.30926e-29
1.17183e-26
8.31246e-25
3.7414e-23
1.78086e-21
1.67726e-19
4.47984e-17
-4.44751e-56
-1.49671e-55
-6.70303e-55
-3.10852e-54
-1.48629e-53
-7.3201e-53
-3.71019e-52
-1.9333e-51
-1.03454e-50
-5.67831e-50
-3.19253e-49
-1.8359e-48
-1.07801e-47
-6.45082e-47
-3.92534e-46
-2.42307e-45
-1.51349e-44
-9.5414e-44
-6.05682e-43
-3.86407e-42
-2.47427e-41
-1.58915e-40
-1.02354e-39
-6.6092e-39
-4.27488e-38
-2.76422e-37
-1.78119e-36
-1.13907e-35
-7.19735e-35
-4.47467e-34
-2.72567e-33
-1.83069e-32
-1.14737e-31
-6.65139e-31
-3.5274e-30
-1.68798e-29
-7.17085e-29
-2.64968e-28
-8.2731e-28
-2.08039e-27
-3.81495e-27
-3.72971e-27
-4.08366e-29
-2.36687e-29
1.82773e-26
1.24517e-24
5.15743e-23
2.65489e-21
4.78272e-19
7.32391e-17
-5.7666e-56
-1.93892e-55
-8.66519e-55
-4.01013e-54
-1.91333e-53
-9.40339e-53
-4.75618e-52
-2.47331e-51
-1.32092e-50
-7.23648e-50
-4.06126e-49
-2.33145e-48
-1.36673e-47
-8.16574e-47
-4.9615e-46
-3.0584e-45
-1.90781e-44
-1.20123e-43
-7.61624e-43
-4.85323e-42
-3.10391e-41
-1.99096e-40
-1.28048e-39
-8.25488e-39
-5.32981e-38
-3.44003e-37
-2.21283e-36
-1.41313e-35
-8.92159e-35
-5.54607e-34
-3.38066e-33
-2.27364e-32
-1.42807e-31
-8.30329e-31
-4.42099e-30
-2.1269e-29
-9.10048e-29
-3.39535e-28
-1.07415e-27
-2.75094e-27
-5.18291e-27
-5.32431e-27
-5.54087e-29
5.66741e-30
2.91497e-26
1.75004e-24
7.24301e-23
4.36745e-21
1.22444e-18
1.02489e-16
-7.35131e-56
-2.46952e-55
-1.10133e-54
-5.08624e-54
-2.42165e-53
-1.18765e-52
-5.9945e-52
-3.11088e-51
-1.65811e-50
-9.06634e-50
-5.07883e-49
-2.91045e-48
-1.70328e-47
-1.01602e-46
-6.16395e-46
-3.79419e-45
-2.36362e-44
-1.48634e-43
-9.4126e-43
-5.99081e-42
-3.82681e-41
-2.45145e-40
-1.57434e-39
-1.01327e-38
-6.53047e-38
-4.20712e-37
-2.70152e-36
-1.72273e-35
-1.08664e-34
-6.75382e-34
-4.11926e-33
-2.77364e-32
-1.74556e-31
-1.01772e-30
-5.43886e-30
-2.62971e-29
-1.13284e-28
-4.26554e-28
-1.36645e-27
-3.56144e-27
-6.88764e-27
-7.42203e-27
-8.58308e-29
1.135e-28
4.46933e-26
2.27164e-24
9.80889e-23
9.50099e-21
2.31371e-18
1.27572e-16
-9.22109e-56
-3.0946e-55
-1.37716e-54
-6.3469e-54
-3.01552e-53
-1.47577e-52
-7.43309e-52
-3.84948e-51
-2.04766e-50
-1.11745e-49
-6.248e-49
-3.57398e-48
-2.08798e-47
-1.24345e-46
-7.53199e-46
-4.62951e-45
-2.88003e-44
-1.80875e-43
-1.14403e-42
-7.27267e-42
-4.63994e-41
-2.96842e-40
-1.90354e-39
-1.22312e-38
-7.8687e-38
-5.05971e-37
-3.24319e-36
-2.06509e-35
-1.30135e-34
-8.08604e-34
-4.93411e-33
-3.32567e-32
-2.09669e-31
-1.22551e-30
-6.57177e-30
-3.19233e-29
-1.38398e-28
-5.2565e-28
-1.70404e-27
-4.51639e-27
-8.95748e-27
-1.01085e-26
-9.27315e-29
1.86162e-28
6.1747e-26
2.85225e-24
1.40074e-22
2.67981e-20
3.50228e-18
1.45317e-16
-1.13903e-55
-3.8183e-55
-1.69551e-54
-7.79759e-54
-3.69689e-53
-1.80538e-52
-9.07401e-52
-4.68949e-51
-2.4894e-50
-1.35582e-49
-7.56629e-49
-4.32008e-48
-2.5194e-47
-1.49783e-46
-9.05842e-46
-5.55937e-45
-3.45364e-44
-2.16615e-43
-1.36838e-42
-8.68824e-42
-5.53618e-41
-3.53708e-40
-2.26484e-39
-1.45286e-38
-9.32958e-38
-5.9877e-37
-3.83106e-36
-2.43571e-35
-1.53334e-34
-9.52408e-34
-5.8136e-33
-3.92177e-32
-2.47639e-31
-1.45072e-30
-7.80381e-30
-3.8072e-29
-1.66037e-28
-6.35785e-28
-2.08439e-27
-5.61345e-27
-1.14071e-26
-1.34601e-26
-7.91081e-29
8.77026e-29
8.10474e-26
3.48611e-24
2.56039e-22
6.02707e-20
4.574e-18
1.54887e-16
-1.38682e-55
-4.64267e-55
-2.05685e-54
-9.43875e-54
-4.46526e-53
-2.1759e-52
-1.09128e-51
-5.62787e-51
-2.98136e-50
-1.62049e-49
-9.02556e-49
-5.14352e-48
-2.99417e-47
-1.77701e-46
-1.07292e-45
-6.57458e-45
-4.07842e-44
-2.55456e-43
-1.61168e-42
-1.02203e-41
-6.50422e-41
-4.14997e-40
-2.65332e-39
-1.69921e-38
-1.08915e-37
-6.97677e-37
-4.4557e-36
-2.82844e-35
-1.77866e-34
-1.10428e-33
-6.74215e-33
-4.55121e-32
-2.87775e-31
-1.68924e-30
-9.11265e-30
-4.46339e-29
-1.9573e-28
-7.55221e-28
-2.50238e-27
-6.84234e-27
-1.42332e-26
-1.75388e-26
-9.18644e-29
2.64288e-30
1.01766e-25
4.5093e-24
7.40104e-22
1.01539e-19
5.38159e-18
1.57706e-16
-1.66609e-55
-5.56792e-55
-2.46066e-54
-1.12658e-53
-5.31757e-53
-2.58545e-52
-1.29384e-51
-6.65808e-51
-3.51965e-50
-1.90913e-49
-1.06119e-48
-6.03581e-48
-3.50703e-47
-2.07767e-46
-1.25232e-45
-7.66173e-45
-4.74574e-44
-2.96841e-43
-1.87032e-42
-1.18454e-41
-7.52876e-41
-4.79712e-40
-3.06246e-39
-1.95793e-38
-1.25267e-37
-8.00878e-37
-5.10531e-36
-3.23565e-35
-2.03243e-34
-1.26116e-33
-7.7007e-33
-5.20085e-32
-3.29229e-31
-1.93598e-30
-1.04702e-29
-5.14685e-29
-2.26853e-28
-8.81555e-28
-2.95028e-27
-8.18427e-27
-1.74117e-26
-2.23806e-26
-1.26263e-28
1.65984e-28
1.20073e-25
8.68165e-24
1.82105e-21
1.41272e-19
5.86273e-18
1.56156e-16
-1.97747e-55
-6.59317e-55
-2.90569e-54
-1.327e-53
-6.24847e-53
-3.03095e-52
-1.51332e-51
-7.77019e-51
-4.09861e-50
-2.21845e-49
-1.23058e-48
-6.98529e-48
-4.05089e-47
-2.39545e-46
-1.44134e-45
-8.80358e-45
-5.44461e-44
-3.40066e-43
-2.13977e-42
-1.35343e-41
-8.59092e-41
-5.46634e-40
-3.48439e-39
-2.22392e-38
-1.42021e-37
-9.06239e-37
-5.76614e-36
-3.64856e-35
-2.28907e-34
-1.41952e-33
-8.66745e-33
-5.85568e-32
-3.71027e-31
-2.18505e-30
-1.18437e-29
-5.84103e-29
-2.58654e-28
-1.01179e-27
-3.41796e-27
-9.61198e-27
-2.08951e-26
-2.79904e-26
-4.40769e-28
8.61643e-28
1.38878e-25
2.59677e-23
3.2167e-21
1.71307e-19
6.04179e-18
1.49534e-16
-2.32233e-55
-7.71794e-55
-3.3904e-54
-1.54397e-53
-7.2509e-53
-3.50835e-52
-1.74744e-51
-8.95134e-51
-4.71095e-50
-2.54427e-49
-1.4083e-48
-7.97756e-48
-4.6171e-47
-2.72505e-46
-1.63668e-45
-9.97958e-45
-6.16204e-44
-3.84302e-43
-2.41474e-42
-1.5253e-41
-9.66895e-41
-6.14367e-40
-3.91015e-39
-2.49142e-38
-1.58809e-37
-1.01139e-36
-6.42309e-36
-4.05754e-35
-2.54251e-34
-1.57558e-33
-9.6189e-33
-6.49946e-32
-4.12114e-31
-2.43006e-30
-1.31973e-29
-6.52756e-29
-2.90287e-28
-1.14248e-27
-3.89326e-27
-1.10905e-26
-2.46128e-26
-3.43514e-26
-1.94295e-28
9.54763e-28
2.46584e-25
6.33528e-23
4.52186e-21
1.8931e-19
5.97649e-18
1.36061e-16
-2.70396e-55
-8.94487e-55
-3.91383e-54
-1.77639e-53
-8.31716e-53
-4.013e-52
-1.99355e-51
-1.01865e-50
-5.34813e-50
-2.88172e-49
-1.59152e-48
-8.99599e-48
-5.19571e-47
-3.06044e-46
-1.83464e-45
-1.11667e-44
-6.88355e-44
-4.28634e-43
-2.68939e-42
-1.69645e-41
-1.07391e-40
-6.81395e-40
-4.33006e-39
-2.75427e-38
-1.75236e-37
-1.11385e-36
-7.06033e-36
-4.45263e-35
-2.78649e-34
-1.72542e-33
-1.05309e-32
-7.11554e-32
-4.51407e-31
-2.66441e-30
-1.44938e-29
-7.18722e-29
-3.20853e-28
-1.26986e-27
-4.3626e-27
-1.25788e-26
-2.84722e-26
-4.13908e-26
-5.19821e-32
-5.87165e-29
7.87981e-25
1.08182e-22
5.46616e-21
1.96366e-19
5.68147e-18
1.18149e-16
-3.12969e-55
-1.02842e-54
-4.47705e-54
-2.02363e-53
-9.4406e-53
-4.54035e-52
-2.24886e-51
-1.14595e-50
-6.0009e-50
-3.22548e-49
-1.77716e-48
-1.00225e-47
-5.77596e-47
-3.39514e-46
-2.03124e-45
-1.23403e-44
-7.59375e-44
-4.72093e-43
-2.95761e-42
-1.86297e-41
-1.17767e-40
-7.46149e-40
-4.73416e-39
-3.00615e-38
-1.90905e-37
-1.21108e-36
-7.66203e-36
-4.8239e-35
-3.01482e-34
-1.86519e-33
-1.13796e-32
-7.68762e-32
-4.87843e-31
-2.88162e-30
-1.56965e-29
-7.8009e-29
-3.49445e-28
-1.3901e-27
-4.81162e-27
-1.40314e-26
-3.23626e-26
-4.90202e-26
0
-1.00043e-27
1.91694e-24
1.47048e-22
6.01765e-21
1.92937e-19
5.10458e-18
9.85861e-17
-3.61417e-55
-1.1761e-54
-5.08547e-54
-2.28638e-53
-1.06184e-52
-5.08693e-52
-2.51089e-51
-1.27548e-50
-6.66e-50
-3.57012e-49
-1.96205e-48
-1.10384e-47
-6.34675e-47
-3.72245e-46
-2.22242e-45
-1.34753e-44
-8.27705e-44
-5.13702e-43
-3.21323e-42
-2.02099e-41
-1.27572e-40
-8.07074e-40
-5.11264e-39
-3.2409e-38
-2.05428e-37
-1.30067e-36
-8.21308e-36
-5.16196e-35
-3.22168e-34
-1.99131e-33
-1.21431e-32
-8.2005e-32
-5.20434e-31
-3.07565e-30
-1.67711e-29
-8.35059e-29
-3.75203e-28
-1.49947e-27
-5.22605e-27
-1.54013e-26
-3.61596e-26
-5.70556e-26
-2.65169e-27
1.3278e-27
3.19763e-24
1.7225e-22
6.06267e-21
1.80205e-19
4.34368e-18
7.96606e-17
-4.18491e-55
-1.34275e-54
-5.7526e-54
-2.56787e-53
-1.18559e-52
-5.65189e-52
-2.77802e-51
-1.40598e-50
-7.31716e-50
-3.91058e-49
-2.14315e-48
-1.20257e-47
-6.89725e-47
-4.03585e-46
-2.40421e-45
-1.45474e-44
-8.91835e-44
-5.52519e-43
-3.45034e-42
-2.16677e-41
-1.3657e-40
-8.62701e-40
-5.4563e-39
-3.45275e-38
-2.18447e-37
-1.38039e-36
-8.69974e-36
-5.45834e-35
-3.40186e-34
-2.10058e-33
-1.28017e-32
-8.64083e-32
-5.48312e-31
-3.2412e-30
-1.76873e-29
-8.8203e-29
-3.97348e-28
-1.59454e-27
-5.59246e-27
-1.66426e-26
-3.9732e-26
-6.52089e-26
-1.44697e-26
6.99149e-27
4.15493e-24
1.806e-22
5.8381e-21
1.58122e-19
3.53444e-18
6.25803e-17
-4.89117e-55
-1.5382e-54
-6.50608e-54
-2.87583e-53
-1.31732e-52
-6.2394e-52
-3.05037e-51
-1.53679e-50
-7.96645e-50
-4.24269e-49
-2.3178e-48
-1.29679e-47
-7.41753e-47
-4.32931e-46
-2.57293e-45
-1.55339e-44
-9.50372e-44
-5.87677e-43
-3.66355e-42
-2.29696e-41
-1.44552e-40
-9.11709e-40
-5.7569e-39
-3.6366e-38
-2.29646e-37
-1.44831e-36
-9.11024e-36
-5.70589e-35
-3.55101e-34
-2.19033e-33
-1.33392e-32
-8.99763e-32
-5.70768e-31
-3.37394e-30
-1.84203e-29
-9.19682e-29
-4.15233e-28
-1.67241e-27
-5.89902e-27
-1.7713e-26
-4.29505e-26
-7.31488e-26
-2.92696e-26
1.54761e-26
4.64181e-24
1.77117e-22
5.28688e-21
1.30755e-19
2.77411e-18
4.79029e-17
-5.81856e-55
-1.78008e-54
-7.39735e-54
-3.22564e-53
-1.46157e-52
-6.86226e-52
-3.3311e-51
-1.66842e-50
-8.60623e-50
-4.56406e-49
-2.48412e-48
-1.38522e-47
-7.89937e-47
-4.59771e-46
-2.72541e-45
-1.64154e-44
-1.00211e-43
-6.18431e-43
-3.84821e-42
-2.40865e-41
-1.51337e-40
-9.52981e-40
-6.00755e-39
-3.78822e-38
-2.38767e-37
-1.50288e-36
-9.43521e-36
-5.89899e-35
-3.66576e-34
-2.25856e-33
-1.37436e-32
-9.26275e-32
-5.87277e-31
-3.47066e-30
-1.89519e-29
-9.47034e-29
-4.28367e-28
-1.7308e-27
-6.13618e-27
-1.85764e-26
-4.56964e-26
-8.05323e-26
-4.59214e-26
2.21514e-26
4.62862e-24