/*--------------------------------*- C++ -*----------------------------------*\
  =========                 |
  \\      /  F ield         | OpenFOAM: The Open Source CFD Toolbox
   \\    /   O peration     | Website:  https://openfoam.org
    \\  /    A nd           | Version:  9
     \\/     M anipulation  |
\*---------------------------------------------------------------------------*/
FoamFile
{
    format      ascii;
    class       volScalarField;
    location    "0.1";
    object      p_rgh;
}
// * * * * * * * * * * * * * * * * * * * * * * * * * * * * * * * * * * * * * //

dimensions      [1 -1 -2 0 0 0 0];

internalField   nonuniform List<scalar> 
5000
(
-0.000317715
-0.000977036
-0.00169235
-0.0024395
-0.00322195
-0.00404186
-0.00490186
-0.00580489
-0.00675416
-0.00775296
-0.00880447
-0.00991169
-0.0110774
-0.0123042
-0.013594
-0.014949
-0.0163717
-0.0178666
-0.0194417
-0.0211103
-0.0228928
-0.0248169
-0.0269167
-0.0292298
-0.0317921
-0.0346343
-0.0377787
-0.0412424
-0.0450438
-0.0491968
-0.0541214
-0.0598423
-0.0658595
-0.0721439
-0.0786371
-0.0853191
-0.0922422
-0.0995594
-0.10752
-0.116448
-0.126693
-0.138559
-0.152215
-0.167664
-0.18481
-0.203634
-0.224426
-0.247923
-0.275172
-0.307269
-0.000341037
-0.00105357
-0.00182655
-0.00263362
-0.00347864
-0.004364
-0.00529253
-0.00626735
-0.00729186
-0.00836954
-0.00950377
-0.0106977
-0.0119544
-0.0132762
-0.0146655
-0.0161241
-0.0176548
-0.0192617
-0.0209531
-0.0227425
-0.024651
-0.0267078
-0.0289485
-0.0314122
-0.0341363
-0.0371521
-0.0404825
-0.0441451
-0.0481605
-0.0525457
-0.0577481
-0.0637964
-0.0701645
-0.0768245
-0.0837211
-0.0908409
-0.0982435
-0.106088
-0.114626
-0.124183
-0.135103
-0.147686
-0.162109
-0.178396
-0.196475
-0.216334
-0.238257
-0.26297
-0.291553
-0.325029
-0.000363511
-0.00112755
-0.00195636
-0.00282143
-0.00372693
-0.00467551
-0.00567021
-0.00671431
-0.00781142
-0.00896522
-0.0101793
-0.0114571
-0.0128017
-0.0142156
-0.015701
-0.0172598
-0.0188947
-0.02061
-0.0224139
-0.0243206
-0.0263521
-0.0285386
-0.0309174
-0.0335287
-0.0364107
-0.0395943
-0.0431017
-0.0469495
-0.0511585
-0.0557474
-0.0611853
-0.067503
-0.0741577
-0.0811297
-0.0883772
-0.0959028
-0.10378
-0.112172
-0.121326
-0.131543
-0.143134
-0.156364
-0.171401
-0.1883
-0.207053
-0.227734
-0.250663
-0.276518
-0.306242
-0.340731
-0.000384888
-0.00119814
-0.00208048
-0.00300121
-0.00396488
-0.00497432
-0.00603273
-0.00714356
-0.0083106
-0.00953772
-0.0108287
-0.0121872
-0.0136163
-0.0151186
-0.0166963
-0.0183512
-0.020086
-0.0219049
-0.0238164
-0.0258351
-0.0279839
-0.0302944
-0.0328049
-0.0355568
-0.0385886
-0.041931
-0.0456051
-0.0496267
-0.0540162
-0.0587938
-0.0644486
-0.071012
-0.0779262
-0.0851801
-0.0927455
-0.100641
-0.108955
-0.117856
-0.127582
-0.138409
-0.150611
-0.164416
-0.179976
-0.197371
-0.216658
-0.237991
-0.261733
-0.288498
-0.319082
-0.354228
-0.000405128
-0.00126536
-0.00219879
-0.00317268
-0.00419192
-0.00525953
-0.00637885
-0.00755351
-0.00878748
-0.0100848
-0.0114495
-0.0128852
-0.0143951
-0.015982
-0.0176478
-0.0193946
-0.0212246
-0.0231422
-0.0251562
-0.0272816
-0.0295421
-0.0319702
-0.0346055
-0.0374899
-0.0406622
-0.0441526
-0.0479814
-0.0521637
-0.05672
-0.0616723
-0.0675286
-0.0743222
-0.0814811
-0.0890015
-0.0968658
-0.105105
-0.113816
-0.12317
-0.133395
-0.144744
-0.157461
-0.171751
-0.187757
-0.205577
-0.225316
-0.247172
-0.271521
-0.29892
-0.330043
-0.365538
-0.00042402
-0.00132899
-0.00231111
-0.00333567
-0.00440785
-0.00553085
-0.00670816
-0.0079436
-0.00924129
-0.0106055
-0.0120402
-0.0135494
-0.0151363
-0.0168036
-0.0185533
-0.0203873
-0.0223078
-0.0243192
-0.0264304
-0.0286571
-0.0310235
-0.0335631
-0.0363162
-0.0393252
-0.0426288
-0.0462567
-0.0502282
-0.0545578
-0.0592664
-0.064378
-0.0704185
-0.0774239
-0.08481
-0.092579
-0.100721
-0.109276
-0.118345
-0.128098
-0.138752
-0.15054
-0.163685
-0.178372
-0.194743
-0.212909
-0.233003
-0.255248
-0.280013
-0.307801
-0.339188
-0.37474
-0.000441835
-0.00138914
-0.0024174
-0.00348998
-0.00461238
-0.00578793
-0.00702028
-0.00831338
-0.00967153
-0.0110991
-0.0126004
-0.0141792
-0.015839
-0.0175825
-0.0194115
-0.0213279
-0.0233338
-0.0254336
-0.0276365
-0.0299583
-0.0324243
-0.0350684
-0.0379316
-0.0410568
-0.0444822
-0.048237
-0.0523396
-0.056804
-0.0616518
-0.0669093
-0.0731187
-0.0803189
-0.0879143
-0.0959115
-0.104306
-0.113143
-0.122525
-0.132621
-0.143637
-0.15579
-0.169284
-0.184292
-0.200947
-0.21937
-0.239711
-0.262207
-0.287213
-0.31518
-0.346596
-0.381956
-0.000458352
-0.00144538
-0.00251722
-0.00363515
-0.00480496
-0.00603017
-0.00731453
-0.00866214
-0.0100774
-0.0115649
-0.013129
-0.0147736
-0.0165022
-0.0183174
-0.0202212
-0.022215
-0.0243011
-0.0264838
-0.0287723
-0.0311832
-0.0337419
-0.0364832
-0.0394485
-0.0426808
-0.0462182
-0.0500891
-0.0543112
-0.0588983
-0.0638728
-0.0692631
-0.0756268
-0.0830051
-0.090791
-0.098994
-0.107613
-0.116695
-0.126346
-0.136729
-0.148043
-0.160491
-0.174263
-0.189515
-0.206375
-0.224965
-0.245447
-0.268063
-0.29315
-0.321107
-0.352347
-0.387303
-0.000471917
-0.00149637
-0.00260943
-0.0037701
-0.00498462
-0.00625666
-0.00759003
-0.00898896
-0.010458
-0.0120018
-0.0136249
-0.0153313
-0.0171245
-0.019007
-0.0209807
-0.023047
-0.0252079
-0.0274679
-0.0298363
-0.0323299
-0.0349747
-0.0378059
-0.0408653
-0.0441959
-0.0478355
-0.0518117
-0.0561417
-0.0608389
-0.0659269
-0.0714363
-0.0779385
-0.0854768
-0.0934335
-0.101819
-0.110635
-0.119927
-0.129802
-0.140419
-0.15197
-0.164647
-0.178625
-0.194048
-0.211034
-0.229705
-0.250227
-0.272842
-0.297868
-0.325649
-0.356537
-0.390909
-0.000481587
-0.00154169
-0.00269367
-0.00389453
-0.00515109
-0.00646708
-0.00784639
-0.00929337
-0.0108127
-0.0124092
-0.0140874
-0.0158514
-0.0177048
-0.01965
-0.0216887
-0.0238224
-0.0260529
-0.0283846
-0.030827
-0.0333971
-0.0361213
-0.0390352
-0.0421808
-0.0456011
-0.0493333
-0.0534042
-0.0578302
-0.0626249
-0.0678128
-0.0734269
-0.080051
-0.0877303
-0.0958373
-0.104382
-0.113366
-0.122834
-0.132891
-0.143692
-0.155421
-0.168262
-0.182379
-0.197903
-0.21494
-0.233608
-0.254073
-0.276578
-0.301415
-0.32888
-0.359267
-0.392908
-0.000489317
-0.00158305
-0.00277131
-0.00400965
-0.00530536
-0.0066622
-0.00808415
-0.00957568
-0.0111416
-0.0127869
-0.0145161
-0.0163335
-0.0182425
-0.0202457
-0.0223446
-0.0245405
-0.0268352
-0.0292329
-0.0317434
-0.0343838
-0.0371807
-0.0401701
-0.043394
-0.0468953
-0.0507105
-0.0548654
-0.0593758
-0.0642554
-0.0695295
-0.0752339
-0.081963
-0.0897642
-0.0980004
-0.106681
-0.115804
-0.125414
-0.135612
-0.146547
-0.1584
-0.171345
-0.185537
-0.201093
-0.21811
-0.236696
-0.257017
-0.279308
-0.303843
-0.330871
-0.360638
-0.393433
-0.000498159
-0.00162271
-0.00284414
-0.00411685
-0.00544844
-0.0068427
-0.00830373
-0.00983613
-0.0114448
-0.0131348
-0.0149109
-0.0167772
-0.0187374
-0.0207937
-0.0229478
-0.0252007
-0.027554
-0.0300122
-0.0325847
-0.035289
-0.0381519
-0.0412096
-0.0445041
-0.0480777
-0.0519663
-0.0561947
-0.0607779
-0.0657297
-0.0710766
-0.0768568
-0.0836743
-0.0915777
-0.0999221
-0.108714
-0.117949
-0.127668
-0.137966
-0.14899
-0.160914
-0.173907
-0.188112
-0.203637
-0.220565
-0.238996
-0.25909
-0.281077
-0.305206
-0.331694
-0.360744
-0.392607
-0.000509118
-0.00166119
-0.00291248
-0.00421624
-0.00558024
-0.00700837
-0.00850483
-0.0100743
-0.0117218
-0.0134525
-0.0152712
-0.0171821
-0.0191888
-0.0212935
-0.0234978
-0.0258024
-0.028209
-0.0307218
-0.0333504
-0.0361124
-0.0390347
-0.0421535
-0.0455108
-0.0491483
-0.0531008
-0.0573923
-0.062037
-0.0670486
-0.0724547
-0.0782961
-0.085185
-0.0931711
-0.101602
-0.110482
-0.119802
-0.129598
-0.139958
-0.151027
-0.162972
-0.175959
-0.190121
-0.205553
-0.222329
-0.240539
-0.260333
-0.281932
-0.305565
-0.33142
-0.359672
-0.390536
-0.000520794
-0.0016971
-0.00297504
-0.00430663
-0.00569972
-0.00715831
-0.00868666
-0.0102895
-0.0119721
-0.0137394
-0.0155965
-0.0175477
-0.0195964
-0.0217448
-0.0239942
-0.0263454
-0.0287998
-0.0313616
-0.0340404
-0.0368537
-0.0398289
-0.0430018
-0.0464143
-0.0501073
-0.0541147
-0.0584591
-0.0631539
-0.0682129
-0.0736649
-0.079553
-0.0864962
-0.0945452
-0.103042
-0.111986
-0.121365
-0.131206
-0.141594
-0.152667
-0.164587
-0.177516
-0.19158
-0.206863
-0.223428
-0.241355
-0.260785
-0.281924
-0.30498
-0.330121
-0.357501
-0.387313
-0.000531302
-0.00172878
-0.00303037
-0.00438668
-0.00580569
-0.00729149
-0.00884836
-0.0104811
-0.012195
-0.0139952
-0.0158867
-0.0178738
-0.01996
-0.0221473
-0.024437
-0.0268296
-0.0293264
-0.0319316
-0.0346547
-0.0375134
-0.0405348
-0.043755
-0.0472152
-0.0509557
-0.0550089
-0.0593963
-0.0641303
-0.0692245
-0.074709
-0.0806295
-0.0876099
-0.0957019
-0.104243
-0.11323
-0.122641
-0.1325
-0.142881
-0.153919
-0.165772
-0.178596
-0.192509
-0.20759
-0.223889
-0.241476
-0.260483
-0.281099
-0.303513
-0.327872
-0.354316
-0.383023
-0.000539713
-0.00175561
-0.00307796
-0.00445596
-0.00589777
-0.00740756
-0.00898964
-0.0106488
-0.0123904
-0.0142197
-0.0161416
-0.0181605
-0.0202796
-0.0225012
-0.0248262
-0.0272551
-0.0297891
-0.0324321
-0.0351938
-0.0380918
-0.0411532
-0.0444139
-0.0479146
-0.0516945
-0.0557848
-0.0602055
-0.064968
-0.0700856
-0.0755896
-0.081528
-0.0885288
-0.0966443
-0.105209
-0.114215
-0.123636
-0.133484
-0.143828
-0.154796
-0.166542
-0.179216
-0.192932
-0.207759
-0.22374
-0.240935
-0.259467
-0.279506
-0.301222
-0.324744
-0.350199
-0.377754
-0.000546095
-0.00177791
-0.00311824
-0.00451494
-0.00597645
-0.00750701
-0.00911092
-0.010793
-0.0125587
-0.0144131
-0.0163614
-0.0184078
-0.0205556
-0.0228068
-0.0251623
-0.0276224
-0.0301882
-0.0328637
-0.0356583
-0.0385897
-0.0416849
-0.0449796
-0.0485136
-0.0523253
-0.0564443
-0.060889
-0.0656696
-0.0707991
-0.0763098
-0.0822521
-0.0892564
-0.0973759
-0.105944
-0.114949
-0.124355
-0.134167
-0.144445
-0.15531
-0.166913
-0.179397
-0.192872
-0.207399
-0.223012
-0.239768
-0.257775
-0.277188
-0.298157
-0.320801
-0.345229
-0.371592
-0.000550903
-0.00179623
-0.00315182
-0.00456432
-0.00604246
-0.00759055
-0.00921289
-0.0109144
-0.0127003
-0.0145761
-0.0165467
-0.0186163
-0.0207883
-0.0230645
-0.0254457
-0.0279321
-0.0305247
-0.0332272
-0.0360492
-0.0390082
-0.0421312
-0.0454533
-0.0490139
-0.05285
-0.0569896
-0.0614493
-0.066238
-0.0713684
-0.0768734
-0.0828058
-0.0897969
-0.0979013
-0.106453
-0.115435
-0.124806
-0.134558
-0.144743
-0.155476
-0.166902
-0.17916
-0.192354
-0.206537
-0.221739
-0.23801
-0.255447
-0.274188
-0.294368
-0.316096
-0.339471
-0.364617
-0.000554458
-0.00181092
-0.00317906
-0.00460451
-0.00609625
-0.00765865
-0.00929606
-0.0110134
-0.012816
-0.0147092
-0.016698
-0.0187868
-0.0209786
-0.0232752
-0.0256774
-0.0281851
-0.0307993
-0.0335237
-0.0363676
-0.0393486
-0.0424934
-0.0458369
-0.0494174
-0.0532707
-0.0574232
-0.0618894
-0.0666768
-0.0717974
-0.0772847
-0.0831938
-0.0901554
-0.0982256
-0.106742
-0.115682
-0.124996
-0.134666
-0.144735
-0.155309
-0.166527
-0.178526
-0.191403
-0.205204
-0.219955
-0.2357
-0.252526
-0.270553
-0.289903
-0.310678
-0.332976
-0.356889
-0.000556738
-0.0018219
-0.00319993
-0.00463552
-0.00613787
-0.00771146
-0.00936063
-0.0110903
-0.012906
-0.0148129
-0.0168161
-0.0189198
-0.0211271
-0.0234397
-0.0258582
-0.0283825
-0.0310133
-0.0337543
-0.0366149
-0.0396124
-0.0427734
-0.0461321
-0.0497262
-0.05359
-0.0577479
-0.0622125
-0.0669895
-0.0720903
-0.0775487
-0.0834214
-0.0903377
-0.0983552
-0.106816
-0.115695
-0.124934
-0.134503
-0.144433
-0.154823
-0.165807
-0.177517
-0.190045
-0.203431
-0.217695
-0.232877
-0.249055
-0.266333
-0.284813
-0.304598
-0.325787
-0.348455
-0.000557481
-0.0018289
-0.00321417
-0.00465713
-0.00616721
-0.00774895
-0.00940673
-0.0111455
-0.0129707
-0.0148877
-0.0169015
-0.0190162
-0.0212348
-0.0235591
-0.0259894
-0.0285255
-0.0311681
-0.0339208
-0.0367928
-0.0398014
-0.0429729
-0.0463411
-0.0499427
-0.0538104
-0.0579668
-0.0624222
-0.0671804
-0.0722518
-0.0776706
-0.0834946
-0.0903503
-0.0982971
-0.106684
-0.115484
-0.124628
-0.134078
-0.143852
-0.154037
-0.164763
-0.176158
-0.188308
-0.201249
-0.214993
-0.229579
-0.245077
-0.261574
-0.279155
-0.297914
-0.317955
-0.339356
-0.000556447
-0.0018317
-0.00322164
-0.00466927
-0.00618427
-0.00777125
-0.00943461
-0.0111793
-0.0130108
-0.0149343
-0.016955
-0.0190768
-0.0213028
-0.0236344
-0.0260721
-0.0286155
-0.0312651
-0.0340246
-0.036903
-0.0399176
-0.0430942
-0.0464663
-0.0500695
-0.0539349
-0.0580832
-0.0625222
-0.0672539
-0.0722871
-0.077656
-0.0834197
-0.0902002
-0.0980589
-0.106354
-0.115056
-0.12409
-0.133404
-0.143005
-0.152967
-0.163414
-0.17447
-0.186219
-0.198688
-0.211886
-0.225845
-0.240632
-0.256323
-0.272981
-0.290687
-0.309542
-0.32964
-0.000553655
-0.00183043
-0.00322256
-0.00467224
-0.00618944
-0.00777886
-0.00944488
-0.0111925
-0.0130269
-0.0149537
-0.0169776
-0.0191028
-0.0213322
-0.0236671
-0.0261078
-0.028654
-0.0313061
-0.0340677
-0.0369477
-0.0399631
-0.0431398
-0.0465103
-0.0501094
-0.0539667
-0.0581006
-0.0625167
-0.0672145
-0.0722015
-0.0775112
-0.0832034
-0.0898949
-0.0976488
-0.105835
-0.114421
-0.123328
-0.132493
-0.141906
-0.15163
-0.16178
-0.172479
-0.183806
-0.195783
-0.208411
-0.221714
-0.235761
-0.25062
-0.266338
-0.282973
-0.300614
-0.31937
-0.000549448
-0.00182558
-0.00321754
-0.00466678
-0.00618358
-0.00777271
-0.00943855
-0.011186
-0.0130204
-0.014947
-0.0169707
-0.0190956
-0.0213245
-0.0236586
-0.0260983
-0.028643
-0.0312931
-0.0340521
-0.036929
-0.0399404
-0.043112
-0.0464758
-0.0500654
-0.0539089
-0.0580226
-0.0624096
-0.0670671
-0.0720007
-0.0772425
-0.0828531
-0.0894425
-0.0970758
-0.105136
-0.11359
-0.122355
-0.131356
-0.14057
-0.150043
-0.159883
-0.170208
-0.181097
-0.192566
-0.204605
-0.217231
-0.230509
-0.244507
-0.259265
-0.274817
-0.291231
-0.30861
-0.000544382
-0.00181789
-0.00320745
-0.00465386
-0.00616778
-0.007754
-0.00941687
-0.0111612
-0.0129924
-0.0149156
-0.0169357
-0.0190567
-0.0212813
-0.0236107
-0.0260452
-0.0285842
-0.031228
-0.0339801
-0.0368492
-0.039852
-0.0430137
-0.0463657
-0.0499407
-0.0537651
-0.057853
-0.0622053
-0.0668166
-0.0716902
-0.0768568
-0.0823765
-0.0888516
-0.0963492
-0.104267
-0.112573
-0.121181
-0.130007
-0.139011
-0.148224
-0.157742
-0.16768
-0.178117
-0.189066
-0.200506
-0.21244
-0.224924
-0.238032
-0.251804
-0.266258
-0.281436
-0.297415
-0.000539022
-0.00180805
-0.0031931
-0.00463446
-0.00614311
-0.00772389
-0.00938109
-0.0111195
-0.0129445
-0.0148611
-0.0168742
-0.0189877
-0.0212043
-0.0235252
-0.0259505
-0.0284797
-0.031113
-0.0338539
-0.0367109
-0.0397006
-0.0428477
-0.0461832
-0.0497386
-0.0535387
-0.0575956
-0.0619079
-0.0664677
-0.0712757
-0.0763605
-0.0817814
-0.0881316
-0.0954793
-0.103238
-0.111381
-0.119818
-0.128458
-0.137244
-0.14619
-0.155378
-0.164918
-0.174893
-0.185314
-0.19615
-0.207385
-0.219061
-0.231251
-0.244006
-0.257337
-0.271263
-0.285828
-0.000533749
-0.00179653
-0.00317503
-0.00460924
-0.00611036
-0.00768326
-0.00933221
-0.011062
-0.0128777
-0.0147847
-0.0167875
-0.0188901
-0.0210951
-0.0234038
-0.0258162
-0.0283317
-0.0309505
-0.033676
-0.0365168
-0.0394889
-0.0426171
-0.0459314
-0.0494624
-0.0532335
-0.0572546
-0.061522
-0.0660254
-0.0707629
-0.0757604
-0.0810758
-0.0872918
-0.0944768
-0.102063
-0.110026
-0.118279
-0.126722
-0.135283
-0.143958
-0.152811
-0.161948
-0.171451
-0.181338
-0.191569
-0.202107
-0.212972
-0.224227
-0.235935
-0.248111
-0.260759
-0.273893
-0.000528691
-0.00178347
-0.00315347
-0.00457851
-0.00606994
-0.00763265
-0.00927089
-0.0109894
-0.0127932
-0.0146875
-0.016677
-0.0187655
-0.0209556
-0.0232486
-0.0256443
-0.0281424
-0.0307429
-0.0334492
-0.0362695
-0.03922
-0.0423248
-0.0456136
-0.0491158
-0.0528531
-0.0568339
-0.061052
-0.0654946
-0.0701571
-0.0750628
-0.0802673
-0.0863413
-0.0933528
-0.100752
-0.108522
-0.116576
-0.124811
-0.133143
-0.141546
-0.150064
-0.158792
-0.167817
-0.177165
-0.186791
-0.196642
-0.206705
-0.217026
-0.227668
-0.238656
-0.24999
-0.261665
-0.000523761
-0.0017688
-0.00312841
-0.00454235
-0.00602203
-0.00757237
-0.00919759
-0.0109023
-0.0126917
-0.0145706
-0.0165439
-0.0186153
-0.0207873
-0.0230612
-0.025437
-0.027914
-0.0304926
-0.0331759
-0.035972
-0.0388969
-0.0419743
-0.0452332
-0.0487021
-0.0524015
-0.0563377
-0.0605025
-0.0648804
-0.0694642
-0.0742742
-0.0793633
-0.0852893
-0.0921181
-0.0993195
-0.106881
-0.114723
-0.122741
-0.130838
-0.138968
-0.147154
-0.155476
-0.16402
-0.172823
-0.181845
-0.191018
-0.200298
-0.209703
-0.21928
-0.229061
-0.239048
-0.24923
-0.000518748
-0.00175236
-0.00309975
-0.00450072
-0.0059667
-0.00750262
-0.00911266
-0.0108014
-0.0125738
-0.0144349
-0.0163893
-0.0184407
-0.0205918
-0.0228436
-0.0251962
-0.0276489
-0.0302022
-0.0328589
-0.0356272
-0.0385227
-0.0415687
-0.0447936
-0.0482251
-0.0518823
-0.05577
-0.0598778
-0.0641877
-0.0686897
-0.0734009
-0.0783715
-0.0841447
-0.0907836
-0.0977767
-0.105119
-0.112735
-0.120524
-0.128381
-0.136241
-0.144102
-0.152024
-0.160089
-0.168343
-0.17676
-0.185263
-0.193782
-0.202298
-0.210833
-0.219413
-0.228037
-0.236693
-0.000513417
-0.00173398
-0.00306743
-0.00445366
-0.00590408
-0.00742366
-0.00901651
-0.0106871
-0.0124405
-0.0142814
-0.0162144
-0.0182434
-0.0203707
-0.0225976
-0.024924
-0.0273494
-0.029874
-0.0325009
-0.035238
-0.0381005
-0.0411114
-0.0442985
-0.0476885
-0.0512994
-0.0551347
-0.0591822
-0.0634212
-0.0678389
-0.0724493
-0.0772992
-0.0829166
-0.0893603
-0.0961371
-0.103248
-0.110627
-0.118175
-0.125786
-0.133379
-0.140924
-0.148458
-0.156053
-0.16376
-0.171569
-0.179406
-0.187182
-0.194843
-0.202374
-0.209781
-0.217055
-0.224171
-0.000507602
-0.00171361
-0.0030315
-0.00440134
-0.00583449
-0.00733594
-0.00890972
-0.0105603
-0.0122925
-0.0141111
-0.0160205
-0.0180246
-0.0201257
-0.022325
-0.0246225
-0.0270177
-0.0295108
-0.0321047
-0.0348073
-0.0376336
-0.040606
-0.0437515
-0.0470961
-0.0506568
-0.054436
-0.0584197
-0.0625853
-0.0669167
-0.0714251
-0.0761533
-0.0816136
-0.087859
-0.0944138
-0.101284
-0.108414
-0.115711
-0.123069
-0.130395
-0.137636
-0.144799
-0.15194
-0.15911
-0.166311
-0.173485
-0.180531
-0.187366
-0.193938
-0.20022
-0.206179
-0.211768
-0.000501222
-0.00169133
-0.0029922
-0.00434412
-0.00575843
-0.00724007
-0.00879306
-0.0104218
-0.0121309
-0.0139252
-0.015809
-0.017786
-0.0198586
-0.0220279
-0.0242939
-0.0266562
-0.029115
-0.0316731
-0.0343382
-0.037125
-0.0400556
-0.0431562
-0.0464518
-0.0499586
-0.053678
-0.0575948
-0.0616842
-0.0659278
-0.0703333
-0.0749399
-0.0802434
-0.0862898
-0.0926196
-0.0992436
-0.106113
-0.113148
-0.120246
-0.127305
-0.134252
-0.141065
-0.147775
-0.154426
-0.161031
-0.167544
-0.173869
-0.179902
-0.185557
-0.190768
-0.19547
-0.199575
-0.000494267
-0.00166729
-0.00294985
-0.0042825
-0.00567651
-0.00713684
-0.00866742
-0.0102726
-0.0119569
-0.013725
-0.0155813
-0.0175291
-0.019571
-0.0217081
-0.0239403
-0.0262672
-0.0286891
-0.0312087
-0.0338335
-0.036578
-0.0394637
-0.0425161
-0.0457595
-0.0492089
-0.0528651
-0.0567117
-0.0607224
-0.0648765
-0.0691787
-0.0736645
-0.0788126
-0.0846616
-0.0907662
-0.0971399
-0.103743
-0.110505
-0.117332
-0.124122
-0.130784
-0.137269
-0.143579
-0.149741
-0.15577
-0.161634
-0.167247
-0.172497
-0.177271
-0.181466
-0.184978
-0.187667
-0.000486784
-0.0016417
-0.00290482
-0.004217
-0.00558943
-0.00702706
-0.00853379
-0.0101138
-0.0117717
-0.013512
-0.0153388
-0.0172557
-0.0192649
-0.0213676
-0.0235638
-0.0258531
-0.0282357
-0.0307143
-0.0332962
-0.0359956
-0.0388334
-0.0418347
-0.0450227
-0.0484117
-0.0520015
-0.055775
-0.0597045
-0.0637676
-0.0679662
-0.0723322
-0.0773273
-0.0829822
-0.088864
-0.0949869
-0.101318
-0.107799
-0.114347
-0.120862
-0.127245
-0.133422
-0.139364
-0.145075
-0.150564
-0.155805
-0.160725
-0.165211
-0.169136
-0.172366
-0.174756
-0.176116
-0.000478869
-0.0016148
-0.00285751
-0.00414815
-0.00549786
-0.00691158
-0.00839316
-0.00994671
-0.0115767
-0.0132875
-0.0150832
-0.0169673
-0.018942
-0.0210084
-0.0231666
-0.0254161
-0.0277573
-0.0301927
-0.0327293
-0.0353809
-0.0381682
-0.0411154
-0.044245
-0.0475706
-0.0510912
-0.0547888
-0.058635
-0.0626056
-0.0667005
-0.0709479
-0.0757931
-0.0812586
-0.0869223
-0.0927974
-0.0988558
-0.10505
-0.11131
-0.117543
-0.123649
-0.129534
-0.135141
-0.140446
-0.145441
-0.1501
-0.154359
-0.158112
-0.161223
-0.163537
-0.164876
-0.165004
-0.000470631
-0.00158686
-0.00280828
-0.00407647
-0.00540247
-0.0067912
-0.00824643
-0.00977222
-0.0113729
-0.0130528
-0.0148159
-0.0166656
-0.0186041
-0.0206324
-0.0227506
-0.0249585
-0.0272563
-0.0296463
-0.0321356
-0.0347372
-0.0374712
-0.0403616
-0.0434301
-0.0466895
-0.050138
-0.0537573
-0.0575179
-0.0613949
-0.065386
-0.0695165
-0.0742153
-0.0794972
-0.0849495
-0.0905825
-0.0963709
-0.102276
-0.108241
-0.114186
-0.120012
-0.125617
-0.130917
-0.13586
-0.140416
-0.144549
-0.148198
-0.151263
-0.153609
-0.155065
-0.155427
-0.154428
-0.00046216
-0.00155806
-0.00275746
-0.00400241
-0.00530384
-0.00666662
-0.00809447
-0.00959135
-0.0111615
-0.0128092
-0.0145383
-0.0163521
-0.0182527
-0.0202413
-0.0223179
-0.0244823
-0.0267348
-0.0290777
-0.0315176
-0.0340672
-0.0367458
-0.0395769
-0.0425815
-0.0457719
-0.0491457
-0.0526841
-0.0563573
-0.0601394
-0.0640267
-0.0680419
-0.0725983
-0.0777031
-0.0829524
-0.0883518
-0.0938765
-0.0994949
-0.105162
-0.110813
-0.116356
-0.121685
-0.1267
-0.131324
-0.135498
-0.139171
-0.142278
-0.14472
-0.146364
-0.147035
-0.146509
-0.144497
-0.000453516
-0.00152857
-0.00270533
-0.00392638
-0.00520249
-0.00653847
-0.00793801
-0.00940498
-0.0109435
-0.0125578
-0.0142516
-0.0160282
-0.0178896
-0.0198369
-0.0218703
-0.0239896
-0.0261951
-0.0284891
-0.0308779
-0.0333736
-0.035995
-0.0387646
-0.0417029
-0.0448217
-0.0481183
-0.0515733
-0.0551569
-0.0588428
-0.0626263
-0.0665278
-0.0709456
-0.0758804
-0.080936
-0.0861127
-0.0913837
-0.0967218
-0.102093
-0.107446
-0.112701
-0.117756
-0.122502
-0.126841
-0.130688
-0.133973
-0.136615
-0.138518
-0.139546
-0.139524
-0.138218
-0.135323
-0.000444752
-0.00149852
-0.00265213
-0.00384871
-0.00509886
-0.00640732
-0.00777773
-0.0092139
-0.0107199
-0.0122997
-0.0139571
-0.0156952
-0.017516
-0.0194208
-0.0214096
-0.0234823
-0.0256392
-0.0278827
-0.0302188
-0.0326591
-0.0352215
-0.0379277
-0.0407977
-0.0438428
-0.0470597
-0.050429
-0.0539208
-0.0575091
-0.0611883
-0.0649775
-0.0692603
-0.0740319
-0.0789039
-0.0838701
-0.0889004
-0.0939691
-0.0990502
-0.104106
-0.109071
-0.113852
-0.118338
-0.122418
-0.125987
-0.128951
-0.131214
-0.132672
-0.13319
-0.132588
-0.130632
-0.127005
-0.000435913
-0.00146803
-0.00259805
-0.00376968
-0.00499331
-0.00627363
-0.00761421
-0.00901883
-0.0104914
-0.0120359
-0.0136558
-0.0153543
-0.0171334
-0.0189944
-0.0209374
-0.0229623
-0.0250693
-0.0272607
-0.0295425
-0.0319258
-0.0344277
-0.037069
-0.0398689
-0.0428383
-0.0459736
-0.0492551
-0.0526533
-0.0561423
-0.0597167
-0.0633944
-0.0675453
-0.0721602
-0.0768584
-0.0816273
-0.0864319
-0.0912457
-0.0960482
-0.100812
-0.105488
-0.109996
-0.114228
-0.118069
-0.121398
-0.124102
-0.126069
-0.127183
-0.127305
-0.126258
-0.123802
-0.119617
-0.00042703
-0.00143719
-0.00254324
-0.00368951
-0.00488615
-0.00613778
-0.00744795
-0.00882035
-0.0102588
-0.0117671
-0.0133487
-0.0150066
-0.0167429
-0.0185591
-0.0204552
-0.0224311
-0.024487
-0.0266252
-0.0288513
-0.0311761
-0.033616
-0.0361909
-0.0389193
-0.0418114
-0.0448633
-0.0480553
-0.0513582
-0.0547468
-0.0582156
-0.0617822
-0.0658037
-0.0702674
-0.0748012
-0.0793858
-0.083981
-0.0885573
-0.0930969
-0.0975817
-0.101975
-0.106211
-0.110194
-0.113809
-0.116928
-0.119424
-0.121171
-0.12204
-0.121887
-0.120535
-0.117748
-0.1132
-0.000418109
-0.00140606
-0.0024878
-0.00360835
-0.00477759
-0.00600009
-0.00727933
-0.00861896
-0.0100227
-0.0114941
-0.0130365
-0.014653
-0.0163457
-0.018116
-0.0199643
-0.0218904
-0.0238942
-0.025978
-0.0281472
-0.0304123
-0.0327888
-0.035296
-0.0379514
-0.0407648
-0.0437318
-0.046833
-0.0500393
-0.0533263
-0.0566889
-0.0601447
-0.0640385
-0.068356
-0.0727334
-0.0771463
-0.0815486
-0.0859066
-0.0902026
-0.0944246
-0.0985474
-0.102519
-0.106259
-0.109659
-0.112591
-0.114921
-0.116513
-0.117227
-0.116917
-0.115405
-0.112462
-0.10776
-0.000409154
-0.00137467
-0.00243184
-0.00352635
-0.00466786
-0.00586083
-0.00710873
-0.00841509
-0.00978352
-0.0112175
-0.0127202
-0.0142945
-0.0159427
-0.0176663
-0.0194659
-0.0213412
-0.0232922
-0.0253208
-0.0274322
-0.0296364
-0.0319485
-0.0343866
-0.0369678
-0.039701
-0.0425818
-0.0455908
-0.0486995
-0.0518842
-0.0551401
-0.0584853
-0.062253
-0.0664279
-0.0706562
-0.0749086
-0.0791338
-0.0832932
-0.0873674
-0.0913474
-0.0952171
-0.0989386
-0.102445
-0.10564
-0.108404
-0.110602
-0.112092
-0.112732
-0.11237
-0.110836
-0.107911
-0.103271
-0.000400141
-0.001343
-0.00237535
-0.00344359
-0.0045571
-0.00572024
-0.00693641
-0.0082091
-0.0095418
-0.0109378
-0.0124003
-0.0139318
-0.0155349
-0.017211
-0.018961
-0.0207848
-0.0226823
-0.024655
-0.0267078
-0.0288504
-0.031097
-0.0334652
-0.0359708
-0.0386226
-0.041416
-0.0443316
-0.0473418
-0.0504234
-0.0535723
-0.0568072
-0.0604499
-0.0644853
-0.0685701
-0.0726719
-0.0767346
-0.0807146
-0.0845895
-0.0883514
-0.0919902
-0.0954797
-0.0987676
-0.101773
-0.104386
-0.106479
-0.107912
-0.108544
-0.108226
-0.106796
-0.104051
-0.0996859
-0.000390743
-0.00131069
-0.00231817
-0.00336004
-0.00444539
-0.00557849
-0.00676266
-0.00800131
-0.00929787
-0.0106556
-0.0120773
-0.0135657
-0.0151231
-0.0167512
-0.0184509
-0.0202223
-0.0220655
-0.0239817
-0.0259754
-0.0280557
-0.0302363
-0.0325336
-0.0349629
-0.0375323
-0.0402371
-0.0430583
-0.0459691
-0.048947
-0.0519886
-0.0551131
-0.0586316
-0.0625297
-0.0664757
-0.0704349
-0.0743478
-0.0781662
-0.0818641
-0.0854328
-0.0888664
-0.0921475
-0.0952373
-0.0980701
-0.100552
-0.102565
-0.103978
-0.104657
-0.104464
-0.103248
-0.100831
-0.0969376
-0.000381016
-0.00127889
-0.00226172
-0.00327685
-0.00433358
-0.0054362
-0.00658793
-0.00779212
-0.00905212
-0.0103711
-0.0117518
-0.0131967
-0.0147081
-0.0162876
-0.0179365
-0.0196549
-0.0214431
-0.0233021
-0.025236
-0.0272536
-0.0293675
-0.0315936
-0.033946
-0.0364323
-0.0390476
-0.0417736
-0.0445842
-0.047458
-0.0503921
-0.0534062
-0.056801
-0.0605632
-0.0643735
-0.0681963
-0.0719699
-0.0756424
-0.0791839
-0.0825843
-0.0858396
-0.0889393
-0.091856
-0.0945391
-0.0969104
-0.098868
-0.100295
-0.101069
-0.101066
-0.100159
-0.0981977
-0.0949513
-0.00037242
-0.001246
-0.00220394
-0.00319167
-0.00421992
-0.00529223
-0.0064116
-0.00758128
-0.00880456
-0.0100845
-0.0114239
-0.0128252
-0.0142904
-0.0158212
-0.0174188
-0.0190837
-0.0208162
-0.0226174
-0.0244911
-0.0264453
-0.0284922
-0.0306464
-0.0329215
-0.0353242
-0.0378496
-0.0404799
-0.0431899
-0.0459593
-0.0487857
-0.0516895
-0.0549608
-0.0585879
-0.0622646
-0.0659553
-0.0695977
-0.0731371
-0.0765406
-0.0797958
-0.0828995
-0.0858463
-0.088618
-0.0911774
-0.0934636
-0.0953918
-0.0968623
-0.0977712
-0.0980158
-0.0974941
-0.0960946
-0.0936445
-0.00036308
-0.00121289
-0.00214365
-0.00310504
-0.00410509
-0.00514714
-0.00623415
-0.00736925
-0.00855564
-0.00979642
-0.0110943
-0.0124518
-0.0138707
-0.0153526
-0.0168987
-0.0185097
-0.0201861
-0.0219289
-0.0237417
-0.0256321
-0.0276114
-0.0296933
-0.0318906
-0.0342094
-0.0366447
-0.039179
-0.0417884
-0.0444534
-0.0471722
-0.0499659
-0.0531139
-0.0566063
-0.0601506
-0.0637119
-0.0672287
-0.0706449
-0.0739253
-0.0770556
-0.0800325
-0.0828541
-0.08551
-0.0879744
-0.090203
-0.0921291
-0.0936727
-0.0947518
-0.0952895
-0.095216
-0.0944635
-0.0929283
-0.000354295
-0.00118149
-0.00208671
-0.00302101
-0.00399196
-0.00500308
-0.0060572
-0.00715728
-0.00830639
-0.00950761
-0.0107637
-0.012077
-0.0134494
-0.0148822
-0.0163767
-0.0179336
-0.0195535
-0.0212376
-0.0229893
-0.0248153
-0.0267265
-0.0287357
-0.0308547
-0.0330892
-0.035434
-0.0378724
-0.0403813
-0.0429423
-0.0455538
-0.0482378
-0.0512628
-0.0546208
-0.0580328
-0.0614661
-0.0648609
-0.0681609
-0.0713297
-0.0743516
-0.0772233
-0.0799451
-0.082513
-0.084912
-0.0871114
-0.089063
-0.0907079
-0.0919885
-0.0928568
-0.0932801
-0.0932388
-0.0927063
-0.00034462
-0.00114849
-0.00202823
-0.0029357
-0.00387801
-0.00485856
-0.00588
-0.00694511
-0.00805693
-0.00921848
-0.0104326
-0.0117015
-0.0130272
-0.0144109
-0.0158536
-0.0173562
-0.0189195
-0.0205446
-0.0222346
-0.0239961
-0.0258388
-0.0277748
-0.0298151
-0.0319649
-0.0342191
-0.0365614
-0.03897
-0.0414274
-0.0439324
-0.0465072
-0.0494096
-0.0526331
-0.0559129
-0.0592183
-0.0624926
-0.0656807
-0.068746
-0.0716722
-0.074456
-0.0770999
-0.0796049
-0.0819653
-0.0841628
-0.0861667
-0.0879394
-0.0894483
-0.0906768
-0.0916319
-0.092346
-0.0928733
-0.000334875
-0.0011151
-0.00196901
-0.00284945
-0.00376314
-0.00471323
-0.00570214
-0.0067325
-0.0078072
-0.0089292
-0.0101013
-0.0113259
-0.0126047
-0.013939
-0.0153299
-0.0167781
-0.0182845
-0.0198504
-0.0214787
-0.0231753
-0.0249494
-0.026812
-0.0287732
-0.0308379
-0.0330011
-0.0352474
-0.0375559
-0.0399101
-0.0423093
-0.0447757
-0.0475562
-0.0506451
-0.0537919
-0.0569687
-0.0601225
-0.0632005
-0.0661671
-0.0690061
-0.0717149
-0.074298
-0.0767609
-0.0791056
-0.0813255
-0.0834057
-0.0853289
-0.0870877
-0.0886976
-0.0902063
-0.0916996
-0.0933095
-0.000325233
-0.00108191
-0.00191
-0.00276337
-0.00364835
-0.0045679
-0.00552427
-0.00651996
-0.00755767
-0.00864026
-0.00977046
-0.0109506
-0.0121825
-0.0134674
-0.0148063
-0.0161999
-0.0176493
-0.0191557
-0.0207221
-0.0223538
-0.024059
-0.025848
-0.02773
-0.0297094
-0.0317815
-0.0339317
-0.0361403
-0.038392
-0.0406861
-0.0430447
-0.0457036
-0.0486583
-0.0516711
-0.0547178
-0.0577498
-0.0607173
-0.0635868
-0.0663433
-0.0689854
-0.0715196
-0.0739557
-0.0763025
-0.0785639
-0.0807394
-0.0828307
-0.0848546
-0.0868577
-0.0889284
-0.0912052
-0.0938951
-0.000315656
-0.00104889
-0.00185126
-0.00267764
-0.00353394
-0.00442297
-0.00534688
-0.00630799
-0.00730888
-0.00835222
-0.00944064
-0.0105765
-0.0117615
-0.0129969
-0.0142836
-0.0156226
-0.0170148
-0.0184615
-0.0199657
-0.0215321
-0.0231684
-0.0248837
-0.0266864
-0.0285803
-0.0305613
-0.0326156
-0.0347247
-0.0368744
-0.0390642
-0.0413159
-0.0438539
-0.0466739
-0.0495517
-0.0524662
-0.0553737
-0.0582287
-0.0610003
-0.0636753
-0.0662542
-0.0687461
-0.0711648
-0.0735254
-0.0758411
-0.0781245
-0.0803945
-0.0826905
-0.0850884
-0.0877155
-0.0907606
-0.0944994
-0.000306177
-0.00101611
-0.00179291
-0.0025924
-0.00342013
-0.00427874
-0.0051703
-0.006097
-0.00706126
-0.00806556
-0.00911238
-0.010204