/*--------------------------------*- C++ -*----------------------------------*\
  =========                 |
  \\      /  F ield         | OpenFOAM: The Open Source CFD Toolbox
   \\    /   O peration     | Website:  https://openfoam.org
    \\  /    A nd           | Version:  9
     \\/     M anipulation  |
\*---------------------------------------------------------------------------*/
FoamFile
{
    format      ascii;
    class       surfaceScalarField;
    location    "0.1";
    object      phi;
}
// * * * * * * * * * * * * * * * * * * * * * * * * * * * * * * * * * * * * * //

dimensions      [0 3 -1 0 0 0 0];

internalField   nonuniform List<scalar> 
9850
(
-9.97038e-07
1.79532e-06
-9.97587e-07
1.90452e-06
-9.98371e-07
2.01525e-06
-9.99361e-07
2.12892e-06
-1.00054e-06
2.24689e-06
-1.00189e-06
2.37018e-06
-1.00341e-06
2.49948e-06
-1.0051e-06
2.63514e-06
-1.00695e-06
2.7772e-06
-1.00895e-06
2.92539e-06
-1.01105e-06
3.07913e-06
-1.01322e-06
3.23752e-06
-1.01538e-06
3.39929e-06
-1.01746e-06
3.56292e-06
-1.01941e-06
3.72691e-06
-1.0212e-06
3.89022e-06
-1.02293e-06
4.05307e-06
-1.02477e-06
4.21781e-06
-1.02705e-06
4.38972e-06
-1.03015e-06
4.57702e-06
-1.03446e-06
4.78962e-06
-1.04017e-06
5.0361e-06
-1.04719e-06
5.31978e-06
-1.05507e-06
5.63537e-06
-1.06313e-06
5.96882e-06
-1.07072e-06
6.30188e-06
-1.07751e-06
6.62026e-06
-1.08373e-06
6.92172e-06
-1.09013e-06
7.21938e-06
-1.09777e-06
7.53714e-06
-1.10933e-06
9.2151e-06
-1.1234e-06
9.25354e-06
-1.13926e-06
9.31561e-06
-1.15612e-06
9.36947e-06
-1.17356e-06
9.39901e-06
-1.19159e-06
9.40576e-06
-1.21044e-06
9.39901e-06
-1.23034e-06
9.3871e-06
-1.25148e-06
9.37465e-06
-1.27399e-06
9.36338e-06
-1.29793e-06
9.35333e-06
-1.32334e-06
9.34374e-06
-1.35025e-06
9.3337e-06
-1.37875e-06
9.323e-06
-1.40904e-06
9.31305e-06
-1.44148e-06
9.30742e-06
-1.4765e-06
9.31156e-06
-1.51451e-06
9.33153e-06
-1.5558e-06
9.37236e-06
9.437e-06
-9.93551e-07
1.7956e-06
-9.94082e-07
1.90505e-06
-9.94846e-07
2.01601e-06
-9.95815e-07
2.12989e-06
-9.96969e-07
2.24804e-06
-9.98297e-07
2.37151e-06
-9.99794e-07
2.50098e-06
-1.00146e-06
2.63681e-06
-1.00328e-06
2.77902e-06
-1.00525e-06
2.92735e-06
-1.00733e-06
3.08121e-06
-1.00948e-06
3.23966e-06
-1.01161e-06
3.40142e-06
-1.01368e-06
3.56499e-06
-1.01562e-06
3.72885e-06
-1.01743e-06
3.89203e-06
-1.01919e-06
4.05483e-06
-1.02109e-06
4.21971e-06
-1.02344e-06
4.39207e-06
-1.02663e-06
4.58021e-06
-1.03102e-06
4.794e-06
-1.03678e-06
5.04187e-06
-1.04381e-06
5.32681e-06
-1.05164e-06
5.64319e-06
-1.05959e-06
5.97677e-06
-1.06701e-06
6.30931e-06
-1.07361e-06
6.62686e-06
-1.07963e-06
6.92774e-06
-1.08584e-06
7.22559e-06
-1.09327e-06
7.54457e-06
-1.10456e-06
9.22638e-06
-1.11832e-06
9.2673e-06
-1.13382e-06
9.33111e-06
-1.15025e-06
9.38591e-06
-1.16722e-06
9.41597e-06
-1.18472e-06
9.42327e-06
-1.20297e-06
9.41726e-06
-1.22218e-06
9.40631e-06
-1.24253e-06
9.39499e-06
-1.26412e-06
9.38496e-06
-1.28699e-06
9.37621e-06
-1.31116e-06
9.36791e-06
-1.33663e-06
9.35916e-06
-1.36343e-06
9.3498e-06
-1.39173e-06
9.34135e-06
-1.42182e-06
9.3375e-06
-1.45403e-06
9.34377e-06
-1.48867e-06
9.36617e-06
-1.52586e-06
9.40956e-06
9.47669e-06
-9.89836e-07
1.79586e-06
-9.90349e-07
1.90556e-06
-9.91091e-07
2.01676e-06
-9.92039e-07
2.13084e-06
-9.9317e-07
2.24917e-06
-9.94474e-07
2.37281e-06
-9.95945e-07
2.50245e-06
-9.97583e-07
2.63844e-06
-9.99381e-07
2.78082e-06
-1.00132e-06
2.9293e-06
-1.00338e-06
3.08327e-06
-1.00549e-06
3.24178e-06
-1.00761e-06
3.40354e-06
-1.00966e-06
3.56704e-06
-1.0116e-06
3.73079e-06
-1.01343e-06
3.89386e-06
-1.01522e-06
4.05662e-06
-1.01718e-06
4.22167e-06
-1.01961e-06
4.3945e-06
-1.02288e-06
4.58349e-06
-1.02735e-06
4.79847e-06
-1.03317e-06
5.04769e-06
-1.04019e-06
5.33384e-06
-1.04796e-06
5.65096e-06
-1.05579e-06
5.9846e-06
-1.06305e-06
6.31657e-06
-1.06945e-06
6.63326e-06
-1.07526e-06
6.93355e-06
-1.08126e-06
7.23159e-06
-1.08848e-06
7.55179e-06
-1.09948e-06
9.23738e-06
-1.1129e-06
9.28072e-06
-1.12801e-06
9.34621e-06
-1.144e-06
9.4019e-06
-1.16047e-06
9.43245e-06
-1.17742e-06
9.44022e-06
-1.19505e-06
9.43489e-06
-1.21356e-06
9.42482e-06
-1.23309e-06
9.41453e-06
-1.25374e-06
9.40561e-06
-1.27551e-06
9.39798e-06
-1.29839e-06
9.3908e-06
-1.32236e-06
9.38313e-06
-1.34743e-06
9.37487e-06
-1.37371e-06
9.36764e-06
-1.40144e-06
9.36523e-06
-1.43086e-06
9.37319e-06
-1.46215e-06
9.39746e-06
-1.49532e-06
9.44273e-06
9.51154e-06
-9.85905e-07
1.79611e-06
-9.86398e-07
1.90605e-06
-9.87117e-07
2.01748e-06
-9.8804e-07
2.13176e-06
-9.89147e-07
2.25028e-06
-9.90424e-07
2.37409e-06
-9.91869e-07
2.5039e-06
-9.93479e-07
2.64005e-06
-9.95248e-07
2.78259e-06
-9.9716e-07
2.93121e-06
-9.99184e-07
3.08529e-06
-1.00127e-06
3.24387e-06
-1.00337e-06
3.40564e-06
-1.00541e-06
3.56908e-06
-1.00735e-06
3.73273e-06
-1.0092e-06
3.89571e-06
-1.01104e-06
4.05846e-06
-1.01306e-06
4.22369e-06
-1.01557e-06
4.39701e-06
-1.01893e-06
4.58685e-06
-1.02347e-06
4.80301e-06
-1.02933e-06
5.05355e-06
-1.03635e-06
5.34085e-06
-1.04404e-06
5.65866e-06
-1.05174e-06
5.9923e-06
-1.05883e-06
6.32365e-06
-1.06503e-06
6.63947e-06
-1.07063e-06
6.93915e-06
-1.07642e-06
7.23737e-06
-1.0834e-06
7.55878e-06
-1.0941e-06
9.24808e-06
-1.10717e-06
9.29379e-06
-1.12186e-06
9.36091e-06
-1.13739e-06
9.41742e-06
-1.15335e-06
9.4484e-06
-1.16973e-06
9.4566e-06
-1.18671e-06
9.45187e-06
-1.20449e-06
9.44259e-06
-1.22319e-06
9.43323e-06
-1.24287e-06
9.42529e-06
-1.26353e-06
9.41864e-06
-1.28512e-06
9.41239e-06
-1.30759e-06
9.4056e-06
-1.33093e-06
9.39821e-06
-1.35519e-06
9.39191e-06
-1.38055e-06
9.39059e-06
-1.40719e-06
9.39983e-06
-1.43521e-06
9.42548e-06
-1.46451e-06
9.47202e-06
9.54178e-06
-9.81774e-07
1.79634e-06
-9.82244e-07
1.90652e-06
-9.82937e-07
2.01817e-06
-9.83832e-07
2.13266e-06
-9.8491e-07
2.25135e-06
-9.86158e-07
2.37534e-06
-9.87573e-07
2.50531e-06
-9.89152e-07
2.64163e-06
-9.90891e-07
2.78433e-06
-9.92772e-07
2.93309e-06
-9.94767e-07
3.08729e-06
-9.96832e-07
3.24593e-06
-9.98909e-07
3.40771e-06
-1.00094e-06
3.57111e-06
-1.00289e-06
3.73468e-06
-1.00476e-06
3.89758e-06
-1.00664e-06
4.06034e-06
-1.00873e-06
4.22578e-06
-1.01132e-06
4.3996e-06
-1.01477e-06
4.5903e-06
-1.01939e-06
4.80763e-06
-1.02528e-06
5.05944e-06
-1.03229e-06
5.34786e-06
-1.03991e-06
5.66627e-06
-1.04747e-06
5.99986e-06
-1.05437e-06
6.33055e-06
-1.06036e-06
6.64546e-06
-1.06575e-06
6.94453e-06
-1.07131e-06
7.24294e-06
-1.07806e-06
7.56553e-06
-1.08844e-06
9.25845e-06
-1.10114e-06
9.30649e-06
-1.11541e-06
9.37518e-06
-1.13046e-06
9.43248e-06
-1.1459e-06
9.46384e-06
-1.16169e-06
9.4724e-06
-1.17802e-06
9.4682e-06
-1.19505e-06
9.45962e-06
-1.2129e-06
9.45107e-06
-1.2316e-06
9.44399e-06
-1.25114e-06
9.43818e-06
-1.27144e-06
9.43269e-06
-1.29242e-06
9.42658e-06
-1.31403e-06
9.41982e-06
-1.3363e-06
9.41418e-06
-1.35934e-06
9.41362e-06
-1.38328e-06
9.42376e-06
-1.40814e-06
9.45035e-06
-1.43374e-06
9.49762e-06
9.56768e-06
-9.77457e-07
1.79655e-06
-9.77898e-07
1.90696e-06
-9.78559e-07
2.01883e-06
-9.79421e-07
2.13352e-06
-9.80466e-07
2.2524e-06
-9.81682e-07
2.37655e-06
-9.83064e-07
2.50669e-06
-9.8461e-07
2.64318e-06
-9.86316e-07
2.78603e-06
-9.88165e-07
2.93494e-06
-9.90131e-07
3.08925e-06
-9.9217e-07
3.24797e-06
-9.94229e-07
3.40977e-06
-9.96253e-07
3.57314e-06
-9.98208e-07
3.73663e-06
-1.00011e-06
3.89947e-06
-1.00204e-06
4.06227e-06
-1.0042e-06
4.22794e-06
-1.00688e-06
4.40228e-06
-1.01042e-06
4.59385e-06
-1.01511e-06
4.81231e-06
-1.02104e-06
5.06537e-06
-1.02802e-06
5.35483e-06
-1.03555e-06
5.67381e-06
-1.04297e-06
6.00728e-06
-1.04968e-06
6.33727e-06
-1.05546e-06
6.65124e-06
-1.06062e-06
6.94969e-06
-1.06596e-06
7.24827e-06
-1.07247e-06
7.57204e-06
-1.08251e-06
9.2685e-06
-1.09483e-06
9.31881e-06
-1.10867e-06
9.38902e-06
-1.12324e-06
9.44704e-06
-1.13814e-06
9.47873e-06
-1.15334e-06
9.4876e-06
-1.16901e-06
9.48386e-06
-1.18528e-06
9.4759e-06
-1.20227e-06
9.46806e-06
-1.22e-06
9.46172e-06
-1.23842e-06
9.4566e-06
-1.25744e-06
9.45171e-06
-1.27694e-06
9.44608e-06
-1.29686e-06
9.43973e-06
-1.31718e-06
9.4345e-06
-1.33798e-06
9.43442e-06
-1.35932e-06
9.44511e-06
-1.38118e-06
9.4722e-06
-1.40329e-06
9.51973e-06
9.58953e-06
-9.72966e-07
1.79674e-06
-9.73374e-07
1.90737e-06
-9.73997e-07
2.01945e-06
-9.7482e-07
2.13434e-06
-9.75826e-07
2.25341e-06
-9.77005e-07
2.37773e-06
-9.78351e-07
2.50804e-06
-9.79861e-07
2.64469e-06
-9.81531e-07
2.7877e-06
-9.83347e-07
2.93675e-06
-9.85282e-07
3.09119e-06
-9.87296e-07
3.24998e-06
-9.89338e-07
3.41181e-06
-9.91357e-07
3.57515e-06
-9.93325e-07
3.7386e-06
-9.95256e-07
3.9014e-06
-9.97244e-07
4.06426e-06
-9.99482e-07
4.23017e-06
-1.00225e-06
4.40505e-06
-1.00588e-06
4.59748e-06
-1.01064e-06
4.81707e-06
-1.0166e-06
5.07133e-06
-1.02355e-06
5.36179e-06
-1.03099e-06
5.68125e-06
-1.03826e-06
6.01454e-06
-1.04478e-06
6.34379e-06
-1.05035e-06
6.65681e-06
-1.05528e-06
6.95463e-06
-1.06038e-06
7.25337e-06
-1.06664e-06
7.57829e-06
-1.07635e-06
9.27821e-06
-1.08828e-06
9.33073e-06
-1.10167e-06
9.40241e-06
-1.11574e-06
9.46112e-06
-1.1301e-06
9.49309e-06
-1.14471e-06
9.50221e-06
-1.15971e-06
9.49886e-06
-1.17524e-06
9.49143e-06
-1.19138e-06
9.4842e-06
-1.20813e-06
9.47847e-06
-1.22545e-06
9.47391e-06
-1.2432e-06
9.46946e-06
-1.26126e-06
9.46415e-06
-1.27953e-06
9.458e-06
-1.29797e-06
9.45294e-06
-1.31661e-06
9.45306e-06
-1.33549e-06
9.46399e-06
-1.35452e-06
9.49123e-06
-1.37338e-06
9.53859e-06
9.60766e-06
-9.6833e-07
1.79691e-06
-9.68698e-07
1.90774e-06
-9.69273e-07
2.02003e-06
-9.70045e-07
2.13511e-06
-9.71004e-07
2.25437e-06
-9.72138e-07
2.37887e-06
-9.73443e-07
2.50934e-06
-9.74914e-07
2.64616e-06
-9.76547e-07
2.78933e-06
-9.78328e-07
2.93854e-06
-9.80231e-07
3.09309e-06
-9.82219e-07
3.25197e-06
-9.84245e-07
3.41384e-06
-9.86263e-07
3.57717e-06
-9.88245e-07
3.74058e-06
-9.90214e-07
3.90337e-06
-9.92263e-07
4.06631e-06
-9.94582e-07
4.23249e-06
-9.97448e-07
4.40792e-06
-1.00117e-06
4.6012e-06
-1.00599e-06
4.82189e-06
-1.01198e-06
5.07731e-06
-1.0189e-06
5.36871e-06
-1.02624e-06
5.68859e-06
-1.03336e-06
6.02166e-06
-1.03968e-06
6.35012e-06
-1.04503e-06
6.66216e-06
-1.04974e-06
6.95934e-06
-1.0546e-06
7.25823e-06
-1.0606e-06
7.58429e-06
-1.06996e-06
9.28757e-06
-1.08148e-06
9.34226e-06
-1.09442e-06
9.41535e-06
-1.108e-06
9.47469e-06
-1.12181e-06
9.50691e-06
-1.13583e-06
9.51623e-06
-1.15017e-06
9.5132e-06
-1.16495e-06
9.50622e-06
-1.18025e-06
9.4995e-06
-1.19606e-06
9.49428e-06
-1.21229e-06
9.49014e-06
-1.22881e-06
9.48598e-06
-1.24547e-06
9.48081e-06
-1.26215e-06
9.47468e-06
-1.27879e-06
9.46958e-06
-1.29539e-06
9.46967e-06
-1.31195e-06
9.48055e-06
-1.32834e-06
9.50762e-06
-1.3442e-06
9.55446e-06
9.62242e-06
-9.63569e-07
1.79702e-06
-9.6387e-07
1.90804e-06
-9.64379e-07
2.02054e-06
-9.65091e-07
2.13583e-06
-9.65996e-07
2.25527e-06
-9.67083e-07
2.37995e-06
-9.68344e-07
2.5106e-06
-9.69775e-07
2.64759e-06
-9.71369e-07
2.79093e-06
-9.73114e-07
2.94028e-06
-9.74986e-07
3.09496e-06
-9.7695e-07
3.25394e-06
-9.78961e-07
3.41585e-06
-9.80978e-07
3.57919e-06
-9.8298e-07
3.74258e-06
-9.8499e-07
3.90538e-06
-9.87104e-07
4.06843e-06
-9.89509e-07
4.2349e-06
-9.92471e-07
4.41088e-06
-9.96285e-07
4.60501e-06
-1.00118e-06
4.82678e-06
-1.00718e-06
5.08332e-06
-1.01406e-06
5.37559e-06
-1.02131e-06
5.69584e-06
-1.02827e-06
6.02862e-06
-1.0344e-06
6.35625e-06
-1.03953e-06
6.66729e-06
-1.04401e-06
6.96381e-06
-1.04863e-06
7.26286e-06
-1.05437e-06
7.59002e-06
-1.06336e-06
9.29657e-06
-1.07448e-06
9.35337e-06
-1.08696e-06
9.42783e-06
-1.10004e-06
9.48777e-06
-1.11332e-06
9.52018e-06
-1.12674e-06
9.52966e-06
-1.14043e-06
9.52689e-06
-1.15448e-06
9.52027e-06
-1.16896e-06
9.51398e-06
-1.18383e-06
9.50915e-06
-1.199e-06
9.50531e-06
-1.21433e-06
9.50131e-06
-1.22965e-06
9.49612e-06
-1.24481e-06
9.48984e-06
-1.25975e-06
9.48451e-06
-1.27443e-06
9.48435e-06
-1.28883e-06
9.49494e-06
-1.30277e-06
9.52156e-06
-1.31591e-06
9.56759e-06
9.63414e-06
-9.5866e-07
1.79704e-06
-9.58856e-07
1.90824e-06
-9.59277e-07
2.02096e-06
-9.59926e-07
2.13648e-06
-9.60783e-07
2.25613e-06
-9.61829e-07
2.381e-06
-9.63052e-07
2.51183e-06
-9.64446e-07
2.64899e-06
-9.66005e-07
2.79249e-06
-9.67716e-07
2.94199e-06
-9.69557e-07
3.0968e-06
-9.71497e-07
3.25588e-06
-9.73496e-07
3.41785e-06
-9.75516e-07
3.58121e-06
-9.7754e-07
3.74461e-06
-9.79595e-07
3.90744e-06
-9.81779e-07
4.07061e-06
-9.84273e-07
4.23739e-06
-9.87334e-07
4.41394e-06
-9.9124e-07
4.60892e-06
-9.96198e-07
4.83174e-06
-1.00222e-06
5.08935e-06
-1.00907e-06
5.38243e-06
-1.01621e-06
5.70298e-06
-1.02301e-06
6.03541e-06
-1.02894e-06
6.36218e-06
-1.03385e-06
6.67221e-06
-1.0381e-06
6.96806e-06
-1.04248e-06
7.26724e-06
-1.04795e-06
7.59549e-06
-1.05658e-06
9.3052e-06
-1.06728e-06
9.36407e-06
-1.0793e-06
9.43985e-06
-1.09189e-06
9.50036e-06
-1.10463e-06
9.53293e-06
-1.11748e-06
9.54251e-06
-1.13052e-06
9.53993e-06
-1.14386e-06
9.53361e-06
-1.15754e-06
9.52765e-06
-1.17151e-06
9.52312e-06
-1.18566e-06
9.51947e-06
-1.19985e-06
9.5155e-06
-1.21388e-06
9.51016e-06
-1.22761e-06
9.50357e-06
-1.24094e-06
9.49784e-06
-1.25384e-06
9.49724e-06
-1.26623e-06
9.50734e-06
-1.27795e-06
9.53328e-06
-1.2886e-06
9.57824e-06
9.64317e-06
-9.53576e-07
1.79697e-06
-9.5365e-07
1.90831e-06
-9.53975e-07
2.02128e-06
-9.54562e-07
2.13706e-06
-9.55378e-07
2.25694e-06
-9.56391e-07
2.38201e-06
-9.57583e-07
2.51302e-06
-9.58944e-07
2.65035e-06
-9.60469e-07
2.79401e-06
-9.62147e-07
2.94367e-06
-9.63958e-07
3.09861e-06
-9.65875e-07
3.25779e-06
-9.67862e-07
3.41984e-06
-9.69886e-07
3.58323e-06
-9.71935e-07
3.74666e-06
-9.74039e-07
3.90954e-06
-9.76296e-07
4.07287e-06
-9.78883e-07
4.23998e-06
-9.82045e-07
4.4171e-06
-9.86046e-07
4.61292e-06
-9.91069e-07
4.83676e-06
-9.97113e-07
5.09539e-06
-1.00391e-06
5.38923e-06
-1.01095e-06
5.71001e-06
-1.01759e-06
6.04205e-06
-1.02332e-06
6.36792e-06
-1.02801e-06
6.6769e-06
-1.03203e-06
6.97208e-06
-1.03617e-06
7.27138e-06
-1.04136e-06
7.60069e-06
-1.04963e-06
9.31347e-06
-1.05991e-06
9.37436e-06
-1.07148e-06
9.45141e-06
-1.08357e-06
9.51245e-06
-1.09579e-06
9.54515e-06
-1.10807e-06
9.55479e-06
-1.12049e-06
9.55235e-06
-1.13314e-06
9.54626e-06
-1.14603e-06
9.54055e-06
-1.15914e-06
9.53622e-06
-1.17232e-06
9.53266e-06
-1.18542e-06
9.5286e-06
-1.19824e-06
9.52298e-06
-1.21062e-06
9.51595e-06
-1.22246e-06
9.50968e-06
-1.2337e-06
9.50848e-06
-1.24426e-06
9.5179e-06
-1.25394e-06
9.54296e-06
-1.26238e-06
9.58668e-06
9.64981e-06
-9.4834e-07
1.79684e-06
-9.48318e-07
1.90829e-06
-9.48553e-07
2.02152e-06
-9.49076e-07
2.13759e-06
-9.49847e-07
2.25771e-06
-9.50824e-07
2.38299e-06
-9.51979e-07
2.51417e-06
-9.53303e-07
2.65167e-06
-9.54789e-07
2.7955e-06
-9.5643e-07
2.94531e-06
-9.58208e-07
3.10039e-06
-9.601e-07
3.25968e-06
-9.62074e-07
3.42181e-06
-9.64102e-07
3.58526e-06
-9.66177e-07
3.74873e-06
-9.68333e-07
3.9117e-06
-9.70665e-07
4.0752e-06
-9.73348e-07
4.24266e-06
-9.76614e-07
4.42037e-06
-9.80709e-07
4.61701e-06
-9.85798e-07
4.84185e-06
-9.91859e-07
5.10145e-06
-9.98614e-07
5.39598e-06
-1.00554e-06
5.71694e-06
-1.01202e-06
6.04853e-06
-1.01756e-06
6.37345e-06
-1.02203e-06
6.68137e-06
-1.02582e-06
6.97587e-06
-1.02971e-06
7.27527e-06
-1.03463e-06
7.60561e-06
-1.04252e-06
9.32136e-06
-1.05239e-06
9.38422e-06
-1.0635e-06
9.46252e-06
-1.07511e-06
9.52406e-06
-1.08682e-06
9.55686e-06
-1.09855e-06
9.56651e-06
-1.11036e-06
9.56416e-06
-1.12234e-06
9.55823e-06
-1.13449e-06
9.5527e-06
-1.14676e-06
9.54849e-06
-1.15903e-06
9.54492e-06
-1.1711e-06
9.54067e-06
-1.18279e-06
9.53467e-06
-1.19391e-06
9.52708e-06
-1.20437e-06
9.52013e-06
-1.21408e-06
9.5182e-06
-1.22297e-06
9.52679e-06
-1.23083e-06
9.55082e-06
-1.23729e-06
9.59314e-06
9.65436e-06
-9.43008e-07
1.79669e-06
-9.42937e-07
1.90822e-06
-9.43103e-07
2.02168e-06
-9.43555e-07
2.13804e-06
-9.44264e-07
2.25842e-06
-9.45184e-07
2.38391e-06
-9.46286e-07
2.51528e-06
-9.47557e-07
2.65294e-06
-9.48992e-07
2.79693e-06
-9.50586e-07
2.9469e-06
-9.52324e-07
3.10213e-06
-9.54185e-07
3.26155e-06
-9.56143e-07
3.42377e-06
-9.58175e-07
3.58729e-06
-9.60277e-07
3.75083e-06
-9.62485e-07
3.91391e-06
-9.64897e-07
4.07761e-06
-9.67677e-07
4.24544e-06
-9.7105e-07
4.42374e-06
-9.75241e-07
4.6212e-06
-9.80394e-07
4.847e-06
-9.86472e-07
5.10753e-06
-9.93181e-07
5.40269e-06
-1e-06
5.72376e-06
-1.00632e-06
6.05485e-06
-1.01166e-06
6.37879e-06
-1.01591e-06
6.68563e-06
-1.01947e-06
6.97942e-06
-1.02311e-06
7.27891e-06
-1.02776e-06
7.61025e-06
-1.03528e-06
9.32889e-06
-1.04473e-06
9.39368e-06
-1.0554e-06
9.47319e-06
-1.06653e-06
9.5352e-06
-1.07774e-06
9.56807e-06
-1.08894e-06
9.57771e-06
-1.10017e-06
9.5754e-06
-1.1115e-06
9.56957e-06
-1.12295e-06
9.56414e-06
-1.13443e-06
9.55998e-06
-1.14583e-06
9.55632e-06
-1.15694e-06
9.55178e-06
-1.16757e-06
9.54529e-06
-1.17753e-06
9.53705e-06
-1.18672e-06
9.52932e-06
-1.19505e-06
9.52653e-06
-1.20244e-06
9.53417e-06
-1.20866e-06
9.55705e-06
-1.21337e-06
9.59785e-06
9.65709e-06
-9.37602e-07
1.79655e-06
-9.37519e-07
1.90813e-06
-9.37637e-07
2.0218e-06
-9.38017e-07
2.13842e-06
-9.38646e-07
2.25905e-06
-9.39488e-07
2.38475e-06
-9.40516e-07
2.5163e-06
-9.41718e-07
2.65414e-06
-9.4309e-07
2.79831e-06
-9.44626e-07
2.94844e-06
-9.46315e-07
3.10382e-06
-9.48141e-07
3.26337e-06
-9.50079e-07
3.42571e-06
-9.52113e-07
3.58933e-06
-9.54242e-07
3.75296e-06
-9.56505e-07
3.91617e-06
-9.58998e-07
4.0801e-06
-9.61879e-07
4.24833e-06
-9.65359e-07
4.42722e-06
-9.69648e-07
4.62549e-06
-9.74868e-07
4.85222e-06
-9.80961e-07
5.11362e-06
-9.87626e-07
5.40936e-06
-9.94339e-07
5.73048e-06
-1.0005e-06
6.06101e-06
-1.00564e-06
6.38394e-06
-1.00968e-06
6.68967e-06
-1.013e-06
6.98275e-06
-1.0164e-06
7.28231e-06
-1.02077e-06
7.61463e-06
-1.02792e-06
9.33603e-06
-1.03696e-06
9.40272e-06
-1.04718e-06
9.48341e-06
-1.05786e-06
9.54587e-06
-1.06859e-06
9.5788e-06
-1.07926e-06
9.58838e-06
-1.08994e-06
9.58607e-06
-1.10066e-06
9.58029e-06
-1.11143e-06
9.57491e-06
-1.12218e-06
9.57072e-06
-1.13276e-06
9.5669e-06
-1.14298e-06
9.562e-06
-1.15263e-06
9.55495e-06
-1.16154e-06
9.54595e-06
-1.16958e-06
9.53736e-06
-1.17666e-06
9.53361e-06
-1.1827e-06
9.5402e-06
-1.18747e-06
9.56183e-06
-1.19065e-06
9.60103e-06
9.65825e-06
-9.32089e-07
1.79642e-06
-9.32008e-07
1.90805e-06
-9.32091e-07
2.02189e-06
-9.32404e-07
2.13873e-06
-9.32949e-07
2.2596e-06
-9.33705e-07
2.38551e-06
-9.3465e-07
2.51725e-06
-9.35774e-07
2.65527e-06
-9.37073e-07
2.7996e-06
-9.38546e-07
2.94991e-06
-9.40182e-07
3.10546e-06
-9.41969e-07
3.26516e-06
-9.43886e-07
3.42762e-06
-9.45922e-07
3.59136e-06
-9.48079e-07
3.75512e-06
-9.50399e-07
3.91849e-06
-9.52975e-07
4.08268e-06
-9.5596e-07
4.25131e-06
-9.59551e-07
4.43081e-06
-9.63939e-07
4.62988e-06
-9.69226e-07
4.85751e-06
-9.75337e-07
5.11974e-06
-9.81958e-07
5.41598e-06
-9.88565e-07
5.73708e-06
-9.94565e-07
6.06701e-06
-9.99514e-07
6.38889e-06
-1.00334e-06
6.69349e-06
-1.00643e-06
6.98584e-06
-1.00958e-06
7.28546e-06
-1.01368e-06
7.61872e-06
-1.02045e-06
9.34281e-06
-1.02908e-06
9.41135e-06
-1.03887e-06
9.4932e-06
-1.0491e-06
9.5561e-06
-1.05936e-06
9.58906e-06
-1.06955e-06
9.59857e-06
-1.0797e-06
9.59621e-06
-1.08984e-06
9.59043e-06
-1.09998e-06
9.58505e-06
-1.11004e-06
9.58078e-06
-1.11986e-06
9.57672e-06
-1.12926e-06
9.57141e-06
-1.13803e-06
9.56371e-06
-1.14597e-06
9.5539e-06
-1.15297e-06
9.54436e-06
-1.15894e-06
9.53959e-06
-1.16378e-06
9.54504e-06
-1.16728e-06
9.56533e-06
-1.16912e-06
9.60288e-06
9.65804e-06
-9.26421e-07
1.7963e-06
-9.26338e-07
1.90797e-06
-9.26391e-07
2.02194e-06
-9.26645e-07
2.13898e-06
-9.27115e-07
2.26007e-06
-9.27789e-07
2.38618e-06
-9.28653e-07
2.51811e-06
-9.29701e-07
2.65632e-06
-9.3093e-07
2.80083e-06
-9.32338e-07
2.95132e-06
-9.33922e-07
3.10704e-06
-9.35669e-07
3.2669e-06
-9.37567e-07
3.42952e-06
-9.39605e-07
3.5934e-06
-9.41793e-07
3.75731e-06
-9.44172e-07
3.92087e-06
-9.46835e-07
4.08534e-06
-9.49927e-07
4.2544e-06
-9.53632e-07
4.43452e-06
-9.58121e-07
4.63437e-06
-9.63479e-07
4.86287e-06
-9.69609e-07
5.12587e-06
-9.76188e-07
5.42256e-06
-9.82691e-07
5.74359e-06
-9.88535e-07
6.07285e-06
-9.93292e-07
6.39364e-06
-9.96902e-07
6.6971e-06
-9.99768e-07
6.98871e-06
-1.00267e-06
7.28836e-06
-1.00649e-06
7.62254e-06
-1.01289e-06
9.34922e-06
-1.02112e-06
9.41958e-06
-1.03049e-06
9.50256e-06
-1.04029e-06
9.5659e-06
-1.0501e-06
9.59888e-06
-1.05982e-06
9.60829e-06
-1.06946e-06
9.60586e-06
-1.07907e-06
9.60004e-06
-1.08862e-06
9.5946e-06
-1.09803e-06
9.59019e-06
-1.10716e-06
9.58585e-06
-1.11582e-06
9.58006e-06
-1.12378e-06
9.57167e-06
-1.13086e-06
9.56098e-06
-1.13694e-06
9.55044e-06
-1.14193e-06
9.54457e-06
-1.14571e-06
9.54883e-06
-1.1481e-06
9.56772e-06
-1.14879e-06
9.60356e-06
9.65665e-06
-9.20584e-07
1.79618e-06
-9.20487e-07
1.90787e-06
-9.20508e-07
2.02196e-06
-9.20709e-07
2.13919e-06
-9.21113e-07
2.26047e-06
-9.21716e-07
2.38678e-06
-9.22509e-07
2.51891e-06
-9.23488e-07
2.65729e-06
-9.24651e-07
2.802e-06
-9.26e-07
2.95267e-06
-9.27534e-07
3.10857e-06
-9.29244e-07
3.26862e-06
-9.31123e-07
3.4314e-06
-9.33167e-07
3.59544e-06
-9.35388e-07
3.75953e-06
-9.37831e-07
3.92331e-06
-9.40584e-07
4.08809e-06
-9.43787e-07
4.25761e-06
-9.47609e-07
4.43834e-06
-9.52204e-07
4.63897e-06
-9.57634e-07
4.8683e-06
-9.63787e-07
5.13202e-06
-9.70326e-07
5.4291e-06
-9.76729e-07
5.74999e-06
-9.8242e-07
6.07854e-06
-9.86987e-07
6.39821e-06
-9.90384e-07
6.7005e-06
-9.93023e-07
6.99135e-06
-9.95677e-07
7.29101e-06
-9.9922e-07
7.62608e-06
-1.00526e-06
9.35526e-06
-1.01309e-06
9.42741e-06
-1.02205e-06
9.51152e-06
-1.03142e-06
9.57528e-06
-1.04082e-06
9.60827e-06
-1.05009e-06
9.61756e-06
-1.05926e-06
9.61503e-06
-1.06836e-06
9.60913e-06
-1.07736e-06
9.60361e-06
-1.08619e-06
9.59902e-06
-1.09469e-06
9.59436e-06
-1.10267e-06
9.58804e-06
-1.10991e-06
9.57891e-06
-1.11623e-06
9.5673e-06
-1.1215e-06
9.55571e-06
-1.12563e-06
9.54871e-06
-1.12851e-06
9.55171e-06
-1.12995e-06
9.56915e-06
-1.12964e-06
9.60326e-06
9.65427e-06
-9.14605e-07
1.79605e-06
-9.14483e-07
1.90775e-06
-9.14466e-07
2.02194e-06
-9.14616e-07
2.13934e-06
-9.14959e-07
2.26081e-06
-9.15498e-07
2.38732e-06
-9.16227e-07
2.51964e-06
-9.17142e-07
2.65821e-06
-9.18244e-07
2.8031e-06
-9.19538e-07
2.95396e-06
-9.21024e-07
3.11006e-06
-9.227e-07
3.27029e-06
-9.24564e-07
3.43326e-06
-9.26616e-07
3.5975e-06
-9.28873e-07
3.76179e-06
-9.31382e-07
3.92582e-06
-9.34229e-07
4.09094e-06
-9.37547e-07
4.26092e-06
-9.4149e-07
4.44228e-06
-9.46194e-07
4.64367e-06
-9.517e-07
4.87381e-06
-9.57879e-07
5.1382e-06
-9.64383e-07
5.4356e-06
-9.70688e-07
5.7563e-06
-9.7623e-07
6.08408e-06
-9.8061e-07
6.40259e-06
-9.83797e-07
6.70369e-06
-9.86208e-07
6.99376e-06
-9.88616e-07
7.29342e-06
-9.91883e-07
7.62935e-06
-9.97558e-07
9.36093e-06
-1.005e-06
9.43485e-06
-1.01355e-06
9.52007e-06
-1.02253e-06
9.58426e-06
-1.03152e-06
9.61725e-06
-1.04037e-06
9.62642e-06
-1.0491e-06
9.62376e-06
-1.05773e-06
9.61776e-06
-1.06623e-06
9.61211e-06
-1.07453e-06
9.60732e-06
-1.08246e-06
9.60229e-06
-1.08984e-06
9.59541e-06
-1.09645e-06
9.58552e-06
-1.1021e-06
9.57296e-06
-1.10668e-06
9.56029e-06
-1.11008e-06
9.55211e-06
-1.11219e-06
9.55382e-06
-1.11281e-06
9.56977e-06
-1.11167e-06
9.60212e-06
9.65105e-06
-9.08539e-07
1.7959e-06
-9.08384e-07
1.90759e-06
-9.08322e-07
2.02188e-06
-9.08416e-07
2.13943e-06
-9.08696e-07
2.26109e-06
-9.0917e-07
2.3878e-06
-9.09833e-07
2.5203e-06
-9.10684e-07
2.65906e-06
-9.11726e-07
2.80414e-06
-9.12964e-07
2.9552e-06
-9.14404e-07
3.1115e-06
-9.16047e-07
3.27194e-06
-9.17897e-07
3.43511e-06
-9.19959e-07
3.59956e-06
-9.22255e-07
3.76408e-06
-9.24833e-07
3.9284e-06
-9.27778e-07
4.09389e-06
-9.31214e-07
4.26436e-06
-9.35282e-07
4.44635e-06
-9.40099e-07
4.64849e-06
-9.45686e-07
4.87939e-06
-9.51895e-07
5.14441e-06
-9.58367e-07
5.44208e-06
-9.6458e-07
5.76251e-06
-9.69975e-07
6.08948e-06
-9.74171e-07
6.40679e-06
-9.77149e-07
6.70667e-06
-9.79335e-07
6.99595e-06
-9.81497e-07
7.29558e-06
-9.8449e-07
7.63234e-06
-9.89803e-07
9.36625e-06
-9.96863e-07
9.44192e-06
-1.00503e-06
9.52824e-06
-1.01362e-06
9.59285e-06
-1.02223e-06
9.62586e-06
-1.03069e-06
9.63489e-06
-1.03901e-06
9.63208e-06
-1.0472e-06
9.62595e-06
-1.05525e-06
9.62016e-06
-1.06306e-06
9.61513e-06
-1.07049e-06
9.60972e-06
-1.07734e-06
9.60226e-06
-1.0834e-06
9.59158e-06
-1.08849e-06
9.57805e-06
-1.09248e-06
9.56427e-06
-1.09527e-06
9.5549e-06
-1.09674e-06
9.55529e-06
-1.0967e-06
9.56973e-06
-1.09487e-06
9.60029e-06
9.64713e-06
-9.02436e-07
1.79573e-06
-9.02242e-07
1.9074e-06
-9.02126e-07
2.02177e-06
-9.02155e-07
2.13946e-06
-9.02365e-07
2.2613e-06
-9.02766e-07
2.3882e-06
-9.03357e-07
2.52089e-06
-9.04139e-07
2.65984e-06
-9.05116e-07
2.80512e-06
-9.06296e-07
2.95638e-06
-9.07688e-07
3.11289e-06
-9.09298e-07
3.27355e-06
-9.11133e-07
3.43695e-06
-9.13207e-07
3.60163e-06
-9.15544e-07
3.76642e-06
-9.18193e-07
3.93105e-06
-9.21239e-07
4.09693e-06
-9.24796e-07
4.26792e-06
-9.28993e-07
4.45055e-06
-9.33928e-07
4.65342e-06
-9.396e-07
4.88507e-06
-9.45843e-07
5.15065e-06
-9.52289e-07
5.44852e-06
-9.58412e-07
5.76863e-06
-9.63666e-07
6.09473e-06
-9.67681e-07
6.4108e-06
-9.70452e-07
6.70944e-06
-9.72413e-07
6.99791e-06
-9.7433e-07
7.2975e-06
-9.7705e-07
7.63506e-06
-9.82005e-07
9.3712e-06
-9.8869e-07
9.4486e-06
-9.96481e-07
9.53603e-06
-1.00471e-06
9.60108e-06
-1.01295e-06
9.6341e-06
-1.02105e-06
9.64298e-06
-1.02899e-06
9.64002e-06
-1.03679e-06
9.63375e-06
-1.04442e-06
9.62779e-06
-1.05181e-06
9.62252e-06
-1.0588e-06
9.61671e-06
-1.06519e-06
9.60866e-06
-1.07079e-06
9.59718e-06
-1.07541e-06
9.58267e-06
-1.07892e-06
9.56778e-06
-1.08122e-06
9.5572e-06
-1.08218e-06
9.55625e-06
-1.08161e-06
9.56916e-06
-1.07924e-06
9.59792e-06
9.64265e-06
-8.96323e-07
1.79553e-06
-8.9608e-07
1.90716e-06
-8.95899e-07
2.02158e-06
-8.95853e-07
2.13941e-06
-8.95982e-07
2.26143e-06
-8.96301e-07
2.38852e-06
-8.96813e-07
2.5214e-06
-8.97519e-07
2.66055e-06
-8.98426e-07
2.80603e-06
-8.99545e-07
2.9575e-06
-9.00886e-07
3.11423e-06
-9.02461e-07
3.27512e-06
-9.04283e-07
3.43877e-06
-9.06369e-07
3.60372e-06
-9.08747e-07
3.7688e-06
-9.11471e-07
3.93377e-06
-9.1462e-07
4.10008e-06
-9.18302e-07
4.2716e-06
-9.22632e-07
4.45488e-06
-9.27688e-07
4.65848e-06
-9.3345e-07
4.89083e-06
-9.39732e-07
5.15693e-06
-9.46156e-07
5.45495e-06
-9.52195e-07
5.77467e-06
-9.5731e-07
6.09985e-06
-9.61147e-07
6.41464e-06
-9.63715e-07
6.712e-06
-9.65451e-07
6.99964e-06
-9.67124e-07
7.29917e-06
-9.69572e-07
7.63751e-06
-9.74172e-07
9.3758e-06
-9.8049e-07
9.45492e-06
-9.87917e-07
9.54346e-06
-9.95792e-07
9.60895e-06
-1.00369e-06
9.642e-06
-1.01145e-06
9.65074e-06
-1.01904e-06
9.64761e-06
-1.02649e-06
9.6412e-06
-1.03375e-06
9.63506e-06
-1.04076e-06
9.62953e-06
-1.04737e-06
9.62332e-06
-1.05339e-06
9.61467e-06
-1.05861e-06
9.6024e-06
-1.06286e-06
9.58692e-06
-1.066e-06
9.57092e-06
-1.06792e-06
9.55912e-06
-1.06851e-06
9.55684e-06
-1.06755e-06
9.5682e-06
-1.06477e-06
9.59514e-06
9.63775e-06
-8.90196e-07
1.79529e-06
-8.89892e-07
1.90685e-06
-8.89632e-07
2.02132e-06
-8.89498e-07
2.13928e-06
-8.89537e-07
2.26147e-06
-8.89767e-07
2.38875e-06
-8.90194e-07
2.52183e-06
-8.90822e-07
2.66118e-06
-8.91658e-07
2.80686e-06
-8.92715e-07
2.95855e-06
-8.94005e-07
3.11552e-06
-8.95547e-07
3.27666e-06
-8.97356e-07
3.44058e-06
-8.99454e-07
3.60582e-06
-9.01876e-07
3.77122e-06
-9.04675e-07
3.93657e-06
-9.0793e-07
4.10334e-06
-9.1174e-07
4.27541e-06
-9.16206e-07
4.45935e-06
-9.21388e-07
4.66366e-06
-9.27244e-07
4.89668e-06
-9.3357e-07
5.16326e-06
-9.39976e-07
5.46135e-06
-9.45936e-07
5.78063e-06
-9.50917e-07
6.10483e-06
-9.5458e-07
6.4183e-06
-9.56946e-07
6.71437e-06
-9.5846e-07
7.00116e-06
-9.59888e-07
7.3006e-06
-9.62065e-07
7.63969e-06
-9.66315e-07
9.38005e-06
-9.72272e-07
9.46088e-06
-9.79347e-07
9.55053e-06
-9.86888e-07
9.61649e-06
-9.94467e-07
9.64958e-06
-1.00191e-06
9.65818e-06
-1.00919e-06
9.65489e-06
-1.01631e-06
9.64832e-06
-1.02325e-06
9.642e-06
-1.02994e-06
9.63622e-06
-1.03623e-06
9.62961e-06
-1.04194e-06
9.62038e-06
-1.04686e-06
9.60732e-06
-1.05083e-06
9.59088e-06
-1.0537e-06
9.5738e-06
-1.05538e-06
9.5608e-06
-1.05571e-06
9.55717e-06
-1.0545e-06
9.56699e-06
-1.05146e-06
9.5921e-06
9.63256e-06
-8.84027e-07
1.79502e-06
-8.8365e-07
1.90648e-06
-8.83298e-07
2.02097e-06
-8.83065e-07
2.13905e-06
-8.83007e-07
2.26141e-06
-8.83147e-07
2.38889e-06
-8.83491e-07
2.52217e-06
-8.84044e-07
2.66173e-06
-8.84813e-07
2.80763e-06
-8.8581e-07
2.95955e-06
-8.87054e-07
3.11677e-06
-8.88563e-07
3.27817e-06
-8.90361e-07
3.44238e-06
-8.92474e-07
3.60793e-06
-8.94941e-07
3.77369e-06
-8.97817e-07
3.93945e-06
-9.01179e-07
4.1067e-06
-9.05119e-07
4.27935e-06
-9.09724e-07
4.46395e-06
-9.15035e-07
4.66897e-06
-9.2099e-07
4.90264e-06
-9.27365e-07
5.16963e-06
-9.33759e-07
5.46775e-06
-9.39643e-07
5.78652e-06
-9.44494e-07
6.10968e-06
-9.47986e-07
6.42179e-06
-9.50152e-07
6.71654e-06
-9.51445e-07
7.00245e-06
-9.5263e-07
7.30179e-06
-9.54537e-07
7.6416e-06
-9.58439e-07
9.38395e-06
-9.64043e-07
9.46648e-06
-9.70777e-07
9.55727e-06
-9.77999e-07
9.62371e-06
-9.85277e-07
9.65686e-06
-9.92428e-07
9.66533e-06
-9.99416e-07
9.66188e-06
-1.00625e-06
9.65515e-06
-1.01291e-06
9.64866e-06
-1.01932e-06
9.64263e-06
-1.02536e-06
9.63564e-06
-1.03083e-06
9.62585e-06
-1.03554e-06
9.61204e-06
-1.03932e-06
9.59467e-06
-1.04204e-06
9.57652e-06
-1.04358e-06
9.56234e-06
-1.04379e-06
9.55739e-06
-1.04247e-06
9.56567e-06
-1.03932e-06
9.58895e-06
9.62724e-06
-8.77792e-07
1.79469e-06
-8.77333e-07
1.90602e-06
-8.7688e-07
2.02052e-06
-8.76541e-07
2.13871e-06
-8.76382e-07
2.26126e-06
-8.76433e-07
2.38894e-06
-8.767e-07
2.52244e-06
-8.77186e-07
2.66221e-06
-8.77894e-07
2.80834e-06
-8.78839e-07
2.9605e-06
-8.80041e-07
3.11797e-06
-8.81522e-07
3.27965e-06
-8.83312e-07
3.44417e-06
-8.85441e-07
3.61006e-06
-8.87955e-07
3.7762e-06
-8.90909e-07
3.9424e-06
-8.94379e-07
4.11017e-06
-8.9845e-07
4.28342e-06
-9.03197e-07
4.4687e-06
-9.0864e-07
4.67442e-06
-9.14696e-07
4.9087e-06
-9.21124e-07
5.17606e-06
-9.2751e-07
5.47413e-06
-9.33323e-07
5.79233e-06
-9.38048e-07
6.11441e-06
-9.41372e-07
6.42512e-06
-9.43341e-07
6.71851e-06
-9.44415e-07
7.00352e-06
-9.45358e-07
7.30273e-06
-9.46996e-07
7.64323e-06
-9.50552e-07
9.38751e-06
-9.55809e-07
9.47174e-06
-9.62213e-07
9.56367e-06
-9.69129e-07
9.63063e-06
-9.76125e-07
9.66385e-06
-9.83007e-07
9.67222e-06
-9.89734e-07
9.66861e-06
-9.96314e-07
9.66173e-06
-1.00273e-06
9.65508e-06
-1.00892e-06
9.64882e-06
-1.01475e-06
9.64147e-06
-1.02005e-06
9.63115e-06
-1.02463e-06
9.61661e-06
-1.02832e-06
9.59835e-06
-1.03098e-06
9.57918e-06
-1.0325e-06
9.56386e-06