/*--------------------------------*- C++ -*----------------------------------*\
  =========                 |
  \\      /  F ield         | OpenFOAM: The Open Source CFD Toolbox
   \\    /   O peration     | Website:  https://openfoam.org
    \\  /    A nd           | Version:  9
     \\/     M anipulation  |
\*---------------------------------------------------------------------------*/
FoamFile
{
    format      ascii;
    class       volScalarField;
    location    "0.1";
    object      rAU;
}
// * * * * * * * * * * * * * * * * * * * * * * * * * * * * * * * * * * * * * //

dimensions      [-1 3 1 0 0 0 0];

internalField   nonuniform List<scalar> 
5000
(
2.307e-05
2.14746e-05
2.18335e-05
2.21771e-05
2.25036e-05
2.28119e-05
2.3102e-05
2.33745e-05
2.36303e-05
2.38713e-05
2.40992e-05
2.43166e-05
2.45262e-05
2.47307e-05
2.49328e-05
2.51341e-05
2.53345e-05
2.55313e-05
2.57187e-05
2.5888e-05
2.603e-05
2.61381e-05
2.62126e-05
2.62624e-05
2.63041e-05
2.63557e-05
2.6429e-05
2.65242e-05
2.66292e-05
2.67385e-05
2.69793e-05
2.69615e-05
2.69154e-05
2.68729e-05
2.68446e-05
2.68298e-05
2.6823e-05
2.68189e-05
2.68146e-05
2.68088e-05
2.68014e-05
2.67929e-05
2.67838e-05
2.67743e-05
2.67634e-05
2.6749e-05
2.67276e-05
2.66955e-05
2.66494e-05
2.65875e-05
2.3077e-05
2.14798e-05
2.18383e-05
2.21816e-05
2.25076e-05
2.28156e-05
2.31054e-05
2.33775e-05
2.36331e-05
2.38738e-05
2.41015e-05
2.43188e-05
2.45283e-05
2.47329e-05
2.49351e-05
2.51365e-05
2.53369e-05
2.55335e-05
2.57202e-05
2.58884e-05
2.6029e-05
2.61357e-05
2.62089e-05
2.62582e-05
2.63e-05
2.63522e-05
2.64265e-05
2.65225e-05
2.66276e-05
2.67361e-05
2.69752e-05
2.6956e-05
2.6909e-05
2.68662e-05
2.68378e-05
2.6823e-05
2.6816e-05
2.68117e-05
2.68071e-05
2.6801e-05
2.67934e-05
2.67847e-05
2.67756e-05
2.6766e-05
2.67552e-05
2.67409e-05
2.67196e-05
2.66876e-05
2.66419e-05
2.65808e-05
2.30845e-05
2.14856e-05
2.18436e-05
2.21864e-05
2.25121e-05
2.28198e-05
2.31092e-05
2.3381e-05
2.36363e-05
2.38767e-05
2.41042e-05
2.43214e-05
2.45309e-05
2.47355e-05
2.49378e-05
2.51392e-05
2.53395e-05
2.55358e-05
2.57218e-05
2.5889e-05
2.60282e-05
2.61335e-05
2.62055e-05
2.62542e-05
2.62961e-05
2.63491e-05
2.64244e-05
2.65211e-05
2.66263e-05
2.67342e-05
2.69714e-05
2.69509e-05
2.6903e-05
2.68599e-05
2.68315e-05
2.68167e-05
2.68097e-05
2.68052e-05
2.68003e-05
2.6794e-05
2.67863e-05
2.67776e-05
2.67685e-05
2.67592e-05
2.67486e-05
2.67346e-05
2.67136e-05
2.66821e-05
2.66371e-05
2.65773e-05
2.30926e-05
2.14917e-05
2.18493e-05
2.21917e-05
2.2517e-05
2.28243e-05
2.31135e-05
2.33849e-05
2.36399e-05
2.388e-05
2.41073e-05
2.43243e-05
2.45337e-05
2.47384e-05
2.49407e-05
2.51422e-05
2.53424e-05
2.55383e-05
2.57236e-05
2.58897e-05
2.60276e-05
2.61314e-05
2.62023e-05
2.62505e-05
2.62926e-05
2.63464e-05
2.64226e-05
2.65201e-05
2.66253e-05
2.67326e-05
2.69679e-05
2.69461e-05
2.68975e-05
2.68541e-05
2.68258e-05
2.6811e-05
2.6804e-05
2.67993e-05
2.67943e-05
2.67879e-05
2.67801e-05
2.67715e-05
2.67627e-05
2.67537e-05
2.67436e-05
2.673e-05
2.67096e-05
2.66788e-05
2.6635e-05
2.65767e-05
2.31011e-05
2.14983e-05
2.18554e-05
2.21974e-05
2.25223e-05
2.28293e-05
2.31181e-05
2.33892e-05
2.36439e-05
2.38837e-05
2.41108e-05
2.43276e-05
2.45369e-05
2.47416e-05
2.49439e-05
2.51454e-05
2.53455e-05
2.5541e-05
2.57256e-05
2.58906e-05
2.60271e-05
2.61295e-05
2.61994e-05
2.6247e-05
2.62894e-05
2.6344e-05
2.64213e-05
2.65194e-05
2.66248e-05
2.67313e-05
2.69648e-05
2.69418e-05
2.68924e-05
2.68488e-05
2.68205e-05
2.68059e-05
2.67988e-05
2.67942e-05
2.67891e-05
2.67827e-05
2.67749e-05
2.67665e-05
2.6758e-05
2.67494e-05
2.67399e-05
2.67271e-05
2.67074e-05
2.66776e-05
2.66351e-05
2.65787e-05
2.311e-05
2.15052e-05
2.18619e-05
2.22035e-05
2.25281e-05
2.28347e-05
2.31231e-05
2.3394e-05
2.36483e-05
2.38878e-05
2.41146e-05
2.43313e-05
2.45405e-05
2.47451e-05
2.49474e-05
2.51488e-05
2.53487e-05
2.55438e-05
2.57277e-05
2.58916e-05
2.60267e-05
2.61278e-05
2.61966e-05
2.62439e-05
2.62866e-05
2.6342e-05
2.64203e-05
2.65192e-05
2.66246e-05
2.67304e-05
2.6962e-05
2.69379e-05
2.68878e-05
2.6844e-05
2.68158e-05
2.68013e-05
2.67943e-05
2.67896e-05
2.67846e-05
2.67782e-05
2.67706e-05
2.67624e-05
2.67543e-05
2.67464e-05
2.67376e-05
2.67256e-05
2.67069e-05
2.66782e-05
2.66372e-05
2.6583e-05
2.31193e-05
2.15126e-05
2.18688e-05
2.221e-05
2.25342e-05
2.28405e-05
2.31286e-05
2.3399e-05
2.36531e-05
2.38923e-05
2.41188e-05
2.43353e-05
2.45444e-05
2.47489e-05
2.49512e-05
2.51525e-05
2.53522e-05
2.55468e-05
2.57299e-05
2.58926e-05
2.60264e-05
2.61262e-05
2.61941e-05
2.6241e-05
2.62841e-05
2.63404e-05
2.64196e-05
2.65192e-05
2.66247e-05
2.67299e-05
2.69596e-05
2.69343e-05
2.68836e-05
2.68396e-05
2.68115e-05
2.67972e-05
2.67903e-05
2.67857e-05
2.67807e-05
2.67744e-05
2.67671e-05
2.67593e-05
2.67517e-05
2.67445e-05
2.67365e-05
2.67254e-05
2.67078e-05
2.66805e-05
2.66411e-05
2.65891e-05
2.31291e-05
2.15202e-05
2.18761e-05
2.22169e-05
2.25407e-05
2.28466e-05
2.31344e-05
2.34045e-05
2.36582e-05
2.38971e-05
2.41234e-05
2.43396e-05
2.45485e-05
2.47529e-05
2.49552e-05
2.51564e-05
2.53558e-05
2.55499e-05
2.57322e-05
2.58938e-05
2.60263e-05
2.61248e-05
2.61918e-05
2.62384e-05
2.62818e-05
2.6339e-05
2.64193e-05
2.65196e-05
2.66252e-05
2.67297e-05
2.69576e-05
2.69311e-05
2.68798e-05
2.68357e-05
2.68078e-05
2.67936e-05
2.67869e-05
2.67824e-05
2.67775e-05
2.67714e-05
2.67643e-05
2.6757e-05
2.675e-05
2.67436e-05
2.67365e-05
2.67265e-05
2.67101e-05
2.66841e-05
2.66465e-05
2.65969e-05
2.31391e-05
2.15283e-05
2.18837e-05
2.22242e-05
2.25477e-05
2.28532e-05
2.31406e-05
2.34104e-05
2.36637e-05
2.39023e-05
2.41283e-05
2.43443e-05
2.4553e-05
2.47573e-05
2.49594e-05
2.51604e-05
2.53596e-05
2.55531e-05
2.57345e-05
2.58951e-05
2.60262e-05
2.61235e-05
2.61896e-05
2.6236e-05
2.62799e-05
2.6338e-05
2.64194e-05
2.65204e-05
2.6626e-05
2.67298e-05
2.69559e-05
2.69283e-05
2.68764e-05
2.68322e-05
2.68044e-05
2.67905e-05
2.6784e-05
2.67796e-05
2.67749e-05
2.6769e-05
2.67623e-05
2.67555e-05
2.67492e-05
2.67436e-05
2.67376e-05
2.67286e-05
2.67135e-05
2.6689e-05
2.66533e-05
2.66059e-05
2.31496e-05
2.15368e-05
2.18919e-05
2.2232e-05
2.25551e-05
2.28602e-05
2.31472e-05
2.34166e-05
2.36696e-05
2.39078e-05
2.41335e-05
2.43492e-05
2.45578e-05
2.47619e-05
2.49638e-05
2.51647e-05
2.53634e-05
2.55564e-05
2.5737e-05
2.58964e-05
2.60263e-05
2.61224e-05
2.61877e-05
2.62339e-05
2.62783e-05
2.63373e-05
2.64197e-05
2.65214e-05
2.66271e-05
2.67303e-05
2.69545e-05
2.69259e-05
2.68734e-05
2.68292e-05
2.68015e-05
2.67879e-05
2.67815e-05
2.67774e-05
2.67729e-05
2.67673e-05
2.6761e-05
2.67547e-05
2.67491e-05
2.67445e-05
2.67395e-05
2.67317e-05
2.67179e-05
2.66949e-05
2.66611e-05
2.66161e-05
2.31607e-05
2.15459e-05
2.19007e-05
2.22402e-05
2.25629e-05
2.28676e-05
2.31542e-05
2.34232e-05
2.36757e-05
2.39136e-05
2.4139e-05
2.43544e-05
2.45628e-05
2.47667e-05
2.49684e-05
2.5169e-05
2.53674e-05
2.55598e-05
2.57395e-05
2.58978e-05
2.60264e-05
2.61214e-05
2.6186e-05
2.62321e-05
2.62769e-05
2.6337e-05
2.64204e-05
2.65228e-05
2.66285e-05
2.67311e-05
2.69534e-05
2.69238e-05
2.68707e-05
2.68265e-05
2.67991e-05
2.67857e-05
2.67796e-05
2.67757e-05
2.67714e-05
2.67661e-05
2.67602e-05
2.67545e-05
2.67498e-05
2.67461e-05
2.67422e-05
2.67356e-05
2.67231e-05
2.67017e-05
2.66698e-05
2.66271e-05
2.31724e-05
2.15554e-05
2.19097e-05
2.22488e-05
2.25709e-05
2.28752e-05
2.31614e-05
2.343e-05
2.36822e-05
2.39197e-05
2.41448e-05
2.43599e-05
2.4568e-05
2.47717e-05
2.49732e-05
2.51735e-05
2.53715e-05
2.55633e-05
2.57421e-05
2.58992e-05
2.60267e-05
2.61205e-05
2.61845e-05
2.62304e-05
2.62759e-05
2.63369e-05
2.64214e-05
2.65245e-05
2.66302e-05
2.67321e-05
2.69527e-05
2.69221e-05
2.68685e-05
2.68242e-05
2.6797e-05
2.67839e-05
2.67781e-05
2.67744e-05
2.67704e-05
2.67655e-05
2.67601e-05
2.6755e-05
2.67511e-05
2.67483e-05
2.67455e-05
2.67402e-05
2.67291e-05
2.67093e-05
2.66792e-05
2.66387e-05
2.31844e-05
2.15652e-05
2.1919e-05
2.22575e-05
2.25792e-05
2.2883e-05
2.31688e-05
2.34371e-05
2.36889e-05
2.39261e-05
2.41508e-05
2.43657e-05
2.45735e-05
2.47769e-05
2.49782e-05
2.51782e-05
2.53757e-05
2.55668e-05
2.57447e-05
2.59007e-05
2.6027e-05
2.61198e-05
2.61831e-05
2.62291e-05
2.62751e-05
2.63371e-05
2.64226e-05
2.65265e-05
2.66322e-05
2.67335e-05
2.69522e-05
2.69207e-05
2.68666e-05
2.68223e-05
2.67953e-05
2.67825e-05
2.67769e-05
2.67736e-05
2.67699e-05
2.67653e-05
2.67604e-05
2.6756e-05
2.67529e-05
2.67511e-05
2.67495e-05
2.67454e-05
2.67356e-05
2.67173e-05
2.66891e-05
2.66507e-05
2.31965e-05
2.15751e-05
2.19285e-05
2.22664e-05
2.25876e-05
2.2891e-05
2.31765e-05
2.34444e-05
2.36959e-05
2.39327e-05
2.41571e-05
2.43716e-05
2.45791e-05
2.47823e-05
2.49833e-05
2.51829e-05
2.53799e-05
2.55704e-05
2.57473e-05
2.59022e-05
2.60273e-05
2.61191e-05
2.61819e-05
2.62279e-05
2.62745e-05
2.63376e-05
2.64242e-05
2.65287e-05
2.66345e-05
2.67352e-05
2.69521e-05
2.69196e-05
2.6865e-05
2.68207e-05
2.6794e-05
2.67814e-05
2.67762e-05
2.67731e-05
2.67697e-05
2.67656e-05
2.67612e-05
2.67575e-05
2.67552e-05
2.67545e-05
2.67539e-05
2.67511e-05
2.67426e-05
2.67258e-05
2.66993e-05
2.6663e-05
2.32089e-05
2.15853e-05
2.19382e-05
2.22756e-05
2.25963e-05
2.28994e-05
2.31845e-05
2.3452e-05
2.37032e-05
2.39396e-05
2.41637e-05
2.43779e-05
2.4585e-05
2.47879e-05
2.49885e-05
2.51877e-05
2.53842e-05
2.55739e-05
2.575e-05
2.59038e-05
2.60277e-05
2.61186e-05
2.61808e-05
2.62269e-05
2.62742e-05
2.63383e-05
2.6426e-05
2.65312e-05
2.66371e-05
2.67372e-05
2.69523e-05
2.69188e-05
2.68638e-05
2.68194e-05
2.6793e-05
2.67807e-05
2.67758e-05
2.6773e-05
2.677e-05
2.67662e-05
2.67624e-05
2.67593e-05
2.67579e-05
2.67582e-05
2.67587e-05
2.67571e-05
2.675e-05
2.67347e-05
2.67098e-05
2.66755e-05
2.32217e-05
2.15958e-05
2.19483e-05
2.22852e-05
2.26055e-05
2.29081e-05
2.31928e-05
2.346e-05
2.37108e-05
2.39469e-05
2.41705e-05
2.43843e-05
2.45912e-05
2.47937e-05
2.49939e-05
2.51927e-05
2.53886e-05
2.55775e-05
2.57526e-05
2.59054e-05
2.60282e-05
2.61182e-05
2.61799e-05
2.62261e-05
2.62741e-05
2.63393e-05
2.64281e-05
2.6534e-05
2.66399e-05
2.67394e-05
2.69527e-05
2.69184e-05
2.68629e-05
2.68185e-05
2.67923e-05
2.67804e-05
2.67758e-05
2.67733e-05
2.67706e-05
2.67672e-05
2.67639e-05
2.67615e-05
2.6761e-05
2.67622e-05
2.67639e-05
2.67634e-05
2.67575e-05
2.67437e-05
2.67205e-05
2.6688e-05
2.32348e-05
2.16066e-05
2.19588e-05
2.22953e-05
2.26151e-05
2.29173e-05
2.32016e-05
2.34683e-05
2.37187e-05
2.39544e-05
2.41776e-05
2.43911e-05
2.45975e-05
2.47996e-05
2.49994e-05
2.51977e-05
2.5393e-05
2.55811e-05
2.57553e-05
2.59069e-05
2.60287e-05
2.61178e-05
2.61791e-05
2.62255e-05
2.62743e-05
2.63406e-05
2.64304e-05
2.6537e-05
2.6643e-05
2.67419e-05
2.69534e-05
2.69182e-05
2.68623e-05
2.68179e-05
2.67919e-05
2.67803e-05
2.6776e-05
2.67738e-05
2.67714e-05
2.67685e-05
2.67657e-05
2.6764e-05
2.67643e-05
2.67665e-05
2.67692e-05
2.67699e-05
2.67653e-05
2.67528e-05
2.67312e-05
2.67005e-05
2.32483e-05
2.16177e-05
2.19696e-05
2.23057e-05
2.2625e-05
2.29268e-05
2.32107e-05
2.3477e-05
2.37269e-05
2.39622e-05
2.4185e-05
2.4398e-05
2.4604e-05
2.48057e-05
2.5005e-05
2.52027e-05
2.53974e-05
2.55847e-05
2.57579e-05
2.59084e-05
2.60292e-05
2.61175e-05
2.61785e-05
2.62251e-05
2.62747e-05
2.63421e-05
2.6433e-05
2.65403e-05
2.66464e-05
2.67447e-05
2.69544e-05
2.69184e-05
2.68619e-05
2.68175e-05
2.67917e-05
2.67804e-05
2.67765e-05
2.67746e-05
2.67726e-05
2.67701e-05
2.67678e-05
2.67668e-05
2.67678e-05
2.67709e-05
2.67747e-05
2.67764e-05
2.6773e-05
2.67619e-05
2.67418e-05
2.67128e-05
2.3262e-05
2.1629e-05
2.19806e-05
2.23164e-05
2.26353e-05
2.29366e-05
2.32201e-05
2.3486e-05
2.37355e-05
2.39703e-05
2.41926e-05
2.44052e-05
2.46107e-05
2.48119e-05
2.50107e-05
2.52079e-05
2.54018e-05
2.55883e-05
2.57605e-05
2.591e-05
2.60297e-05
2.61172e-05
2.61779e-05
2.62248e-05
2.62752e-05
2.63438e-05
2.64358e-05
2.65438e-05
2.665e-05
2.67477e-05
2.69557e-05
2.69187e-05
2.68619e-05
2.68174e-05
2.67918e-05
2.67809e-05
2.67772e-05
2.67756e-05
2.6774e-05
2.67719e-05
2.67701e-05
2.67697e-05
2.67715e-05
2.67755e-05
2.67802e-05
2.6783e-05
2.67808e-05
2.67708e-05
2.67522e-05
2.67248e-05
2.32757e-05
2.16405e-05
2.19919e-05
2.23273e-05
2.26458e-05
2.29467e-05
2.32297e-05
2.34952e-05
2.37442e-05
2.39786e-05
2.42005e-05
2.44125e-05
2.46176e-05
2.48182e-05
2.50165e-05
2.5213e-05
2.54062e-05
2.55918e-05
2.5763e-05
2.59114e-05
2.60302e-05
2.6117e-05
2.61775e-05
2.62247e-05
2.62759e-05
2.63457e-05
2.64388e-05
2.65476e-05
2.66538e-05
2.6751e-05
2.69572e-05
2.69194e-05
2.68621e-05
2.68175e-05
2.67922e-05
2.67815e-05
2.67781e-05
2.67769e-05
2.67755e-05
2.67738e-05
2.67725e-05
2.67727e-05
2.67752e-05
2.67801e-05
2.67858e-05
2.67896e-05
2.67884e-05
2.67797e-05
2.67624e-05
2.67366e-05
2.32896e-05
2.16521e-05
2.20033e-05
2.23384e-05
2.26565e-05
2.2957e-05
2.32396e-05
2.35046e-05
2.37532e-05
2.39871e-05
2.42085e-05
2.44201e-05
2.46246e-05
2.48247e-05
2.50224e-05
2.52182e-05
2.54106e-05
2.55953e-05
2.57655e-05
2.59129e-05
2.60306e-05
2.61168e-05
2.61771e-05
2.62247e-05
2.62768e-05
2.63478e-05
2.6442e-05
2.65515e-05
2.66578e-05
2.67545e-05
2.69589e-05
2.69203e-05
2.68625e-05
2.68179e-05
2.67927e-05
2.67823e-05
2.67793e-05
2.67783e-05
2.67772e-05
2.67759e-05
2.6775e-05
2.67758e-05
2.6779e-05
2.67847e-05
2.67912e-05
2.6796e-05
2.67958e-05
2.67882e-05
2.67722e-05
2.67479e-05
2.33036e-05
2.16638e-05
2.20149e-05
2.23497e-05
2.26675e-05
2.29676e-05
2.32497e-05
2.35144e-05
2.37625e-05
2.39959e-05
2.42168e-05
2.44278e-05
2.46317e-05
2.48312e-05
2.50283e-05
2.52234e-05
2.54149e-05
2.55987e-05
2.57679e-05
2.59142e-05
2.60311e-05
2.61167e-05
2.61768e-05
2.62248e-05
2.62779e-05
2.635e-05
2.64455e-05
2.65557e-05
2.6662e-05
2.67582e-05
2.69609e-05
2.69214e-05
2.68632e-05
2.68185e-05
2.67935e-05
2.67833e-05
2.67805e-05
2.67799e-05
2.67791e-05
2.67781e-05
2.67776e-05
2.67789e-05
2.67828e-05
2.67892e-05
2.67966e-05
2.68022e-05
2.68029e-05
2.67964e-05
2.67816e-05
2.67587e-05
2.33178e-05
2.16758e-05
2.20268e-05
2.23614e-05
2.26788e-05
2.29785e-05
2.32602e-05
2.35243e-05
2.3772e-05
2.40049e-05
2.42252e-05
2.44357e-05
2.4639e-05
2.48379e-05
2.50342e-05
2.52285e-05
2.54193e-05
2.56021e-05
2.57702e-05
2.59155e-05
2.60315e-05
2.61165e-05
2.61765e-05
2.62251e-05
2.62791e-05
2.63525e-05
2.64491e-05
2.656e-05
2.66665e-05
2.67621e-05
2.69631e-05
2.69228e-05
2.6864e-05
2.68193e-05
2.67944e-05
2.67845e-05
2.6782e-05
2.67816e-05
2.67811e-05
2.67804e-05
2.67803e-05
2.67821e-05
2.67865e-05
2.67936e-05
2.68017e-05
2.68081e-05
2.68097e-05
2.68042e-05
2.67905e-05
2.67689e-05
2.33322e-05
2.16881e-05
2.20391e-05
2.23735e-05
2.26905e-05
2.29897e-05
2.3271e-05
2.35346e-05
2.37817e-05
2.40141e-05
2.42339e-05
2.44437e-05
2.46464e-05
2.48446e-05
2.50401e-05
2.52337e-05
2.54235e-05
2.56053e-05
2.57724e-05
2.59167e-05
2.60318e-05
2.61163e-05
2.61763e-05
2.62254e-05
2.62805e-05
2.63551e-05
2.64529e-05
2.65646e-05
2.66711e-05
2.67663e-05
2.69656e-05
2.69244e-05
2.68651e-05
2.68202e-05
2.67955e-05
2.67858e-05
2.67836e-05
2.67834e-05
2.67831e-05
2.67827e-05
2.6783e-05
2.67852e-05
2.67902e-05
2.67978e-05
2.68066e-05
2.68137e-05
2.68161e-05
2.68114e-05
2.67988e-05
2.67785e-05
2.3347e-05
2.17007e-05
2.20517e-05
2.23858e-05
2.27025e-05
2.30013e-05
2.3282e-05
2.35451e-05
2.37917e-05
2.40234e-05
2.42426e-05
2.44518e-05
2.46538e-05
2.48513e-05
2.50461e-05
2.52387e-05
2.54276e-05
2.56085e-05
2.57745e-05
2.59177e-05
2.6032e-05
2.61161e-05
2.61761e-05
2.62258e-05
2.6282e-05
2.63579e-05
2.64569e-05
2.65693e-05
2.6676e-05
2.67706e-05
2.69682e-05
2.69262e-05
2.68664e-05
2.68214e-05
2.67967e-05
2.67873e-05
2.67853e-05
2.67853e-05
2.67853e-05
2.67851e-05
2.67856e-05
2.67882e-05
2.67937e-05
2.68019e-05
2.68112e-05
2.68189e-05
2.6822e-05
2.68181e-05
2.68064e-05
2.67872e-05
2.33619e-05
2.17136e-05
2.20646e-05
2.23985e-05
2.27147e-05
2.3013e-05
2.32932e-05
2.35557e-05
2.38017e-05
2.40329e-05
2.42514e-05
2.446e-05
2.46613e-05
2.4858e-05
2.5052e-05
2.52438e-05
2.54317e-05
2.56115e-05
2.57764e-05
2.59187e-05
2.60322e-05
2.61158e-05
2.6176e-05
2.62263e-05
2.62836e-05
2.63609e-05
2.6461e-05
2.65742e-05
2.66811e-05
2.67752e-05
2.69711e-05
2.69282e-05
2.68679e-05
2.68227e-05
2.67981e-05
2.67889e-05
2.67871e-05
2.67873e-05
2.67875e-05
2.67875e-05
2.67883e-05
2.67912e-05
2.6797e-05
2.68056e-05
2.68155e-05
2.68237e-05
2.68273e-05
2.68241e-05
2.68132e-05
2.6795e-05
2.33771e-05
2.17266e-05
2.20776e-05
2.24113e-05
2.27271e-05
2.30248e-05
2.33044e-05
2.35664e-05
2.38118e-05
2.40424e-05
2.42603e-05
2.44682e-05
2.46688e-05
2.48647e-05
2.50578e-05
2.52487e-05
2.54356e-05
2.56143e-05
2.57782e-05
2.59195e-05
2.60323e-05
2.61155e-05
2.61758e-05
2.62269e-05
2.62853e-05
2.6364e-05
2.64654e-05
2.65793e-05
2.66863e-05
2.678e-05
2.69742e-05
2.69305e-05
2.68696e-05
2.68242e-05
2.67997e-05
2.67906e-05
2.6789e-05
2.67894e-05
2.67897e-05
2.67898e-05
2.67909e-05
2.6794e-05
2.68002e-05
2.68091e-05
2.68193e-05
2.6828e-05
2.6832e-05
2.68293e-05
2.68191e-05
2.68017e-05
2.33922e-05
2.17396e-05
2.20907e-05
2.24241e-05
2.27395e-05
2.30367e-05
2.33157e-05
2.3577e-05
2.38219e-05
2.40518e-05
2.42691e-05
2.44763e-05
2.46762e-05
2.48713e-05
2.50636e-05
2.52535e-05
2.54394e-05
2.56171e-05
2.57798e-05
2.59202e-05
2.60322e-05
2.61152e-05
2.61757e-05
2.62276e-05
2.62872e-05
2.63672e-05
2.64698e-05
2.65846e-05
2.66917e-05
2.67849e-05
2.69775e-05
2.69329e-05
2.68715e-05
2.68258e-05
2.68013e-05
2.67924e-05
2.6791e-05
2.67915e-05
2.67919e-05
2.67922e-05
2.67934e-05
2.67967e-05
2.68031e-05
2.68123e-05
2.68228e-05
2.68317e-05
2.68361e-05
2.68337e-05
2.6824e-05
2.68073e-05
2.34074e-05
2.17527e-05
2.21038e-05
2.24369e-05
2.27519e-05
2.30485e-05
2.33269e-05
2.35876e-05
2.38319e-05
2.40613e-05
2.42779e-05
2.44844e-05
2.46836e-05
2.48779e-05
2.50693e-05
2.52582e-05
2.5443e-05
2.56196e-05
2.57813e-05
2.59207e-05
2.60321e-05
2.61148e-05
2.61756e-05
2.62283e-05
2.62891e-05
2.63706e-05
2.64745e-05
2.659e-05
2.66973e-05
2.67901e-05
2.6981e-05
2.69355e-05
2.68735e-05
2.68276e-05
2.68031e-05
2.67943e-05
2.6793e-05
2.67937e-05
2.67942e-05
2.67946e-05
2.67958e-05
2.67993e-05
2.68058e-05
2.68152e-05
2.68258e-05
2.68349e-05
2.68394e-05
2.68372e-05
2.68278e-05
2.68115e-05
2.34225e-05
2.17657e-05
2.21168e-05
2.24497e-05
2.27642e-05
2.30602e-05
2.3338e-05
2.35982e-05
2.38419e-05
2.40706e-05
2.42867e-05
2.44925e-05
2.46909e-05
2.48844e-05
2.50748e-05
2.52628e-05
2.54465e-05
2.5622e-05
2.57826e-05
2.59211e-05
2.60318e-05
2.61143e-05
2.61755e-05
2.6229e-05
2.62912e-05
2.63741e-05
2.64793e-05
2.65956e-05
2.67031e-05
2.67954e-05
2.69847e-05
2.69384e-05
2.68757e-05
2.68296e-05
2.68051e-05
2.67964e-05
2.67952e-05
2.6796e-05
2.67965e-05
2.67969e-05
2.67982e-05
2.68017e-05
2.68083e-05
2.68177e-05
2.68284e-05
2.68375e-05
2.68419e-05
2.68398e-05
2.68304e-05
2.68144e-05
2.34375e-05
2.17785e-05
2.21297e-05
2.24623e-05
2.27764e-05
2.30719e-05
2.33491e-05
2.36087e-05
2.38518e-05
2.408e-05
2.42954e-05
2.45005e-05
2.46981e-05
2.48908e-05
2.50803e-05
2.52672e-05
2.54499e-05
2.56242e-05
2.57838e-05
2.59213e-05
2.60315e-05
2.61138e-05
2.61754e-05
2.62299e-05
2.62934e-05
2.63777e-05
2.64842e-05
2.66014e-05
2.6709e-05
2.68009e-05
2.69886e-05
2.69414e-05
2.68781e-05
2.68317e-05
2.68071e-05
2.67985e-05
2.67975e-05
2.67983e-05
2.67989e-05
2.67993e-05
2.68005e-05
2.6804e-05
2.68105e-05
2.68199e-05
2.68305e-05
2.68394e-05
2.68437e-05
2.68414e-05
2.68319e-05
2.68157e-05
2.34524e-05
2.17913e-05
2.21425e-05
2.24749e-05
2.27885e-05
2.30835e-05
2.33602e-05
2.36192e-05
2.38617e-05
2.40893e-05
2.4304e-05
2.45085e-05
2.47053e-05
2.48971e-05
2.50856e-05
2.52715e-05
2.5453e-05
2.56262e-05
2.57847e-05
2.59214e-05
2.6031e-05
2.61133e-05
2.61753e-05
2.62308e-05
2.62957e-05
2.63815e-05
2.64893e-05
2.66073e-05
2.67151e-05
2.68067e-05
2.69927e-05
2.69447e-05
2.68807e-05
2.68339e-05
2.68093e-05
2.68008e-05
2.67998e-05
2.68007e-05
2.68013e-05
2.68016e-05
2.68028e-05
2.68061e-05
2.68125e-05
2.68218e-05
2.68321e-05
2.68408e-05
2.68447e-05
2.68419e-05
2.6832e-05
2.68154e-05
2.34671e-05
2.1804e-05
2.21551e-05
2.24873e-05
2.28006e-05
2.30951e-05
2.33712e-05
2.36297e-05
2.38716e-05
2.40985e-05
2.43127e-05
2.45164e-05
2.47124e-05
2.49033e-05
2.50909e-05
2.52756e-05
2.54561e-05
2.56281e-05
2.57855e-05
2.59214e-05
2.60304e-05
2.61127e-05
2.61753e-05
2.62318e-05
2.62981e-05
2.63854e-05
2.64945e-05
2.66133e-05
2.67214e-05
2.68125e-05
2.6997e-05
2.69481e-05
2.68835e-05
2.68364e-05
2.68117e-05
2.68032e-05
2.68023e-05
2.68032e-05
2.68038e-05
2.6804e-05
2.6805e-05
2.68082e-05
2.68144e-05
2.68233e-05
2.68333e-05
2.68415e-05
2.68449e-05
2.68415e-05
2.68308e-05
2.68135e-05
2.34818e-05
2.18165e-05
2.21677e-05
2.24997e-05
2.28126e-05
2.31066e-05
2.33822e-05
2.36401e-05
2.38814e-05
2.41078e-05
2.43212e-05
2.45242e-05
2.47194e-05
2.49094e-05
2.5096e-05
2.52797e-05
2.54589e-05
2.56298e-05
2.57862e-05
2.59212e-05
2.60298e-05
2.61121e-05
2.61753e-05
2.62329e-05
2.63006e-05
2.63894e-05
2.64998e-05
2.66195e-05
2.67278e-05
2.68186e-05
2.70015e-05
2.69518e-05
2.68865e-05
2.6839e-05
2.68142e-05
2.68057e-05
2.68049e-05
2.68058e-05
2.68063e-05
2.68064e-05
2.68072e-05
2.68101e-05
2.6816e-05
2.68246e-05
2.68342e-05
2.68417e-05
2.68443e-05
2.684e-05
2.68283e-05
2.68099e-05
2.34962e-05
2.18289e-05
2.21801e-05
2.25119e-05
2.28245e-05
2.31181e-05
2.33932e-05
2.36505e-05
2.38912e-05
2.4117e-05
2.43297e-05
2.4532e-05
2.47264e-05
2.49154e-05
2.5101e-05
2.52836e-05
2.54617e-05
2.56314e-05
2.57867e-05
2.59209e-05
2.60291e-05
2.61115e-05
2.61754e-05
2.62341e-05
2.63032e-05
2.63936e-05
2.65052e-05
2.66258e-05
2.67344e-05
2.68249e-05
2.70062e-05
2.69556e-05
2.68897e-05
2.68418e-05
2.68169e-05
2.68084e-05
2.68076e-05
2.68085e-05
2.68089e-05
2.68089e-05
2.68095e-05
2.68121e-05
2.68176e-05
2.68257e-05
2.68346e-05
2.68414e-05
2.6843e-05
2.68376e-05
2.68246e-05
2.68046e-05
2.35105e-05
2.18411e-05
2.21923e-05
2.2524e-05
2.28363e-05
2.31294e-05
2.3404e-05
2.36608e-05
2.3901e-05
2.41261e-05
2.43382e-05
2.45397e-05
2.47332e-05
2.49214e-05
2.51059e-05
2.52873e-05
2.54643e-05
2.56328e-05
2.57871e-05
2.59205e-05
2.60284e-05
2.61109e-05
2.61755e-05
2.62354e-05
2.6306e-05
2.63978e-05
2.65108e-05
2.66322e-05
2.67411e-05
2.68313e-05
2.70111e-05
2.69597e-05
2.68931e-05
2.68448e-05
2.68197e-05
2.68112e-05
2.68105e-05
2.68114e-05
2.68117e-05
2.68115e-05
2.68118e-05
2.6814e-05
2.68191e-05
2.68266e-05
2.68348e-05
2.68406e-05
2.68411e-05
2.68343e-05
2.68196e-05
2.67977e-05
2.35245e-05
2.1853e-05
2.22043e-05
2.25359e-05
2.28479e-05
2.31406e-05
2.34147e-05
2.3671e-05
2.39106e-05
2.41351e-05
2.43465e-05
2.45473e-05
2.474e-05
2.49272e-05
2.51106e-05
2.5291e-05
2.54667e-05
2.56341e-05
2.57874e-05
2.59201e-05
2.60276e-05
2.61104e-05
2.61756e-05
2.62367e-05
2.63088e-05
2.64022e-05
2.65164e-05
2.66387e-05
2.67479e-05
2.68378e-05
2.70162e-05
2.6964e-05
2.68967e-05
2.68479e-05
2.68227e-05
2.68143e-05
2.68135e-05
2.68145e-05
2.68147e-05
2.68142e-05
2.68142e-05
2.6816e-05
2.68206e-05
2.68274e-05
2.68347e-05
2.68395e-05
2.68387e-05
2.68302e-05
2.68136e-05
2.67893e-05
2.35382e-05
2.18647e-05
2.22161e-05
2.25475e-05
2.28592e-05
2.31516e-05
2.34253e-05
2.3681e-05
2.39201e-05
2.4144e-05
2.43547e-05
2.45547e-05
2.47466e-05
2.49328e-05
2.51153e-05
2.52945e-05
2.5469e-05
2.56353e-05
2.57876e-05
2.59196e-05
2.60268e-05
2.61098e-05
2.61759e-05
2.62382e-05
2.63117e-05
2.64066e-05
2.65222e-05
2.66453e-05
2.67548e-05
2.68446e-05
2.70215e-05
2.69685e-05
2.69005e-05
2.68513e-05
2.68259e-05
2.68175e-05
2.68168e-05
2.68177e-05
2.68178e-05
2.68171e-05
2.68168e-05
2.68182e-05
2.68221e-05
2.68282e-05
2.68346e-05
2.68381e-05
2.68358e-05
2.68255e-05
2.68066e-05
2.67796e-05
2.35515e-05
2.18762e-05
2.22276e-05
2.25589e-05
2.28704e-05
2.31624e-05
2.34356e-05
2.36909e-05
2.39294e-05
2.41527e-05
2.43628e-05
2.4562e-05
2.47531e-05
2.49384e-05
2.51198e-05
2.52978e-05
2.54712e-05
2.56364e-05
2.57877e-05
2.5919e-05
2.6026e-05
2.61093e-05
2.61762e-05
2.62397e-05
2.63148e-05
2.64111e-05
2.6528e-05
2.6652e-05
2.67619e-05
2.68514e-05
2.7027e-05
2.69733e-05
2.69046e-05
2.68549e-05
2.68294e-05
2.68209e-05
2.68203e-05
2.68212e-05
2.68212e-05
2.68203e-05
2.68196e-05
2.68205e-05
2.68238e-05
2.68291e-05
2.68344e-05
2.68367e-05
2.68327e-05
2.68203e-05
2.67988e-05
2.67688e-05
2.35645e-05
2.18873e-05
2.22388e-05
2.257e-05
2.28812e-05
2.31729e-05
2.34457e-05
2.37005e-05
2.39385e-05
2.41612e-05
2.43706e-05
2.45692e-05
2.47594e-05
2.49438e-05
2.51241e-05
2.53011e-05
2.54733e-05
2.56374e-05
2.57877e-05
2.59184e-05
2.60252e-05
2.61088e-05
2.61765e-05
2.62414e-05
2.63179e-05
2.64157e-05
2.65338e-05
2.66588e-05
2.6769e-05
2.68584e-05
2.70328e-05
2.69783e-05
2.69089e-05
2.68588e-05
2.68331e-05
2.68246e-05
2.68241e-05
2.6825e-05
2.68249e-05
2.68238e-05
2.68227e-05
2.68231e-05
2.68258e-05
2.68302e-05
2.68344e-05
2.68353e-05
2.68295e-05
2.68149e-05
2.67906e-05
2.67571e-05
2.3577e-05
2.1898e-05
2.22496e-05
2.25807e-05
2.28917e-05
2.31831e-05
2.34555e-05
2.37099e-05
2.39473e-05
2.41695e-05
2.43783e-05
2.45761e-05
2.47656e-05
2.4949e-05
2.51284e-05
2.53042e-05
2.54753e-05
2.56382e-05
2.57877e-05
2.59178e-05
2.60244e-05
2.61084e-05
2.6177e-05
2.62431e-05
2.63211e-05
2.64204e-05
2.65398e-05
2.66656e-05
2.67763e-05
2.68656e-05
2.70387e-05
2.69835e-05
2.69134e-05
2.68629e-05
2.6837e-05
2.68286e-05
2.68281e-05
2.68291e-05
2.68289e-05
2.68276e-05
2.68262e-05
2.68261e-05
2.68281e-05
2.68316e-05
2.68347e-05
2.68341e-05
2.68265e-05
2.68095e-05
2.67823e-05
2.6745e-05
2.3589e-05
2.19083e-05
2.226e-05
2.2591e-05
2.29019e-05
2.3193e-05
2.3465e-05
2.3719e-05
2.39559e-05
2.41775e-05
2.43857e-05
2.45829e-05
2.47715e-05
2.49541e-05
2.51324e-05
2.53072e-05
2.54772e-05
2.5639e-05
2.57876e-05
2.59171e-05
2.60237e-05
2.61081e-05
2.61775e-05
2.62449e-05
2.63243e-05
2.64251e-05
2.65457e-05
2.66724e-05
2.67836e-05
2.68729e-05
2.70447e-05
2.69889e-05
2.69182e-05
2.68673e-05
2.68412e-05
2.68329e-05
2.68325e-05
2.68335e-05
2.68333e-05
2.68318e-05
2.68301e-05
2.68295e-05
2.68308e-05
2.68335e-05
2.68354e-05
2.68334e-05
2.68239e-05
2.68044e-05
2.67741e-05
2.67328e-05
2.36005e-05
2.19182e-05
2.22699e-05
2.26009e-05
2.29116e-05
2.32025e-05
2.34742e-05
2.37277e-05
2.39642e-05
2.41853e-05
2.43929e-05
2.45894e-05
2.47773e-05
2.4959e-05
2.51364e-05
2.53101e-05
2.5479e-05
2.56398e-05
2.57875e-05
2.59164e-05
2.60229e-05
2.61078e-05
2.61781e-05
2.62467e-05
2.63276e-05
2.64298e-05
2.65516e-05
2.66793e-05
2.67909e-05
2.68802e-05
2.7051e-05
2.69946e-05
2.69232e-05
2.68719e-05
2.68457e-05
2.68374e-05
2.68372e-05
2.68384e-05
2.68382e-05
2.68365e-05
2.68345e-05
2.68335e-05
2.68342e-05
2.6836e-05
2.68368e-05
2.68333e-05
2.68219e-05
2.68e-05
2.67665e-05
2.67211e-05
2.36115e-05
2.19276e-05
2.22794e-05
2.26104e-05
2.29209e-05
2.32115e-05
2.3483e-05
2.37361e-05
2.39722e-05
2.41928e-05
2.43999e-05
2.45957e-05
2.47829e-05
2.49637e-05
2.51402e-05
2.53128e-05
2.54806e-05
2.56405e-05
2.57873e-05
2.59158e-05
2.60222e-05
2.61075e-05
2.61788e-05
2.62487e-05
2.63309e-05
2.64345e-05
2.65576e-05
2.66862e-05
2.67983e-05
2.68877e-05
2.70574e-05
2.70005e-05
2.69285e-05
2.68768e-05
2.68505e-05
2.68424e-05
2.68423e-05
2.68436e-05
2.68435e-05
2.68418e-05
2.68395e-05
2.68381e-05
2.68382e-05
2.68392e-05
2.68389e-05
2.6834e-05
2.68208e-05
2.67965e-05
2.67598e-05
2.67104e-05
2.36219e-05
2.19365e-05
2.22885e-05
2.26194e-05
2.29298e-05
2.32202e-05
2.34914e-05
2.37442e-05
2.39799e-05
2.42e-05
2.44066e-05
2.46018e-05
2.47883e-05
2.49683e-05
2.51438e-05
2.53155e-05
2.54822e-05
2.56411e-05
2.57871e-05
2.59151e-05
2.60215e-05
2.61073e-05
2.61795e-05
2.62506e-05
2.63343e-05
2.64392e-05
2.65635e-05
2.6693e-05
2.68057e-05
2.68953e-05
2.7064e-05
2.70066e-05
2.69341e-05
2.6882e-05
2.68557e-05
2.68476e-05
2.68478e-05
2.68494e-05
2.68493e-05
2.68476e-05
2.68452e-05
2.68435e-05
2.6843e-05
2.68433e-05
2.68421e-05
2.68359e-05
2.68209e-05
2.67943e-05
2.67546e-05
2.67012e-05
2.36316e-05
2.19449e-05
2.2297e-05
2.2628e-05
2.29383e-05
2.32285e-05
2.34994e-05
2.37519e-05
2.39872e-05
2.42069e-05
2.4413e-05
2.46076e-05
2.47934e-05
2.49727e-05
2.51473e-05
2.5318e-05
2.54837e-05
2.56416e-05
2.57869e-05
2.59144e-05
2.60208e-05
2.61071e-05
2.61802e-05
2.62526e-05
2.63376e-05
2.64439e-05
2.65694e-05
2.66998e-05
2.68132e-05
2.69029e-05
2.70708e-05
2.70129e-05
2.69399e-05
2.68876e-05
2.68611e-05
2.68533e-05
2.68538e-05
2.68556e-05
2.68558e-05
2.68541e-05
2.68517e-05
2.68497e-05
2.68488e-05
2.68485e-05
2.68464e-05
2.6839e-05
2.68225e-05
2.67938e-05
2.67512e-05
2.6694e-05
2.36407e-05
2.19528e-05
2.2305e-05
2.2636e-05
2.29462e-05
2.32363e-05
2.3507e-05
2.37592e-05
2.39942e-05
2.42135e-05
2.44191e-05
2.46132e-05
2.47984e-05
2.49769e-05
2.51506e-05
2.53204e-05
2.54852e-05
2.56421e-05
2.57867e-05
2.59138e-05
2.60202e-05
2.61069e-05
2.6181e-05
2.62545e-05
2.63409e-05
2.64485e-05
2.65752e-05
2.67066e-05
2.68206e-05
2.69105e-05
2.70777e-05
2.70194e-05
2.69461e-05
2.68934e-05
2.6867e-05
2.68594e-05
2.68602e-05
2.68624e-05
2.68628e-05
2.68613e-05
2.68589e-05
2.68568e-05
2.68556e-05
2.68548e-05
2.6852e-05
2.68437e-05
2.68258e-05
2.67953e-05
2.67501e-05
2.66895e-05
2.36493e-05
2.19602e-05
2.23126e-05
2.26436e-05
2.29538e-05
2.32437e-05
2.35142e-05
2.37661e-05
2.40008e-05
2.42198e-05
2.44249e-05
2.46185e-05
2.48031e-05
2.49809e-05
2.51538e-05
2.53227e-05
2.54865e-05
2.56426e-05
2.57864e-05
2.59131e-05
2.60195e-05
2.61068e-05
2.61817e-05
2.62565e-05
2.63442e-05
2.64531e-05
2.65809e-05
2.67133e-05
2.68279e-05
2.69182e-05
2.70847e-05
2.70262e-05
2.69524e-05
2.68996e-05
2.68732e-05
2.68658e-05
2.68671e-05
2.68698e-05
2.68706e-05
2.68693e-05
2.6867e-05
2.68649e-05
2.68636e-05
2.68625e-05
2.68592e-05
2.68501e-05
2.68312e-05
2.67992e-05
2.67519e-05
2.66882e-05
2.36572e-05
2.19671e-05
2.23197e-05
2.26508e-05
2.29609e-05
2.32507e-05
2.3521e-05
2.37727e-05
2.40071e-05
2.42257e-05
2.44305e-05
2.46236e-05
2.48076e-05
2.49847e-05
2.51569e-05
2.53248e-05
2.54878e-05
2.5643e-05
2.57861e-05
2.59124e-05
2.60189e-05
2.61066e-05
2.61825e-05
2.62584e-05
2.63474e-05
2.64575e-05
2.65866e-05
2.67199e-05
2.68353e-05
2.69259e-05
2.70918e-05
2.70331e-05
2.69591e-05
2.6906e-05
2.68797e-05
2.68728e-05
2.68746e-05
2.68777e-05
2.6879e-05
2.68781e-05
2.68761e-05
2.68741e-05
2.68728e-05
2.68716e-05
2.6868e-05
2.68585e-05
2.68389e-05
2.68057e-05
2.67568e-05
2.66906e-05
2.36645e-05
2.19735e-05
2.23262e-05
2.26574e-05
2.29675e-05
2.32573e-05
2.35274e-05
2.37789e-05
2.40131e-05
2.42314e-05
2.44358e-05
2.46285e-05
2.48119e-05
2.49884e-05
2.51598e-05
2.53269e-05