/*--------------------------------*- C++ -*----------------------------------*\
  =========                 |
  \\      /  F ield         | OpenFOAM: The Open Source CFD Toolbox
   \\    /   O peration     | Website:  https://openfoam.org
    \\  /    A nd           | Version:  9
     \\/     M anipulation  |
\*---------------------------------------------------------------------------*/
FoamFile
{
    format      ascii;
    class       surfaceVectorField;
    location    "0.1";
    object      Uf;
}
// * * * * * * * * * * * * * * * * * * * * * * * * * * * * * * * * * * * * * //

dimensions      [0 1 -1 0 0 0 0];

internalField   nonuniform List<vector> 
9850
(
(-0.0633835 0 0.0312588)
(-0.0628755 0 0.0233398)
(-0.0635207 0 0.0459743)
(-0.0630217 0 0.0398956)
(-0.0637167 0 0.0577153)
(-0.0631677 0 0.0528579)
(-0.0639642 0 0.0676023)
(-0.0633891 0 0.063458)
(-0.0642582 0 0.0764572)
(-0.063659 0 0.0727056)
(-0.0645958 0 0.0847486)
(-0.0639729 0 0.0812346)
(-0.0649762 0 0.0926549)
(-0.0643295 0 0.0893483)
(-0.0653987 0 0.100136)
(-0.0647285 0 0.0970981)
(-0.0658618 0 0.106991)
(-0.0651693 0 0.104349)
(-0.0663608 0 0.112892)
(-0.065649 0 0.110826)
(-0.0668876 0 0.11741)
(-0.0661616 0 0.116141)
(-0.0674292 0 0.120036)
(-0.0666965 0 0.119815)
(-0.067969 0 0.120231)
(-0.0672389 0 0.121306)
(-0.0684892 0 0.11751)
(-0.0677709 0 0.120075)
(-0.0689754 0 0.111593)
(-0.0682751 0 0.115702)
(-0.0694249 0 0.1026)
(-0.0687415 0 0.108067)
(-0.0698561 0 0.091283)
(-0.0691762 0 0.0975738)
(-0.0703167 0 0.079171)
(-0.0696115 0 0.0853695)
(-0.0708855 0 0.0685291)
(-0.0701119 0 0.0734237)
(-0.0716616 0 0.0619713)
(-0.0707706 0 0.0643323)
(-0.0727385 0 0.0616984)
(-0.0716909 0 0.0607211)
(-0.074167 0 0.0685293)
(-0.0729522 0 0.0642991)
(-0.075922 0 0.0811434)
(-0.0745704 0 0.0748706)
(-0.0778918 0 0.0960621)
(-0.076472 0 0.0898434)
(-0.079907 0 0.108678)
(-0.0785019 0 0.104745)
(-0.0818037 0 0.115087)
(-0.0804741 0 0.114821)
(-0.0835014 0 0.113904)
(-0.0822506 0 0.117129)
(-0.0850554 0 0.107048)
(-0.0838145 0 0.112037)
(-0.0866571 0 0.0989323)
(-0.0853058 0 0.10321)
(-0.0885668 0 0.0944089)
(-0.0869665 0 0.0959203)
(-0.0914556 0 0.0965986)
(-0.0892599 0 0.0944485)
(-0.0949731 0 0.104797)
(-0.0924505 0 0.100856)
(-0.0989396 0 0.114343)
(-0.0962185 0 0.1112)
(-0.103154 0 0.121228)
(-0.100301 0 0.120178)
(-0.107514 0 0.124202)
(-0.104543 0 0.125101)
(-0.112022 0 0.124144)
(-0.108901 0 0.126226)
(-0.116734 0 0.122512)
(-0.113422 0 0.125102)
(-0.121709 0 0.120391)
(-0.118166 0 0.123116)
(-0.126994 0 0.118313)
(-0.123188 0 0.121041)
(-0.13262 0 0.116431)
(-0.128527 0 0.119162)
(-0.138606 0 0.114686)
(-0.134207 0 0.117488)
(-0.144958 0 0.112936)
(-0.140237 0 0.11589)
(-0.151686 0 0.111084)
(-0.146616 0 0.114216)
(-0.158811 0 0.109226)
(-0.153345 0 0.112433)
(-0.166385 0 0.107769)
(-0.160444 0 0.110775)
(-0.174495 0 0.107463)
(-0.167972 0 0.109836)
(-0.18325 0 0.109268)
(-0.176031 0 0.110525)
(-0.192752 0 0.114111)
(-0.184739 0 0.113855)
(-0.203075 0 0.122664)
(-0.19418 0 0.120659)
(-0.204368 0 0.131433)
(-0.0625117 0 0.0315809)
(-0.0619774 0 0.0235633)
(-0.0626445 0 0.0464695)
(-0.0621206 0 0.0403089)
(-0.0628355 0 0.0583472)
(-0.0622603 0 0.0534243)
(-0.0630778 0 0.0683401)
(-0.0624764 0 0.0641432)
(-0.0633663 0 0.077279)
(-0.062741 0 0.0734834)
(-0.0636982 0 0.0856402)
(-0.0630492 0 0.0820875)
(-0.0640724 0 0.0936061)
(-0.0633997 0 0.0902652)
(-0.0644886 0 0.101137)
(-0.0637923 0 0.09807)
(-0.064945 0 0.108029)
(-0.0642264 0 0.105365)
(-0.0654373 0 0.113948)
(-0.0646992 0 0.111871)
(-0.0659574 0 0.118459)
(-0.0652049 0 0.117194)
(-0.0664928 0 0.12105)
(-0.0657333 0 0.120848)
(-0.0670274 0 0.12118)
(-0.0662697 0 0.122289)
(-0.0675439 0 0.118371)
(-0.0667971 0 0.120981)
(-0.0680292 0 0.112358)
(-0.067299 0 0.116513)
(-0.0684819 0 0.10329)
(-0.0677666 0 0.108788)
(-0.0689213 0 0.0919515)
(-0.0682072 0 0.0982412)
(-0.0693958 0 0.079907)
(-0.0686541 0 0.0860565)
(-0.0699835 0 0.0694433)
(-0.0691716 0 0.0742348)
(-0.0707811 0 0.0631675)
(-0.0698516 0 0.0653819)
(-0.071878 0 0.0632352)
(-0.0707938 0 0.0620972)
(-0.07332 0 0.0703864)
(-0.0720726 0 0.0660236)
(-0.0750767 0 0.0832112)
(-0.0736986 0 0.0768733)
(-0.0770336 0 0.0981679)
(-0.0755939 0 0.0919702)
(-0.0790206 0 0.110645)
(-0.0776017 0 0.106803)
(-0.0808772 0 0.116806)
(-0.0795377 0 0.116655)
(-0.0825274 0 0.115381)
(-0.0812682 0 0.118683)
(-0.0840315 0 0.108409)
(-0.0827815 0 0.113387)
(-0.0855833 0 0.100372)
(-0.0842218 0 0.104538)
(-0.0874418 0 0.0961084)
(-0.0858315 0 0.0974365)
(-0.0902637 0 0.0987075)
(-0.0880655 0 0.0963296)
(-0.0937034 0 0.107262)
(-0.0911824 0 0.103149)
(-0.0975784 0 0.117038)
(-0.0948624 0 0.113784)
(-0.101687 0 0.124053)
(-0.0988423 0 0.122917)
(-0.105929 0 0.127125)
(-0.10297 0 0.127928)
(-0.110305 0 0.127181)
(-0.107201 0 0.129144)
(-0.114866 0 0.1257)
(-0.111578 0 0.128143)
(-0.119669 0 0.123759)
(-0.116161 0 0.126318)
(-0.124756 0 0.121882)
(-0.120998 0 0.124432)
(-0.130153 0 0.120213)
(-0.126122 0 0.12276)
(-0.135872 0 0.118689)
(-0.131552 0 0.121301)
(-0.141915 0 0.117169)
(-0.137289 0 0.119918)
(-0.14828 0 0.115564)
(-0.143327 0 0.11846)
(-0.154982 0 0.113979)
(-0.149659 0 0.1169)
(-0.162057 0 0.112836)
(-0.156296 0 0.115492)
(-0.169578 0 0.112891)
(-0.163286 0 0.114849)
(-0.177631 0 0.115106)
(-0.170709 0 0.115894)
(-0.18629 0 0.120398)
(-0.178657 0 0.119628)
(-0.19559 0 0.129427)
(-0.187184 0 0.126859)
(-0.196257 0 0.138047)
(-0.061583 0 0.0318911)
(-0.061024 0 0.0237763)
(-0.0617112 0 0.0469503)
(-0.0611638 0 0.0407077)
(-0.0618969 0 0.0589641)
(-0.061297 0 0.0539751)
(-0.0621337 0 0.0690631)
(-0.0615074 0 0.0648129)
(-0.0624165 0 0.078086)
(-0.0617661 0 0.0742458)
(-0.0627424 0 0.0865168)
(-0.0620682 0 0.082925)
(-0.0631103 0 0.0945423)
(-0.0624124 0 0.0911667)
(-0.0635198 0 0.102123)
(-0.0627984 0 0.0990264)
(-0.0639693 0 0.109051)
(-0.0632254 0 0.106366)
(-0.0644546 0 0.114989)
(-0.0636911 0 0.112901)
(-0.0649678 0 0.119495)
(-0.0641896 0 0.118232)
(-0.0654968 0 0.122052)
(-0.0647111 0 0.121868)
(-0.066026 0 0.122121)
(-0.0652416 0 0.123262)
(-0.0665392 0 0.119229)
(-0.0657646 0 0.12188)
(-0.0670243 0 0.113126)
(-0.0662647 0 0.117324)
(-0.0674808 0 0.10399)
(-0.0667342 0 0.109515)
(-0.0679294 0 0.0926368)
(-0.0671818 0 0.0989225)
(-0.0684187 0 0.0806665)
(-0.0676413 0 0.0867649)
(-0.0690259 0 0.0703848)
(-0.068177 0 0.075073)
(-0.0698452 0 0.0643902)
(-0.0688786 0 0.06646)
(-0.0709616 0 0.0647921)
(-0.0698425 0 0.0634977)
(-0.0724157 0 0.0722519)
(-0.0711378 0 0.0677624)
(-0.0741723 0 0.0852724)
(-0.0727698 0 0.078876)
(-0.076114 0 0.100252)
(-0.0746566 0 0.0940805)
(-0.0780711 0 0.112578)
(-0.0766401 0 0.108831)
(-0.0798858 0 0.118483)
(-0.0785379 0 0.118447)
(-0.0814871 0 0.116814)
(-0.0802207 0 0.120191)
(-0.0829398 0 0.109726)
(-0.0816823 0 0.114692)
(-0.0844396 0 0.101769)
(-0.0830701 0 0.105822)
(-0.0862437 0 0.0977642)
(-0.0846267 0 0.0989084)
(-0.0889934 0 0.100765)
(-0.0867977 0 0.0981627)
(-0.0923488 0 0.109666)
(-0.0898357 0 0.105386)
(-0.0961254 0 0.11966)
(-0.0934219 0 0.116301)
(-0.100123 0 0.126794)
(-0.097294 0 0.125582)
(-0.104241 0 0.129953)
(-0.101301 0 0.130674)
(-0.108479 0 0.130114)
(-0.105399 0 0.131969)
(-0.112886 0 0.12877)
(-0.109629 0 0.131081)
(-0.117513 0 0.126998)
(-0.114045 0 0.129402)
(-0.122397 0 0.125309)
(-0.118692 0 0.127688)
(-0.127558 0 0.123837)
(-0.123596 0 0.126201)
(-0.133001 0 0.122511)
(-0.12877 0 0.12493)
(-0.138722 0 0.121187)
(-0.134209 0 0.123732)
(-0.144713 0 0.119781)
(-0.139899 0 0.122454)
(-0.15098 0 0.118413)
(-0.145826 0 0.121078)
(-0.157553 0 0.117521)
(-0.151996 0 0.119873)
(-0.164484 0 0.117872)
(-0.158445 0 0.11947)
(-0.171839 0 0.120425)
(-0.165237 0 0.120797)
(-0.179662 0 0.126079)
(-0.172435 0 0.124843)
(-0.187954 0 0.135463)
(-0.180062 0 0.132387)
(-0.188054 0 0.143857)
(-0.0606002 0 0.0321883)
(-0.060019 0 0.0239783)
(-0.0607234 0 0.0474155)
(-0.0601548 0 0.041091)
(-0.0609033 0 0.0595649)
(-0.0602808 0 0.0545089)
(-0.0611341 0 0.0697702)
(-0.0604848 0 0.0654655)
(-0.0614107 0 0.0788773)
(-0.0607369 0 0.0749913)
(-0.0617301 0 0.0873777)
(-0.0610322 0 0.0837459)
(-0.0620913 0 0.0954627)
(-0.0613694 0 0.0920516)
(-0.0624938 0 0.103093)
(-0.0617481 0 0.0999663)
(-0.062936 0 0.110059)
(-0.0621677 0 0.10735)
(-0.063414 0 0.116016)
(-0.0626259 0 0.113915)
(-0.0639201 0 0.120518)
(-0.063117 0 0.119256)
(-0.0644426 0 0.123044)
(-0.0636316 0 0.122876)
(-0.0649668 0 0.123054)
(-0.0641562 0 0.124226)
(-0.0654771 0 0.120084)
(-0.0646752 0 0.122775)
(-0.0659625 0 0.113898)
(-0.0651741 0 0.118135)
(-0.066424 0 0.1047)
(-0.0656465 0 0.11025)
(-0.0668829 0 0.0933406)
(-0.0661022 0 0.0996195)
(-0.067388 0 0.0814505)
(-0.0665755 0 0.0874963)
(-0.0680154 0 0.0713538)
(-0.0671302 0 0.075939)
(-0.0688565 0 0.0656385)
(-0.0678541 0 0.0675667)
(-0.0699917 0 0.0663667)
(-0.0688394 0 0.0649219)
(-0.0714565 0 0.074122)
(-0.0701503 0 0.0695141)
(-0.073211 0 0.0873221)
(-0.0717867 0 0.0808763)
(-0.0751352 0 0.102309)
(-0.0736627 0 0.0961719)
(-0.07706 0 0.114472)
(-0.0756196 0 0.110825)
(-0.078831 0 0.120114)
(-0.0774771 0 0.120197)
(-0.0803818 0 0.1182)
(-0.0791107 0 0.121651)
(-0.0817818 0 0.110998)
(-0.080519 0 0.115948)
(-0.0832278 0 0.103124)
(-0.0818526 0 0.107059)
(-0.0849752 0 0.0993774)
(-0.0833542 0 0.100334)
(-0.0876491 0 0.102777)
(-0.0854591 0 0.0999453)
(-0.0909161 0 0.112014)
(-0.0884147 0 0.107564)
(-0.0945901 0 0.122217)
(-0.0919032 0 0.118751)
(-0.0984717 0 0.129458)
(-0.0956638 0 0.12817)
(-0.102461 0 0.132691)
(-0.0995473 0 0.133333)
(-0.106556 0 0.13294)
(-0.103509 0 0.1347)
(-0.110803 0 0.131719)
(-0.107587 0 0.133911)
(-0.115247 0 0.130098)
(-0.11183 0 0.132365)
(-0.119922 0 0.128581)
(-0.116281 0 0.130804)
(-0.124842 0 0.127289)
(-0.120961 0 0.129481)
(-0.130007 0 0.126141)
(-0.125876 0 0.128373)
(-0.135405 0 0.124986)
(-0.131015 0 0.127331)
(-0.141022 0 0.123741)
(-0.136356 0 0.126199)
(-0.146855 0 0.122536)
(-0.141881 0 0.124967)
(-0.152922 0 0.12183)
(-0.147586 0 0.123917)
(-0.159262 0 0.122407)
(-0.153497 0 0.123697)
(-0.165922 0 0.125225)
(-0.159664 0 0.125237)
(-0.172927 0 0.131155)
(-0.166126 0 0.129513)
(-0.180251 0 0.140784)
(-0.172884 0 0.13727)
(-0.179849 0 0.148896)
(-0.0595676 0 0.032472)
(-0.0589665 0 0.0241672)
(-0.059685 0 0.0478638)
(-0.0590969 0 0.0414562)
(-0.0598583 0 0.0601476)
(-0.0592146 0 0.0550229)
(-0.060082 0 0.070459)
(-0.0594111 0 0.0660983)
(-0.0603514 0 0.0796507)
(-0.0596556 0 0.0757175)
(-0.0606635 0 0.0882212)
(-0.0599432 0 0.084548)
(-0.0610173 0 0.096366)
(-0.0602726 0 0.0929182)
(-0.0614121 0 0.104047)
(-0.0606434 0 0.100889)
(-0.0618466 0 0.11105)
(-0.0610551 0 0.108318)
(-0.062317 0 0.117028)
(-0.0615053 0 0.114914)
(-0.0628158 0 0.121527)
(-0.0619888 0 0.120265)
(-0.063332 0 0.124025)
(-0.0624964 0 0.123872)
(-0.0638513 0 0.123981)
(-0.0630152 0 0.125181)
(-0.0643592 0 0.120937)
(-0.0635305 0 0.123665)
(-0.0648459 0 0.114675)
(-0.064029 0 0.118948)
(-0.0653133 0 0.105423)
(-0.0645053 0 0.110995)
(-0.0657837 0 0.0940646)
(-0.0649703 0 0.100334)
(-0.0663059 0 0.0822607)
(-0.0654587 0 0.0882523)
(-0.0669544 0 0.0723516)
(-0.0660335 0 0.0768341)
(-0.0678174 0 0.0669129)
(-0.0667802 0 0.0687024)
(-0.068971 0 0.0679591)
(-0.0677868 0 0.066369)
(-0.0704451 0 0.0759965)
(-0.0691124 0 0.071277)
(-0.0721956 0 0.0893601)
(-0.0707515 0 0.082872)
(-0.0741003 0 0.104338)
(-0.072615 0 0.098242)
(-0.0759906 0 0.116326)
(-0.0745432 0 0.112784)
(-0.077716 0 0.121698)
(-0.0763586 0 0.121901)
(-0.0792148 0 0.119536)
(-0.0779415 0 0.123063)
(-0.0805603 0 0.112221)
(-0.0792952 0 0.117156)
(-0.0819507 0 0.10443)
(-0.0805733 0 0.108249)
(-0.0836389 0 0.10094)
(-0.0820177 0 0.101711)
(-0.0862336 0 0.104731)
(-0.0840539 0 0.101675)
(-0.0894088 0 0.114299)
(-0.0869235 0 0.109681)
(-0.092977 0 0.124702)
(-0.0903109 0 0.121129)
(-0.09674 0 0.132043)
(-0.0939574 0 0.130679)
(-0.100598 0 0.135341)
(-0.0977147 0 0.135905)
(-0.104548 0 0.135669)
(-0.101537 0 0.137333)
(-0.108629 0 0.134555)
(-0.10546 0 0.136633)
(-0.112887 0 0.133069)
(-0.109529 0 0.135203)
(-0.117348 0 0.131702)
(-0.113781 0 0.133778)
(-0.122024 0 0.130563)
(-0.118234 0 0.132598)
(-0.126909 0 0.129563)
(-0.122888 0 0.131629)
(-0.131984 0 0.128545)
(-0.127727 0 0.130714)
(-0.137229 0 0.127426)
(-0.132723 0 0.129696)
(-0.142632 0 0.126349)
(-0.13785 0 0.128569)
(-0.148199 0 0.125784)
(-0.143097 0 0.127629)
(-0.153959 0 0.126527)
(-0.148483 0 0.127537)
(-0.159943 0 0.12953)
(-0.15404 0 0.129227)
(-0.166159 0 0.13564)
(-0.159793 0 0.133657)
(-0.172558 0 0.145403)
(-0.165719 0 0.141536)
(-0.171717 0 0.153212)
(-0.0584883 0 0.0327383)
(-0.0578694 0 0.0243397)
(-0.0585984 0 0.0482912)
(-0.0579933 0 0.0417989)
(-0.0587637 0 0.0607089)
(-0.0581014 0 0.0555132)
(-0.0589793 0 0.0711268)
(-0.0582889 0 0.0667079)
(-0.0592405 0 0.0804038)
(-0.0585244 0 0.0764216)
(-0.0595445 0 0.089045)
(-0.0588033 0 0.0853292)
(-0.05989 0 0.0972503)
(-0.059124 0 0.0937647)
(-0.0602766 0 0.104982)
(-0.0594862 0 0.101791)
(-0.0607029 0 0.112024)
(-0.0598893 0 0.109267)
(-0.0611653 0 0.118023)
(-0.0603311 0 0.115895)
(-0.0616567 0 0.122523)
(-0.0608066 0 0.121259)
(-0.0621664 0 0.124996)
(-0.0613071 0 0.124855)
(-0.0626812 0 0.124901)
(-0.0618204 0 0.126127)
(-0.0631873 0 0.121789)
(-0.0623325 0 0.124552)
(-0.0636761 0 0.115458)
(-0.0628313 0 0.119765)
(-0.0641507 0 0.10616)
(-0.0633125 0 0.111751)
(-0.0646338 0 0.0948103)
(-0.063788 0 0.101068)
(-0.0651741 0 0.0830984)
(-0.0642927 0 0.0890346)
(-0.0658445 0 0.0733789)
(-0.0648886 0 0.0777594)
(-0.0667297 0 0.0682137)
(-0.0656586 0 0.0698673)
(-0.0679011 0 0.0695689)
(-0.0666866 0 0.0678386)
(-0.0693835 0 0.0778745)
(-0.068026 0 0.0730498)
(-0.0711285 0 0.0913855)
(-0.0696666 0 0.0848614)
(-0.0730117 0 0.106339)
(-0.0715158 0 0.100289)
(-0.074866 0 0.11814)
(-0.0734137 0 0.114705)
(-0.0765443 0 0.123236)
(-0.0751858 0 0.123559)
(-0.07799 0 0.120823)
(-0.0767169 0 0.124424)
(-0.07928 0 0.113396)
(-0.0780153 0 0.118314)
(-0.0806133 0 0.105687)
(-0.0792368 0 0.10939)
(-0.0822403 0 0.10245)
(-0.0806224 0 0.103039)
(-0.0847527 0 0.106625)
(-0.0825872 0 0.10335)
(-0.0878326 0 0.116513)
(-0.0853676 0 0.111734)
(-0.0912919 0 0.127107)
(-0.0886509 0 0.123436)
(-0.0949336 0 0.134541)
(-0.0921807 0 0.133106)
(-0.098658 0 0.137896)
(-0.0958098 0 0.138388)
(-0.102459 0 0.138294)
(-0.0994918 0 0.139867)
(-0.106375 0 0.137277)
(-0.103259 0 0.139243)
(-0.110445 0 0.135909)
(-0.107152 0 0.137916)
(-0.114692 0 0.134672)
(-0.111205 0 0.13661)
(-0.119124 0 0.133663)
(-0.115431 0 0.135552)
(-0.123729 0 0.132782)
(-0.119826 0 0.134699)
(-0.128483 0 0.131868)
(-0.124368 0 0.133884)
(-0.13336 0 0.130842)
(-0.129023 0 0.132947)
(-0.138339 0 0.129852)
(-0.133759 0 0.131888)
(-0.143419 0 0.129383)
(-0.138561 0 0.131016)
(-0.148618 0 0.130238)
(-0.143437 0 0.131002)
(-0.153954 0 0.13336)
(-0.148411 0 0.132784)
(-0.159418 0 0.139567)
(-0.153487 0 0.1373)
(-0.164946 0 0.149367)
(-0.158629 0 0.145221)
(-0.163725 0 0.156854)
(-0.0573655 0 0.032983)
(-0.056733 0 0.0244958)
(-0.0574675 0 0.0486931)
(-0.0568495 0 0.0421163)
(-0.0576232 0 0.0612447)
(-0.0569461 0 0.0559749)
(-0.0578289 0 0.0717706)
(-0.0571223 0 0.0672897)
(-0.0580805 0 0.0811341)
(-0.0573467 0 0.0770999)
(-0.0583752 0 0.0898472)
(-0.0576151 0 0.0860864)
(-0.0587116 0 0.098114)
(-0.057926 0 0.094589)
(-0.0590893 0 0.105898)
(-0.0582787 0 0.102673)
(-0.0595069 0 0.11298)
(-0.0586725 0 0.110197)
(-0.0599608 0 0.119003)
(-0.0591055 0 0.116858)
(-0.0604446 0 0.123505)
(-0.0595727 0 0.122238)
(-0.060948 0 0.125956)
(-0.060066 0 0.125826)
(-0.0614584 0 0.125816)
(-0.0605738 0 0.127066)
(-0.0619634 0 0.122642)
(-0.0610832 0 0.125437)
(-0.0624552 0 0.116249)
(-0.061583 0 0.120587)
(-0.0629379 0 0.106913)
(-0.0620702 0 0.11252)
(-0.0634351 0 0.0955795)
(-0.0625573 0 0.101823)
(-0.0639946 0 0.0839649)
(-0.0630795 0 0.0898447)
(-0.0646876 0 0.0744362)
(-0.0636976 0 0.0787159)
(-0.0655953 0 0.0695403)
(-0.0644915 0 0.0710617)
(-0.0667841 0 0.0711946)
(-0.0655406 0 0.06933)
(-0.0682738 0 0.079754)
(-0.0668933 0 0.0748313)
(-0.0700117 0 0.0933956)
(-0.068534 0 0.0868428)
(-0.0718721 0 0.10831)
(-0.0703676 0 0.102311)
(-0.0736891 0 0.119912)
(-0.072234 0 0.116588)
(-0.0753195 0 0.124725)
(-0.0739617 0 0.125169)
(-0.0767114 0 0.122061)
(-0.0754404 0 0.125735)
(-0.0779451 0 0.114521)
(-0.0766829 0 0.119422)
(-0.0792202 0 0.106894)
(-0.077847 0 0.110482)
(-0.0807842 0 0.103907)
(-0.0791726 0 0.104315)
(-0.0832113 0 0.108459)
(-0.0810639 0 0.104968)
(-0.0861929 0 0.118657)
(-0.0837521 0 0.113722)
(-0.0895406 0 0.129435)
(-0.0869287 0 0.125667)
(-0.093059 0 0.136953)
(-0.09034 0 0.135452)
(-0.0966484 0 0.140358)
(-0.0938398 0 0.140781)
(-0.100301 0 0.140815)
(-0.0973807 0 0.142302)
(-0.104051 0 0.139881)
(-0.100991 0 0.141743)
(-0.107933 0 0.138616)
(-0.10471 0 0.140504)
(-0.111968 0 0.13749)
(-0.108566 0 0.1393)
(-0.116157 0 0.136588)
(-0.112568 0 0.138345)
(-0.120485 0 0.135802)
(-0.116707 0 0.137585)
(-0.124924 0 0.134964)
(-0.120956 0 0.136843)
(-0.129439 0 0.133996)
(-0.125278 0 0.135957)
(-0.134006 0 0.133055)
(-0.129635 0 0.134933)
(-0.138616 0 0.132639)
(-0.134006 0 0.134089)
(-0.143277 0 0.133554)
(-0.138395 0 0.13411)
(-0.147997 0 0.136734)
(-0.142813 0 0.13593)
(-0.152754 0 0.142969)
(-0.147253 0 0.140471)
(-0.157469 0 0.152728)
(-0.151663 0 0.148365)
(-0.155928 0 0.159876)
(-0.0562064 0 0.0332078)
(-0.0555667 0 0.0246315)
(-0.0562986 0 0.0490668)
(-0.0556694 0 0.042403)
(-0.0564422 0 0.0617494)
(-0.0557506 0 0.0564008)
(-0.0566353 0 0.0723845)
(-0.0559126 0 0.0678358)
(-0.056875 0 0.0818373)
(-0.0561238 0 0.0777459)
(-0.0571586 0 0.0906248)
(-0.0563802 0 0.0868152)
(-0.0574847 0 0.0989551)
(-0.0566801 0 0.0953879)
(-0.0578525 0 0.106792)
(-0.0570226 0 0.103532)
(-0.0582607 0 0.113916)
(-0.0574068 0 0.111105)
(-0.0587059 0 0.119965)
(-0.0578305 0 0.117803)
(-0.0591818 0 0.124473)
(-0.0582893 0 0.123201)
(-0.0596789 0 0.126906)
(-0.0587753 0 0.126785)
(-0.0601853 0 0.126726)
(-0.0592779 0 0.127997)
(-0.0606897 0 0.123498)
(-0.059785 0 0.126321)
(-0.0611853 0 0.11705)
(-0.0602865 0 0.121415)
(-0.0616774 0 0.107685)
(-0.0607807 0 0.113304)
(-0.0621897 0 0.0963741)
(-0.0612806 0 0.102601)
(-0.0627695 0 0.0848616)
(-0.0618215 0 0.0906843)
(-0.0634859 0 0.0755242)
(-0.0624627 0 0.0797048)
(-0.0644163 0 0.0708926)
(-0.063281 0 0.0722861)
(-0.0656223 0 0.0728351)
(-0.0643513 0 0.0708429)
(-0.0671183 0 0.081633)
(-0.0657165 0 0.0766204)
(-0.0688481 0 0.0953884)
(-0.0673565 0 0.0888149)
(-0.0706844 0 0.110248)
(-0.0691731 0 0.104307)
(-0.072463 0 0.12164)
(-0.071007 0 0.118431)
(-0.0740448 0 0.126165)
(-0.0726895 0 0.126732)
(-0.0753824 0 0.123247)
(-0.0741154 0 0.126994)
(-0.0765593 0 0.115596)
(-0.0753017 0 0.120478)
(-0.0777752 0 0.10805)
(-0.0764078 0 0.111522)
(-0.0792746 0 0.10531)
(-0.0776721 0 0.105538)
(-0.0816139 0 0.11023)
(-0.079488 0 0.106528)
(-0.0844948 0 0.120731)
(-0.0820818 0 0.115642)
(-0.0877292 0 0.131684)
(-0.08515 0 0.127824)
(-0.0911233 0 0.139279)
(-0.0884418 0 0.137715)
(-0.0945774 0 0.142725)
(-0.0918123 0 0.143084)
(-0.0980815 0 0.14323)
(-0.0952125 0 0.144638)
(-0.101666 0 0.142366)
(-0.0986683 0 0.144133)
(-0.105363 0 0.141189)
(-0.102214 0 0.142969)
(-0.109187 0 0.140156)
(-0.105874 0 0.14185)
(-0.113138 0 0.139342)
(-0.109656 0 0.140979)
(-0.117195 0 0.138627)
(-0.113545 0 0.140289)
(-0.121326 0 0.137838)
(-0.11751 0 0.139596)
(-0.125491 0 0.136897)
(-0.121509 0 0.138734)
(-0.129661 0 0.135971)
(-0.125501 0 0.137713)
(-0.133821 0 0.135566)
(-0.129461 0 0.136863)
(-0.137972 0 0.136494)
(-0.133387 0 0.136877)
(-0.142112 0 0.139679)
(-0.137281 0 0.13869)
(-0.146208 0 0.145882)
(-0.141126 0 0.143202)
(-0.150174 0 0.155533)
(-0.144861 0 0.151009)
(-0.148369 0 0.162335)
(-0.0550162 0 0.0334019)
(-0.0543734 0 0.0247238)
(-0.0550916 0 0.0494024)
(-0.05445 0 0.0426377)
(-0.0552186 0 0.0622138)
(-0.0545092 0 0.0567776)
(-0.0553967 0 0.0729604)
(-0.0546545 0 0.0683392)
(-0.0556229 0 0.0825071)
(-0.054852 0 0.0783559)
(-0.0558947 0 0.0913734)
(-0.0550966 0 0.0875135)
(-0.05621 0 0.0997707)
(-0.0553861 0 0.0961603)
(-0.0565677 0 0.107664)
(-0.0557188 0 0.104368)
(-0.0569663 0 0.114832)
(-0.0560934 0 0.111993)
(-0.0574025 0 0.12091)
(-0.0565081 0 0.118729)
(-0.0578705 0 0.125427)
(-0.0569585 0 0.124148)
(-0.0583614 0 0.127847)
(-0.0574375 0 0.127731)
(-0.0588643 0 0.127633)
(-0.0579352 0 0.128922)
(-0.0593686 0 0.124356)
(-0.0584404 0 0.127206)
(-0.059869 0 0.117863)
(-0.0589445 0 0.122252)
(-0.0603715 0 0.108476)
(-0.0594465 0 0.114104)
(-0.0609001 0 0.0971958)
(-0.0599604 0 0.103404)
(-0.0615013 0 0.0857898)
(-0.0605211 0 0.0915549)
(-0.0622418 0 0.0766438)
(-0.0611863 0 0.0807269)
(-0.0631952 0 0.0722707)
(-0.0620295 0 0.0735407)
(-0.064418 0 0.07449)
(-0.063121 0 0.0723769)
(-0.0659196 0 0.0835108)
(-0.0644983 0 0.0784163)
(-0.0676402 0 0.0973629)
(-0.0661366 0 0.0907765)
(-0.0694514 0 0.112152)
(-0.0679353 0 0.106275)
(-0.0711908 0 0.123324)
(-0.0697357 0 0.120233)
(-0.0727235 0 0.127555)
(-0.0713726 0 0.128246)
(-0.0740065 0 0.124382)
(-0.0727454 0 0.128203)
(-0.075126 0 0.116619)
(-0.0738751 0 0.121484)
(-0.0762819 0 0.109154)
(-0.0749227 0 0.112512)
(-0.0777154 0 0.106656)
(-0.0761248 0 0.106708)
(-0.0799651 0 0.111939)
(-0.0778637 0 0.108027)
(-0.0827437 0 0.122734)
(-0.0803615 0 0.117495)
(-0.0858637 0 0.133854)
(-0.0833202 0 0.129904)
(-0.0891335 0 0.141519)
(-0.0864923 0 0.139895)
(-0.0924529 0 0.144997)
(-0.0897342 0 0.145297)
(-0.0958097 0 0.145541)
(-0.0929953 0 0.146876)
(-0.099231 0 0.144735)
(-0.0962981 0 0.146414)
(-0.102745 0 0.14363)
(-0.0996734 0 0.145311)
(-0.106363 0 0.142674)
(-0.103143 0 0.144262)
(-0.110081 0 0.141928)
(-0.106709 0 0.143457)
(-0.113875 0 0.141261)
(-0.110355 0 0.142818)
(-0.117707 0 0.140496)
(-0.114046 0 0.142151)
(-0.121537 0 0.139554)
(-0.117735 0 0.141287)
(-0.125327 0 0.13861)
(-0.121379 0 0.14024)
(-0.129061 0 0.138181)
(-0.12495 0 0.139352)
(-0.132732 0 0.139082)
(-0.12844 0 0.139325)
(-0.136331 0 0.142225)
(-0.131844 0 0.14109)
(-0.139818 0 0.148344)
(-0.135138 0 0.145526)
(-0.1431 0 0.157832)
(-0.138256 0 0.153197)
(-0.141081 0 0.16429)
(-0.053789 0 0.0335317)
(-0.0531443 0 0.0247433)
(-0.0538379 0 0.0496752)
(-0.0531863 0 0.0427898)
(-0.0539433 0 0.0626269)
(-0.0532176 0 0.0570904)
(-0.0541056 0 0.0734954)
(-0.0533445 0 0.068798)
(-0.0543197 0 0.0831435)
(-0.0535295 0 0.0789332)
(-0.0545812 0 0.0920938)
(-0.0537645 0 0.0881854)
(-0.054887 0 0.100561)
(-0.0540452 0 0.0969095)
(-0.0552355 0 0.108514)
(-0.0543692 0 0.105182)
(-0.0556251 0 0.115729)
(-0.0547351 0 0.11286)
(-0.0560529 0 0.121838)
(-0.0551411 0 0.119637)
(-0.0565133 0 0.126367)
(-0.0555834 0 0.12508)
(-0.0569984 0 0.128778)
(-0.0560555 0 0.128667)
(-0.057498 0 0.128536)
(-0.0565485 0 0.129841)
(-0.0580029 0 0.125219)
(-0.0570523 0 0.128091)
(-0.0585089 0 0.118688)
(-0.0575596 0 0.123097)
(-0.0590227 0 0.109288)
(-0.0580704 0 0.114923)
(-0.0595686 0 0.098046)
(-0.0585992 0 0.104233)
(-0.0601922 0 0.0867507)
(-0.0591806 0 0.0924578)
(-0.0609575 0 0.0777955)
(-0.0598706 0 0.0817833)
(-0.0619341 0 0.0736746)
(-0.0607392 0 0.0748258)
(-0.0631735 0 0.0761587)
(-0.0618519 0 0.0739317)
(-0.0646801 0 0.0853865)
(-0.0632408 0 0.0802181)
(-0.0663906 0 0.0993183)
(-0.0648767 0 0.0927266)
(-0.0681759 0 0.114023)
(-0.0666568 0 0.108216)
(-0.0698757 0 0.124963)
(-0.0684231 0 0.121995)
(-0.0713589 0 0.128894)
(-0.0700141 0 0.129711)
(-0.0725871 0 0.125465)
(-0.0713337 0 0.129359)
(-0.0736491 0 0.11759)
(-0.0724068 0 0.122437)
(-0.0747443 0 0.110204)
(-0.0733956 0 0.113449)
(-0.0761108 0 0.107946)
(-0.0745346 0 0.107823)
(-0.0782694 0 0.113583)
(-0.0761954 0 0.109467)
(-0.0809445 0 0.124664)
(-0.0785959 0 0.119278)
(-0.08395 0 0.135944)
(-0.0814446 0 0.131908)
(-0.0870959 0 0.143673)
(-0.0844977 0 0.141992)
(-0.0902821 0 0.147176)
(-0.0876123 0 0.147421)
(-0.0934939 0 0.147749)
(-0.0907365 0 0.149017)
(-0.096755 0 0.14699)
(-0.0938893 0 0.148588)
(-0.10009 0 0.145944)
(-0.0970983 0 0.147534)
(-0.103508 0 0.145047)
(-0.100382 0 0.146541)
(-0.107 0 0.14435)
(-0.10374 0 0.145786)
(-0.11054 0 0.143711)
(-0.107153 0 0.145178)
(-0.114087 0 0.142946)
(-0.11058 0 0.144516)
(-0.117595 0 0.141977)
(-0.113974 0 0.143626)
(-0.121027 0 0.140988)
(-0.117289 0 0.142528)
(-0.12436 0 0.140503)
(-0.120494 0 0.141573)
(-0.127583 0 0.141341)
(-0.123577 0 0.141473)
(-0.130682 0 0.144403)
(-0.126528 0 0.143156)
(-0.13361 0 0.150394)
(-0.129316 0 0.147479)
(-0.136275 0 0.159675)
(-0.131875 0 0.154973)
(-0.134088 0 0.165794)
(-0.0525179 0 0.0335704)
(-0.0518711 0 0.0246849)
(-0.0525364 0 0.0498635)
(-0.0518829 0 0.0428474)
(-0.0526177 0 0.0629819)
(-0.0518864 0 0.0573314)
(-0.0527645 0 0.0739937)
(-0.0519943 0 0.069213)
(-0.0529685 0 0.083754)
(-0.0521669 0 0.0794832)
(-0.0532218 0 0.0927926)
(-0.0523929 0 0.0888363)
(-0.0535197 0 0.101332)
(-0.0526653 0 0.0976393)
(-0.05386 0 0.109344)
(-0.0529807 0 0.105977)
(-0.0542412 0 0.116607)
(-0.0533376 0 0.113709)
(-0.0546606 0 0.122749)
(-0.0537345 0 0.120527)
(-0.0551136 0 0.127294)
(-0.0541683 0 0.125996)
(-0.0555929 0 0.129701)
(-0.0546332 0 0.129591)
(-0.0560895 0 0.129437)
(-0.0551213 0 0.130754)
(-0.0565955 0 0.126088)
(-0.0556239 0 0.128978)
(-0.0571077 0 0.119527)
(-0.0561347 0 0.123953)
(-0.0576337 0 0.110123)
(-0.0566549 0 0.115761)
(-0.0581979 0 0.0989261)
(-0.0571995 0 0.10509)
(-0.0588447 0 0.0877454)
(-0.0578025 0 0.0933942)
(-0.0596353 0 0.0789799)
(-0.058518 0 0.0828747)
(-0.0606354 0 0.0751043)
(-0.0594125 0 0.0761419)
(-0.0618912 0 0.0778408)
(-0.0605463 0 0.0755071)
(-0.0634023 0 0.0872593)
(-0.0619465 0 0.0820254)
(-0.0651022 0 0.101254)
(-0.0635795 0 0.0946646)
(-0.066861 0 0.115858)
(-0.0653405 0 0.110127)
(-0.0685207 0 0.126558)
(-0.0670723 0 0.123714)
(-0.0699544 0 0.130184)
(-0.0686172 0 0.131127)
(-0.0711277 0 0.126497)
(-0.0698837 0 0.130464)
(-0.072132 0 0.11851)
(-0.0709003 0 0.123339)
(-0.0731661 0 0.111202)
(-0.07183 0 0.114334)
(-0.0744648 0 0.109178)
(-0.0729053 0 0.108882)
(-0.0765312 0 0.115162)
(-0.0744872 0 0.110844)
(-0.0791023 0 0.126522)
(-0.0767896 0 0.120992)
(-0.0819934 0 0.137955)
(-0.0795285 0 0.133835)
(-0.0850168 0 0.145741)
(-0.0824635 0 0.144008)
(-0.088072 0 0.149263)
(-0.0854529 0 0.149458)
(-0.0911419 0 0.149856)
(-0.0884432 0 0.151064)
(-0.0942468 0 0.149133)
(-0.09145 0 0.150658)
(-0.0974082 0 0.148133)
(-0.0944976 0 0.149642)
(-0.100633 0 0.147281)
(-0.0976021 0 0.14869)
(-0.103908 0 0.146616)
(-0.10076 0 0.147969)
(-0.107204 0 0.145986)
(-0.103949 0 0.147376)
(-0.110479 0 0.145199)
(-0.107126 0 0.146699)
(-0.113685 0 0.144181)
(-0.110241 0 0.145763)
(-0.11678 0 0.14312)
(-0.113247 0 0.144592)
(-0.119739 0 0.142552)
(-0.116111 0 0.143546)
(-0.122548 0 0.143297)
(-0.118818 0 0.143346)
(-0.125188 0 0.146243)
(-0.121352 0 0.144916)
(-0.127609 0 0.152072)
(-0.12368 0 0.149093)
(-0.129719 0 0.16111)
(-0.125735 0 0.156379)
(-0.127405 0 0.166901)
(-0.0512089 0 0.0335279)
(-0.0505585 0 0.0245757)
(-0.0512034 0 0.0499692)
(-0.0505548 0 0.0428303)
(-0.0512623 0 0.0632786)
(-0.0505367 0 0.0575061)
(-0.051393 0 0.0744572)
(-0.0506256 0 0.0695826)
(-0.0515858 0 0.084342)
(-0.0507836 0 0.0800031)
(-0.0518299 0 0.0934727)
(-0.0509975 0 0.0894636)
(-0.0521188 0 0.102084)
(-0.0512586 0 0.098347)
(-0.0524497 0 0.110156)
(-0.0515628 0 0.106749)
(-0.0528213 0 0.117466)
(-0.0519084 0 0.114536)
(-0.0532314 0 0.123644)
(-0.0522944 0 0.121397)
(-0.0536761 0 0.128208)
(-0.0527181 0 0.126896)
(-0.054149 0 0.130616)
(-0.0531747 0 0.130504)
(-0.0546424 0 0.130337)
(-0.0536573 0 0.131661)
(-0.0551495 0 0.126963)
(-0.0541583 0 0.129867)
(-0.0556683 0 0.120382)
(-0.0546727 0 0.12482)
(-0.0562071 0 0.110983)
(-0.0552027 0 0.11662)
(-0.0567903 0 0.0998374)
(-0.0557637 0 0.105976)
(-0.057461 0 0.0887749)
(-0.0563891 0 0.0943653)
(-0.0582776 0 0.0801976)
(-0.0571307 0 0.0840019)
(-0.0593014 0 0.0765599)
(-0.0580514 0 0.0774891)
(-0.0605735 0 0.0795359)
(-0.0592066 0 0.0771029)
(-0.0620888 0 0.0891287)
(-0.0606179 0 0.0838376)
(-0.0637775 0 0.103169)
(-0.0622477 0 0.0965899)
(-0.0655095 0 0.117659)
(-0.0639891 0 0.11201)
(-0.067129 0 0.128107)
(-0.0656864 0 0.125392)
(-0.0685132 0 0.131423)
(-0.0671852 0 0.132494)
(-0.0696318 0 0.127476)
(-0.0683987 0 0.131517)
(-0.0705784 0 0.119378)
(-0.0693589 0 0.124188)
(-0.071551 0 0.112145)
(-0.0702294 0 0.115166)
(-0.0727813 0 0.110352)
(-0.0712407 0 0.109886)
(-0.0747549 0 0.116675)
(-0.0727431 0 0.11216)
(-0.0772218 0 0.128306)
(-0.0749471 0 0.122637)
(-0.0799995 0 0.139888)
(-0.0775767 0 0.135687)
(-0.0829022 0 0.147725)
(-0.0803953 0 0.145943)
(-0.0858293 0 0.151259)
(-0.0832623 0 0.151409)
(-0.088761 0 0.151866)
(-0.0861223 0 0.153018)
(-0.0917147 0 0.151168)
(-0.0889877 0 0.152627)
(-0.0947087 0 0.150201)
(-0.0918798 0 0.151638)
(-0.0977469 0 0.149381)
(-0.0948121 0 0.150716)
(-0.100815 0 0.148732)
(-0.0977792 0 0.150014)
(-0.103881 0 0.148093)
(-0.100756 0 0.14942)
(-0.106899 0 0.147266)
(-0.103697 0 0.148711)
(-0.10982 0 0.146178)
(-0.106551 0 0.14771)
(-0.112602 0 0.145024)
(-0.109269 0 0.146446)
(-0.115215 0 0.144348)
(-0.111818 0 0.145288)
(-0.117644 0 0.144974)
(-0.114179 0 0.144965)
(-0.119867 0 0.147777)
(-0.116333 0 0.146397)
(-0.121832 0 0.153414)
(-0.118246 0 0.150403)
(-0.123447 0 0.162186)
(-0.119852 0 0.157456)
(-0.121043 0 0.16766)
(-0.0498761 0 0.0334417)
(-0.0492167 0 0.0244522)
(-0.0498582 0 0.0500163)
(-0.0492118 0 0.0427748)
(-0.0498997 0 0.0635213)
(-0.0491807 0 0.0576292)
(-0.0500128 0 0.0748793)
(-0.0492521 0 0.0699024)
(-0.05019 0 0.0848984)
(-0.0493918 0 0.0804807)
(-0.05042 0 0.0941256)
(-0.0495884 0 0.0900545)
(-0.0506954 0 0.102811)
(-0.0498333 0 0.0990217)
(-0.0510132 0 0.110943)
(-0.0501219 0 0.107491)
(-0.0513721 0 0.118303)
(-0.0504527 0 0.115335)
(-0.0517705 0 0.124518)
(-0.0508249 0 0.122243)
(-0.052205 0 0.129106)
(-0.0512363 0 0.127775)
(-0.0526704 0 0.131521)
(-0.051683 0 0.131401)
(-0.0531598 0 0.131234)
(-0.052159 0 0.132561)
(-0.0536677 0 0.127844)
(-0.0526579 0 0.130757)
(-0.0541932 0 0.121253)
(-0.0531759 0 0.125698)
(-0.0547454 0 0.111867)
(-0.053716 0 0.117499)
(-0.0553482 0 0.100781)
(-0.054294 0 0.106891)
(-0.0560434 0 0.08984)
(-0.0549424 0 0.0953719)
(-0.0568864 0 0.0814491)
(-0.0557108 0 0.0851657)
(-0.0579342 0 0.0780415)
(-0.0566581 0 0.0788678)
(-0.0592226 0 0.0812438)
(-0.0578349 0 0.0787193)
(-0.0607419 0 0.0909942)