/*--------------------------------*- C++ -*----------------------------------*\
  =========                 |
  \\      /  F ield         | OpenFOAM: The Open Source CFD Toolbox
   \\    /   O peration     | Website:  https://openfoam.org
    \\  /    A nd           | Version:  9
     \\/     M anipulation  |
\*---------------------------------------------------------------------------*/
FoamFile
{
    format      ascii;
    class       surfaceScalarField;
    location    "0.05";
    object      alphaPhi0.water;
}
// * * * * * * * * * * * * * * * * * * * * * * * * * * * * * * * * * * * * * //

dimensions      [0 3 -1 0 0 0 0];

internalField   nonuniform List<scalar> 
9850
(
-1.2231e-69
-1.49326e-69
-4.29266e-69
-5.48699e-69
-1.98272e-68
-2.6549e-68
-9.58589e-68
-1.3449e-67
-4.80246e-67
-7.06062e-67
-2.49368e-66
-3.84213e-66
-1.34275e-65
-2.1682e-65
-7.50126e-65
-1.26947e-64
-4.34926e-64
-7.71425e-64
-2.61781e-63
-4.86641e-63
-1.6358e-62
-3.18706e-62
-1.06105e-61
-2.16661e-61
-7.14185e-61
-1.5284e-60
-4.98562e-60
-1.1182e-59
-3.60688e-59
-8.47816e-59
-2.70168e-58
-6.65534e-58
-2.09281e-57
-5.40296e-57
-1.67437e-56
-4.53028e-56
-1.38158e-55
-3.91766e-55
-1.17387e-54
-3.4887e-54
-1.02532e-53
-3.19384e-53
-9.19024e-53
-3.00064e-52
-8.43724e-52
-2.88774e-51
-7.91789e-51
-2.84107e-50
-7.57899e-50
-2.85138e-49
-7.38179e-49
-2.9124e-48
-7.29589e-48
-3.01928e-47
-7.29428e-47
-3.16706e-46
-7.34887e-46
-3.34877e-45
-7.42611e-45
-3.55297e-44
-7.51461e-44
-4.40877e-43
-8.54675e-43
-5.02601e-42
-9.13414e-42
-5.38814e-41
-9.06924e-41
-5.37108e-40
-8.26059e-40
-4.91626e-39
-6.79851e-39
-4.07032e-38
-4.96666e-38
-2.99491e-37
-3.15329e-37
-1.91764e-36
-1.68317e-36
-1.03388e-35
-6.68319e-36
-4.15337e-35
-4.57475e-36
-2.88206e-35
-4.25115e-37
-2.72096e-36
2.31286e-34
4.36144e-34
7.4311e-33
1.97064e-32
1.54863e-31
4.49605e-31
2.94989e-30
8.98849e-30
5.48363e-29
1.76015e-28
9.93397e-28
3.3897e-27
1.76011e-26
6.38986e-26
1.85222e-24
-4.19177e-69
-5.10327e-69
-1.43645e-68
-1.83095e-68
-6.48809e-68
-8.6633e-68
-3.0652e-67
-4.28841e-67
-1.49849e-66
-2.19693e-66
-7.58207e-66
-1.16494e-65
-3.9731e-65
-6.39762e-65
-2.15748e-64
-3.64102e-64
-1.21473e-63
-2.14859e-63
-7.09471e-63
-1.31523e-62
-4.29982e-62
-8.35431e-62
-2.70454e-61
-5.50735e-61
-1.76539e-60
-3.76767e-60
-1.19554e-59
-2.67406e-59
-8.39496e-59
-1.96787e-58
-6.10736e-58
-1.50037e-57
-4.5984e-57
-1.18391e-56
-3.57868e-56
-9.65618e-56
-2.8745e-55
-8.1287e-55
-2.37914e-54
-7.05127e-54
-2.02554e-53
-6.29206e-53
-1.77063e-52
-5.76514e-52
-1.58618e-51
-5.41373e-51
-1.45329e-50
-5.19994e-50
-1.35897e-49
-5.09821e-49
-1.29405e-48
-5.09083e-48
-1.25164e-47
-5.16456e-47
-1.22608e-46
-5.3076e-46
-1.21205e-45
-5.50636e-45
-1.20376e-44
-5.7414e-44
-1.19937e-43
-7.01391e-43
-1.34481e-42
-7.88179e-42
-1.41908e-41
-8.34176e-41
-1.3924e-40
-8.21603e-40
-1.25315e-39
-7.42933e-39
-1.01754e-38
-6.0673e-38
-7.31072e-38
-4.38934e-37
-4.54556e-37
-2.75157e-36
-2.38164e-36
-1.45563e-35
-9.88553e-36
-6.11038e-35
-1.91944e-35
-1.2021e-34
-8.96045e-37
-5.69785e-36
1.05584e-34
2.21844e-34
5.37591e-33
1.6099e-32
1.21315e-31
3.90585e-31
2.37352e-30
7.9387e-30
4.54048e-29
1.57869e-28
8.50296e-28
3.09176e-27
1.56336e-26
5.94074e-26
1.57213e-24
-1.40599e-68
-1.70676e-68
-4.72021e-68
-5.99911e-68
-2.09055e-67
-2.78335e-67
-9.67585e-67
-1.34979e-66
-4.62688e-66
-6.7638e-66
-2.28613e-65
-3.50234e-65
-1.16786e-64
-1.8751e-64
-6.17218e-64
-1.03864e-63
-3.377e-63
-5.95597e-63
-1.91398e-62
-3.53799e-62
-1.12434e-61
-2.17829e-61
-6.8487e-61
-1.39064e-60
-4.32696e-60
-9.20819e-60
-2.83558e-59
-6.32429e-59
-1.92705e-58
-4.50436e-58
-1.35739e-57
-3.32517e-57
-9.90196e-57
-2.54212e-56
-7.47222e-56
-2.01045e-55
-5.82486e-55
-1.64249e-54
-4.68305e-54
-1.38397e-53
-3.87622e-53
-1.20062e-52
-3.29691e-52
-1.07034e-51
-2.87595e-51
-9.78698e-51
-2.56788e-50
-9.16079e-50
-2.34215e-49
-8.76024e-49
-2.1777e-48
-8.541e-48
-2.05943e-47
-8.4713e-47
-1.97575e-46
-8.52582e-46
-1.91679e-45
-8.67977e-45
-1.8727e-44
-8.90222e-44
-1.84044e-43
-1.07257e-42
-2.04017e-42
-1.19142e-41
-2.13401e-41
-1.24972e-40
-2.07981e-40
-1.22237e-39
-1.86137e-39
-1.09892e-38
-1.50286e-38
-8.92152e-38
-1.07163e-37
-6.40372e-37
-6.58399e-37
-3.96538e-36
-3.3898e-36
-2.06054e-35
-1.40244e-35
-8.61759e-35
-3.64717e-35
-2.26944e-34
-1.17172e-36
-7.39805e-36
5.51821e-35
1.91716e-34
4.53025e-33
1.32665e-32
1.07253e-31
3.38472e-31
2.11804e-30
6.92593e-30
4.08796e-29
1.38361e-28
7.73804e-28
2.72415e-27
1.43935e-26
5.27639e-26
1.18275e-24
-4.60988e-68
-5.57934e-68
-1.52189e-67
-1.92846e-67
-6.63044e-67
-8.80142e-67
-3.01615e-66
-4.19504e-66
-1.4154e-65
-2.06294e-65
-6.85158e-65
-1.04654e-64
-3.42296e-64
-5.47954e-64
-1.76588e-63
-2.96275e-63
-9.41315e-63
-1.65527e-62
-5.18807e-62
-9.56179e-62
-2.9584e-61
-5.71463e-61
-1.74645e-60
-3.53575e-60
-1.06793e-59
-2.26595e-59
-6.76669e-59
-1.50475e-58
-4.44361e-58
-1.03561e-57
-3.02393e-57
-7.38581e-57
-2.13153e-56
-5.45608e-56
-1.55505e-55
-4.17155e-55
-1.17282e-54
-3.29725e-54
-9.13094e-54
-2.69037e-53
-7.32578e-53
-2.26225e-52
-6.04549e-52
-1.95671e-51
-5.12148e-51
-1.73752e-50
-4.44517e-50
-1.58087e-49
-3.94521e-49
-1.47097e-48
-3.57364e-48
-1.39711e-47
-3.29733e-47
-1.35191e-46
-3.09226e-46
-1.32993e-45
-2.93956e-45
-1.32656e-44
-2.82221e-44
-1.33686e-43
-2.73454e-43
-1.58777e-42
-2.99771e-42
-1.74389e-41
-3.11158e-41
-1.81487e-40
-3.01799e-40
-1.76626e-39
-2.69359e-39
-1.58313e-38
-2.17082e-38
-1.28255e-37
-1.54404e-37
-9.17988e-37
-9.43105e-37
-5.6492e-36
-4.79258e-36
-2.89617e-35
-1.94953e-35
-1.19031e-34
-5.61119e-35
-3.46734e-34
-1.78172e-36
-1.11638e-35
-1.66835e-35
-1.06221e-34
3.06586e-33
7.53511e-33
7.76008e-32
2.13923e-31
1.5449e-30
4.42507e-30
3.00243e-29
8.90888e-29
5.7325e-28
1.77068e-27
1.07761e-26
3.47712e-26
7.52074e-25
-1.4692e-67
-1.77273e-67
-4.78559e-67
-6.04555e-67
-2.05714e-66
-2.72235e-66
-9.22628e-66
-1.27932e-65
-4.26328e-65
-6.19473e-65
-2.02909e-64
-3.08984e-64
-9.95045e-64
-1.58803e-63
-5.0298e-63
-8.41316e-63
-2.62199e-62
-4.59664e-62
-1.41033e-61
-2.59139e-61
-7.8321e-61
-1.5083e-60
-4.49347e-60
-9.06953e-60
-2.66508e-59
-5.63766e-59
-1.63503e-58
-3.62486e-58
-1.03809e-57
-2.41197e-57
-6.82289e-57
-1.66138e-56
-4.64221e-56
-1.18464e-55
-3.26857e-55
-8.7413e-55
-2.37983e-54
-6.66998e-54
-1.78976e-53
-5.25706e-53
-1.38823e-52
-4.27353e-52
-1.1086e-51
-3.57682e-51
-9.09697e-51
-3.07639e-50
-7.65543e-50
-2.71376e-49
-6.59414e-49
-2.45054e-48
-5.80336e-48
-2.26122e-47
-5.20943e-47
-2.12858e-46
-4.76123e-46
-2.04056e-45
-4.42111e-45
-1.98798e-44
-4.15815e-44
-1.96236e-43
-3.96068e-43
-2.29078e-42
-4.2824e-42
-2.48111e-41
-4.40172e-41
-2.55638e-40
-4.24237e-40
-2.47163e-39
-3.77257e-39
-2.20671e-38
-3.03424e-38
-1.78358e-37
-2.15412e-37
-1.27377e-36
-1.31024e-36
-7.80277e-36
-6.58337e-36
-3.95346e-35
-2.61136e-35
-1.58361e-34
-7.44758e-35
-4.56815e-34
-2.70311e-35
-1.68e-34
-4.63194e-35
-2.92275e-34
1.60254e-33
3.61837e-33
4.70493e-32
1.2639e-31
9.61103e-31
2.72947e-30
1.91857e-29
5.74747e-29
3.77959e-28
1.20554e-27
7.38112e-27
2.54085e-26
5.20299e-25
-4.53873e-67
-5.45928e-67
-1.46283e-66
-1.84219e-66
-6.22038e-66
-8.20613e-66
-2.75831e-65
-3.81273e-65
-1.25888e-64
-1.82348e-64
-5.91079e-64
-8.97267e-64
-2.85566e-63
-4.5432e-63
-1.41993e-62
-2.36765e-62
-7.26875e-62
-1.27032e-61
-3.83211e-61
-7.01928e-61
-2.08158e-60
-3.99619e-60
-1.16559e-59
-2.34526e-59
-6.73205e-59
-1.41964e-58
-4.01302e-58
-8.86908e-58
-2.47048e-57
-5.72212e-57
-1.5715e-56
-3.81461e-56
-1.03332e-55
-2.6286e-55
-7.02404e-55
-1.87253e-54
-4.9348e-54
-1.37868e-53
-3.58093e-53
-1.04845e-52
-2.68097e-52
-8.22644e-52
-2.06782e-51
-6.64987e-51
-1.64013e-50
-5.52819e-50
-1.33519e-49
-4.7172e-49
-1.11343e-48
-4.12363e-48
-9.49388e-48
-3.68631e-47
-8.26382e-47
-3.36457e-46
-7.33195e-46
-3.13082e-45
-6.61967e-45
-2.96535e-44
-6.06729e-44
-2.85218e-43
-5.64923e-43
-3.25407e-42
-5.98897e-42
-3.45501e-41
-6.0616e-41
-3.50453e-40
-5.77581e-40
-3.349e-39
-5.09501e-39
-2.96521e-38
-4.07478e-38
-2.38236e-37
-2.87955e-37
-1.69296e-36
-1.74141e-36
-1.03067e-35
-8.64938e-36
-5.15974e-35
-3.33643e-35
-2.00881e-34
-8.93617e-35
-5.43852e-34
-2.12591e-35
-1.31001e-34
-7.04887e-35
-4.40624e-34
1.00241e-33
3.01828e-33
3.32408e-32
1.11507e-31
7.11446e-31
2.46038e-30
1.49606e-29
5.3024e-29
3.13598e-28
1.14166e-27
6.58768e-27
2.47676e-26
4.84371e-25
-1.35544e-66
-1.62515e-66
-4.33235e-66
-5.43848e-66
-1.82613e-65
-2.40141e-65
-8.02396e-65
-1.10559e-64
-3.62609e-64
-5.23563e-64
-1.68432e-63
-2.54866e-63
-8.04193e-63
-1.27535e-62
-3.94716e-62
-6.56066e-62
-1.99181e-61
-3.46987e-61
-1.03353e-60
-1.88708e-60
-5.51587e-60
-1.05555e-59
-3.02868e-59
-6.07453e-59
-1.71167e-58
-3.598e-58
-9.96145e-58
-2.19451e-57
-5.97319e-57
-1.37907e-56
-3.69252e-56
-8.93425e-56
-2.35458e-55
-5.9703e-55
-1.54937e-54
-4.11702e-54
-1.05227e-53
-2.93022e-53
-7.37499e-53
-2.15218e-52
-5.33083e-52
-1.63028e-51
-3.96979e-51
-1.27233e-50
-3.04111e-50
-1.02153e-49
-2.3922e-49
-8.42222e-49
-1.92843e-48
-7.11676e-48
-1.59003e-47
-6.15149e-47
-1.33853e-46
-5.42959e-46
-1.14872e-45
-4.88648e-45
-1.00353e-44
-4.47776e-44
-8.90798e-44
-4.17054e-43
-8.04724e-43
-4.6156e-42
-8.29316e-42
-4.76285e-41
-8.1925e-41
-4.71414e-40
-7.6525e-40
-4.415e-39
-6.64538e-39
-3.84699e-38
-5.25013e-38
-3.05221e-37
-3.67331e-37
-2.1466e-36
-2.19991e-36
-1.29361e-35
-1.07798e-35
-6.38586e-35
-4.04254e-35
-2.41564e-34
-9.94135e-35
-6.00089e-34
-7.14292e-36
-4.36244e-35
-8.16159e-35
-5.05217e-34
1.14035e-33
3.7232e-33
3.55819e-32
1.23359e-31
7.96003e-31
2.91908e-30
1.76044e-29
6.79162e-29
3.90293e-28
1.58357e-27
8.67623e-27
3.72114e-26
6.71047e-25
-3.90534e-66
-4.66726e-66
-1.23997e-65
-1.55152e-65
-5.18881e-65
-6.80131e-65
-2.26297e-64
-3.10795e-64
-1.0145e-63
-1.46007e-63
-4.67184e-63
-7.04635e-63
-2.2098e-62
-3.49308e-62
-1.07357e-61
-1.77861e-61
-5.35685e-61
-9.30165e-61
-2.7453e-60
-4.99624e-60
-1.44508e-59
-2.75641e-59
-7.81381e-59
-1.56209e-58
-4.34095e-58
-9.09509e-58
-2.47844e-57
-5.44217e-57
-1.45483e-56
-3.34784e-56
-8.78389e-56
-2.11831e-55
-5.45793e-55
-1.37934e-54
-3.49187e-54
-9.24778e-54
-2.30121e-53
-6.38657e-53
-1.56246e-52
-4.54414e-52
-1.09284e-51
-3.33069e-51
-7.86944e-51
-2.51344e-50
-5.82784e-50
-1.95071e-49
-4.43173e-49
-1.55469e-48
-3.4539e-48
-1.26998e-47
-2.75295e-47
-1.06108e-46
-2.2394e-46
-9.04901e-46
-1.85558e-45
-7.86223e-45
-1.56354e-44
-6.94811e-44
-1.3374e-43
-6.23497e-43
-1.16386e-42
-6.64585e-42
-1.15507e-41
-6.60271e-41
-1.10181e-40
-6.3088e-40
-9.97731e-40
-5.72622e-39
-8.43902e-39
-4.85824e-38
-6.524e-38
-3.77038e-37
-4.48328e-37
-2.60339e-36
-2.64239e-36
-1.54329e-35
-1.27231e-35
-7.48222e-35
-4.63615e-35
-2.74861e-34
-1.0406e-34
-6.22797e-34
-6.30201e-36
-3.81335e-35
-6.12221e-35
-3.75163e-34
2.16953e-33
8.55046e-33
5.60342e-32
2.21622e-31
1.25631e-30
5.06172e-30
2.80092e-29
1.15115e-28
6.27063e-28
2.63594e-27
1.41115e-26
6.11582e-26
1.13174e-24
-1.08441e-65
-1.29172e-65
-3.42436e-65
-4.27065e-65
-1.42414e-64
-1.86057e-64
-6.17203e-64
-8.44874e-64
-2.7486e-63
-3.94273e-63
-1.25678e-62
-1.88931e-62
-5.89948e-62
-9.29468e-62
-2.84259e-61
-4.69384e-61
-1.40574e-60
-2.43287e-60
-7.13391e-60
-1.29403e-59
-3.71482e-59
-7.06234e-59
-1.98474e-58
-3.9546e-58
-1.08798e-57
-2.27194e-57
-6.11951e-57
-1.33925e-56
-3.53235e-56
-8.10143e-56
-2.09303e-55
-5.03055e-55
-1.27353e-54
-3.20761e-54
-7.96067e-54
-2.10111e-53
-5.11437e-53
-1.41452e-52
-3.37827e-52
-9.79105e-52
-2.29472e-51
-6.96919e-51
-1.60259e-50
-5.10036e-50
-1.15002e-49
-3.83548e-49
-8.46974e-49
-2.96033e-48
-6.39117e-48
-2.34118e-47
-4.93064e-47
-1.89313e-46
-3.87964e-46
-1.5615e-45
-3.10576e-45
-1.31058e-44
-2.52348e-44
-1.11667e-43
-2.07631e-43
-9.63747e-43
-1.7337e-42
-9.85423e-42
-1.64548e-41
-9.36049e-41
-1.50096e-40
-8.55028e-40
-1.30223e-39
-7.43329e-39
-1.05941e-38
-6.06373e-38
-7.91702e-38
-4.54732e-37
-5.28567e-37
-3.04918e-36
-3.03816e-36
-1.76195e-35
-1.42793e-35
-8.33387e-35
-5.0422e-35
-2.965e-34
-1.03375e-34
-6.13258e-34
-8.39556e-36
-5.03174e-35
-2.7946e-35
-1.69478e-34
3.53787e-33
1.27564e-32
8.36886e-32
3.08461e-31
1.85417e-30
6.96815e-30
4.10162e-29
1.57429e-28
9.13287e-28
3.59565e-27
2.04395e-26
8.28678e-26
1.51277e-24
-2.90099e-65
-3.44407e-65
-9.11855e-65
-1.13343e-64
-3.7717e-64
-4.91117e-64
-1.62567e-63
-2.21794e-63
-7.19822e-63
-1.02911e-62
-3.2715e-62
-4.90159e-62
-1.52586e-61
-2.39597e-61
-7.302e-61
-1.20171e-60
-3.5846e-60
-6.18299e-60
-1.80473e-59
-3.26264e-59
-9.31662e-59
-1.76527e-58
-4.93048e-58
-9.79098e-58
-2.6744e-57
-5.56593e-57
-1.48668e-56
-3.24257e-56
-8.46913e-56
-1.93579e-55
-4.94434e-55
-1.1843e-54
-2.95862e-54
-7.42621e-54
-1.81505e-53
-4.77398e-53
-1.14196e-52
-3.14735e-52
-7.3709e-52
-2.12871e-51
-4.88233e-51
-1.47748e-50
-3.319e-50
-1.05246e-49
-2.315e-49
-7.69232e-49
-1.65553e-48
-5.76457e-48
-1.21222e-47
-4.42343e-47
-9.07044e-47
-3.46887e-46
-6.918e-46
-2.7731e-45
-5.36236e-45
-2.25335e-44
-4.21089e-44
-1.85529e-43
-3.33896e-43
-1.54284e-42
-2.67682e-42
-1.51426e-41
-2.42558e-41
-1.37291e-40
-2.1053e-40
-1.19294e-39
-1.73514e-39
-9.84873e-39
-1.34215e-38
-7.63615e-38
-9.56856e-38
-5.46093e-37
-6.12407e-37
-3.5088e-36
-3.39084e-36
-1.95216e-35
-1.53948e-35
-8.91466e-35
-5.22655e-35
-3.04754e-34
-9.62802e-35
-5.65987e-34
-1.21879e-35
-7.23301e-35
3.61628e-36
2.21226e-35
4.50007e-33
1.52804e-32
1.0415e-31
3.64517e-31
2.323e-30
8.32367e-30
5.18695e-29
1.90692e-28
1.17387e-27
4.44773e-27
2.63945e-26
1.03956e-25
1.79484e-24
-7.47875e-65
-8.84903e-65
-2.34128e-64
-2.90044e-64
-9.63661e-64
-1.25058e-63
-4.13311e-63
-5.61995e-63
-1.82074e-62
-2.5943e-62
-8.2309e-62
-1.22906e-61
-3.8175e-61
-5.9742e-61
-1.81611e-60
-2.97873e-60
-8.8597e-60
-1.52302e-59
-4.43084e-59
-7.98305e-59
-2.27095e-58
-4.28826e-58
-1.19246e-57
-2.35994e-57
-6.41309e-57
-1.33013e-56
-3.53144e-56
-7.67596e-56
-1.99066e-55
-4.53437e-55
-1.14849e-54
-2.74142e-54
-6.78133e-54
-1.69619e-53
-4.09793e-53
-1.07405e-52
-2.53472e-52
-6.96113e-52
-1.6051e-51
-4.61884e-51
-1.04083e-50
-3.13826e-50
-6.91253e-50
-2.18385e-49
-4.70176e-49
-1.55642e-48
-3.27398e-48
-1.13562e-47
-2.33174e-47
-8.47512e-47
-1.69578e-46
-6.45909e-46
-1.25637e-45
-5.01527e-45
-9.45324e-45
-3.95535e-44
-7.19678e-44
-3.15675e-43
-5.52023e-43
-2.53893e-42
-4.26649e-42
-2.40175e-41
-3.70444e-41
-2.08596e-40
-3.06471e-40
-1.72711e-39
-2.39553e-39
-1.35184e-38
-1.75148e-38
-9.90367e-38
-1.17943e-37
-6.687e-37
-7.14367e-37
-4.06425e-36
-3.75632e-36
-2.14632e-35
-1.62407e-35
-9.32868e-35
-5.22284e-35
-3.01901e-34
-8.15699e-35
-4.75044e-34
-1.86364e-35
-1.09489e-34
6.45818e-35
1.84522e-34
5.32546e-33
1.7301e-32
1.23873e-31
4.17797e-31
2.82038e-30
9.79302e-30
6.46126e-29
2.31804e-28
1.50866e-27
5.59586e-27
3.53661e-26
1.3866e-25
2.67111e-24
-1.85926e-64
-2.1925e-64
-5.79939e-64
-7.16022e-64
-2.37608e-63
-3.07314e-63
-1.01445e-62
-1.37472e-62
-4.44791e-62
-6.31621e-62
-2.00096e-61
-2.97775e-61
-9.23349e-61
-1.44009e-60
-4.36947e-60
-7.1423e-60
-2.1198e-59
-3.6316e-59
-1.05394e-58
-1.89241e-58
-5.3683e-58
-1.01023e-57
-2.80016e-57
-5.52261e-57
-1.49512e-56
-3.09031e-56
-8.16858e-56
-1.76938e-55
-4.56482e-55
-1.03617e-54
-2.60832e-54
-6.20415e-54
-1.52346e-53
-3.79712e-53
-9.09391e-53
-2.37497e-52
-5.54713e-52
-1.51792e-51
-3.45765e-51
-9.91344e-51
-2.20249e-50
-6.61627e-50
-1.43387e-49
-4.51293e-49
-9.54053e-49
-3.14609e-48
-6.48659e-48
-2.24115e-47
-4.50383e-47
-1.63043e-46
-3.18967e-46
-1.20992e-45
-2.29958e-45
-9.14067e-45
-1.6828e-44
-7.01015e-44
-1.24518e-43
-5.43691e-43
-9.27214e-43
-4.24433e-42
-6.94231e-42
-3.88851e-41
-5.81133e-41
-3.25504e-40
-4.61265e-40
-2.58488e-39
-3.43824e-39
-1.92872e-38
-2.38239e-38
-1.33858e-37
-1.51258e-37
-8.51791e-37
-8.6111e-37
-4.86377e-36
-4.25158e-36
-2.41055e-35
-1.72458e-35
-9.82407e-35
-5.14521e-35
-2.94773e-34
-5.9131e-35
-3.4108e-34
-2.86847e-35
-1.66794e-34
9.78995e-35
2.58028e-34
5.87298e-33
1.89807e-32
1.3989e-31
4.69166e-31
3.2947e-30
1.13821e-29
7.88267e-29
2.80934e-28
1.91078e-27
7.03588e-27
4.93483e-26
1.94351e-25
4.94362e-24
-4.46173e-64
-5.24361e-64
-1.38702e-63
-1.70669e-63
-5.65808e-63
-7.29317e-63
-2.40524e-62
-3.24839e-62
-1.04992e-61
-1.48587e-61
-4.70168e-61
-6.97303e-61
-2.15938e-60
-3.35634e-60
-1.01687e-59
-1.65648e-59
-4.90816e-59
-8.37974e-59
-2.42735e-58
-4.34345e-58
-1.2295e-57
-2.30576e-57
-6.37543e-57
-1.25304e-56
-3.38274e-56
-6.9676e-56
-1.83566e-55
-3.96229e-55
-1.01826e-54
-2.30323e-54
-5.77114e-54
-1.36787e-53
-3.3404e-53
-8.296e-53
-1.97375e-52
-5.1361e-52
-1.19013e-51
-3.24483e-51
-7.32148e-51
-2.0914e-50
-4.59442e-50
-1.37499e-49
-2.94067e-49
-9.2201e-49
-1.91959e-48
-6.30545e-48
-1.27774e-47
-4.39712e-47
-8.66901e-47
-3.12549e-46
-5.98978e-46
-2.26255e-45
-4.20821e-45
-1.66551e-44
-2.9989e-44
-1.24369e-43
-2.16004e-43
-9.38776e-43
-1.56505e-42
-7.12937e-42
-1.13926e-41
-6.34858e-41
-9.24473e-41
-5.15015e-40
-7.09244e-40
-3.95174e-39
-5.08625e-39
-2.8358e-38
-3.37031e-38
-1.88137e-37
-2.03237e-37
-1.13658e-36
-1.0915e-36
-6.11947e-36
-5.05243e-36
-2.84196e-35
-1.90813e-35
-1.07776e-34
-5.18828e-35
-2.94541e-34
-3.1645e-35
-1.80756e-34
-4.32296e-35
-2.48739e-34
1.7555e-34
5.34824e-34
7.4047e-33
2.56934e-32
1.78583e-31
6.34776e-31
4.29866e-30
1.55811e-29
1.03863e-28
3.81825e-28
2.61592e-27
9.90993e-27
7.75359e-26
3.15614e-25
8.2325e-24
-1.03469e-63
-1.21189e-63
-3.20636e-63
-3.93198e-63
-1.30249e-62
-1.6732e-62
-5.51389e-62
-7.42146e-62
-2.39667e-61
-3.38026e-61
-1.06857e-60
-1.57938e-60
-4.88565e-60
-7.56785e-60
-2.29003e-59
-3.71768e-59
-1.10006e-58
-1.87168e-58
-5.41342e-58
-9.65325e-58
-2.72786e-57
-5.09802e-57
-1.40687e-56
-2.75549e-56
-7.42224e-56
-1.52346e-55
-4.00335e-55
-8.61099e-55
-2.20629e-54
-4.97285e-54
-1.24163e-53
-2.93242e-53
-7.13095e-53
-1.76464e-52
-4.17714e-52
-1.08303e-51
-2.4943e-51
-6.77558e-51
-1.51756e-50
-4.31879e-50
-9.40346e-50
-2.80356e-49
-5.93236e-49
-1.85285e-48
-3.80922e-48
-1.24633e-47
-2.48877e-47
-8.53019e-47
-1.65385e-46
-5.93812e-46
-1.11705e-45
-4.20156e-45
-7.65933e-45
-3.01809e-44
-5.32102e-44
-2.19668e-43
-3.73392e-43
-1.61514e-42
-2.63515e-42
-1.19449e-41
-1.86836e-41
-1.03573e-40
-1.47458e-40
-8.16947e-40
-1.09939e-39
-6.0897e-39
-7.64538e-39
-4.23611e-38
-4.89472e-38
-2.71422e-37
-2.83699e-37
-1.57534e-36
-1.45489e-36
-8.09521e-36
-6.38077e-36
-3.56015e-35
-2.25974e-35
-1.26532e-34
-5.60721e-35
-3.15376e-34
-7.46416e-36
-4.22121e-35
-5.83648e-35
-3.32252e-34
3.8812e-34
1.29323e-33
1.21407e-32
4.42073e-32
2.88042e-31
1.06067e-30
6.83708e-30
2.52982e-29
1.61159e-28
6.01475e-28
4.26064e-27
1.62245e-26
1.42035e-25
5.39028e-25
1.12267e-23
-2.32164e-63
-2.71005e-63
-7.17271e-63
-8.76617e-63
-2.90183e-62
-3.7151e-62
-1.22348e-61
-1.64117e-61
-5.29605e-61
-7.44413e-61
-2.35128e-60
-3.46342e-60
-1.07036e-59
-1.65232e-59
-4.99467e-59
-8.08062e-59
-2.38825e-58
-4.04948e-58
-1.1697e-57
-2.07862e-57
-5.86536e-57
-1.09237e-56
-3.00964e-56
-5.87419e-56
-1.57939e-55
-3.23047e-55
-8.47135e-55
-1.81573e-54
-4.64109e-54
-1.04237e-53
-2.59533e-53
-6.10765e-53
-1.48034e-52
-3.65006e-52
-8.60617e-52
-2.22324e-51
-5.096e-51
-1.37918e-50
-3.07126e-50
-8.70771e-50
-1.88273e-49
-5.5918e-49
-1.17323e-48
-3.6501e-48
-7.42775e-48
-2.42062e-47
-4.77517e-47
-1.63003e-46
-3.11556e-46
-1.11397e-45
-2.06156e-45
-7.72085e-45
-1.38205e-44
-5.42166e-44
-9.37167e-44
-3.85111e-43
-6.41192e-43
-2.76025e-42
-4.40964e-42
-1.98886e-41
-3.04694e-41
-1.68014e-40
-2.34181e-40
-1.29013e-39
-1.70129e-39
-9.36759e-39
-1.15284e-38
-6.3471e-38
-7.1853e-38
-3.95749e-37
-4.04585e-37
-2.23042e-36
-2.00869e-36
-1.10906e-35
-8.48658e-36
-4.69612e-35
-2.87429e-35
-1.59526e-34
-6.70827e-35
-3.73747e-34
-3.48172e-36
-1.94915e-35
-6.72406e-35
-3.78643e-34
6.55153e-34
2.00109e-33
1.83537e-32
6.21677e-32
4.30799e-31
1.47468e-30
1.00095e-29
3.45037e-29
2.37206e-28
8.33702e-28
6.33017e-27
2.34572e-26
1.86259e-25
6.82241e-25
1.63602e-23
-5.04674e-63
-5.87117e-63
-1.55465e-62
-1.89361e-62
-6.26446e-62
-7.99308e-62
-2.6308e-61
-3.51699e-61
-1.13419e-60
-1.58881e-60
-5.01456e-60
-7.36131e-60
-2.27306e-59
-3.49695e-59
-1.05606e-58
-1.7027e-58
-5.02707e-58
-8.49459e-58
-2.45082e-57
-4.34024e-57
-1.22313e-56
-2.27009e-56
-6.24556e-56
-1.21477e-55
-3.26098e-55
-6.64668e-55
-1.7399e-54
-3.71615e-54
-9.47967e-54
-2.12155e-53
-5.27022e-53
-1.23582e-52
-2.98734e-52
-7.33927e-52
-1.72504e-51
-4.44003e-51
-1.01392e-50
-2.7339e-50
-6.0606e-50
-1.71185e-49
-3.68098e-49
-1.08908e-48
-2.26976e-48
-7.03403e-48
-1.41974e-47
-4.60831e-47
-9.0013e-47
-3.06007e-46
-5.77998e-46
-2.05795e-45
-3.75576e-45
-1.4005e-44
-2.46697e-44
-9.63438e-44
-1.63567e-43
-6.69024e-43
-1.09237e-42
-4.67976e-42
-7.325e-42
-3.28703e-41
-4.93327e-41
-2.70572e-40
-3.69255e-40
-2.0227e-39
-2.61546e-39
-1.43142e-38
-1.73009e-38
-9.46398e-38
-1.05378e-37
-5.76414e-37
-5.8022e-37
-3.17525e-36
-2.81696e-36
-1.54317e-35
-1.1631e-35
-6.38229e-35
-3.84626e-35
-2.11561e-34
-8.78615e-35
-4.84828e-34
-3.45687e-36
-1.9154e-35
-8.20783e-35
-4.57131e-34
8.47243e-34
2.33071e-33
2.32643e-32
7.3373e-32
5.41853e-31
1.72746e-30
1.25432e-29
4.07069e-29
3.05794e-28
1.025e-27
9.57578e-27
3.25984e-26
2.83674e-25
1.08024e-24
3.92549e-23
-1.06416e-62
-1.23385e-62
-3.26887e-62
-3.96827e-62
-1.31203e-61
-1.66846e-61
-5.48851e-61
-7.31268e-61
-2.35679e-60
-3.29036e-60
-1.03776e-59
-1.51827e-59
-4.6844e-59
-7.18221e-59
-2.16704e-58
-3.48207e-58
-1.02702e-57
-1.72951e-57
-4.98445e-57
-8.79689e-57
-2.47611e-56
-4.57975e-56
-1.25836e-55
-2.43904e-55
-6.53816e-55
-1.32799e-54
-3.47083e-54
-7.38716e-54
-1.88114e-53
-4.19509e-53
-1.04008e-52
-2.4302e-52
-5.86146e-52
-1.43484e-51
-3.36385e-51
-8.62646e-51
-1.964e-50
-5.27604e-50
-1.16542e-49
-3.2794e-49
-7.02123e-49
-2.06939e-48
-4.29016e-48
-1.32433e-47
-2.65584e-47
-8.58604e-47
-1.66393e-46
-5.63346e-46
-1.05392e-45
-3.73661e-45
-6.74119e-45
-2.50278e-44
-4.34895e-44
-1.69075e-43
-2.82558e-43
-1.1503e-42
-1.84523e-42
-7.86641e-42
-1.20783e-41
-5.39234e-41
-7.93237e-41
-4.32704e-40
-5.78138e-40
-3.14871e-39
-3.99092e-39
-2.17083e-38
-2.57673e-38
-1.40034e-37
-1.53497e-37
-8.33789e-37
-8.28498e-37
-4.5003e-36
-3.95271e-36
-2.14817e-35
-1.6083e-35
-8.75037e-35
-5.26388e-35
-2.8691e-34
-1.20884e-34
-6.60573e-34
-3.34237e-35
-1.83273e-34
-9.21871e-35
-5.07731e-34
9.32996e-34
2.38394e-33
2.65389e-32
7.9096e-32
6.15086e-31
1.86737e-30
1.46092e-29
4.55279e-29
3.82886e-28
1.25909e-27
1.15299e-26
3.82586e-26
5.08866e-25
1.94848e-24
7.26843e-23
-2.17934e-62
-2.51849e-62
-6.67603e-62
-8.07754e-62
-2.6692e-61
-3.38306e-61
-1.1123e-60
-1.47706e-60
-4.75755e-60
-6.61993e-60
-2.08644e-59
-3.0423e-59
-9.37922e-59
-1.43321e-58
-4.32053e-58
-6.91896e-58
-2.03875e-57
-3.42163e-57
-9.85075e-57
-1.73261e-56
-4.87128e-56
-8.97898e-56
-2.46405e-55
-4.75959e-55
-1.27415e-54
-2.57903e-54
-6.73074e-54
-1.42754e-53
-3.62948e-53
-8.06557e-53
-1.99622e-52
-4.64766e-52
-1.11882e-51
-2.72895e-51
-6.38385e-51
-1.63115e-50
-3.70442e-50
-9.9147e-50
-2.1837e-49
-6.12166e-49
-1.30615e-48
-3.83491e-48
-7.91749e-48
-2.43449e-47
-4.85765e-47
-1.56413e-46
-3.01258e-46
-1.01575e-45
-1.88598e-45
-6.65832e-45
-1.19019e-44
-4.39945e-44
-7.55997e-44
-2.92579e-43
-4.82527e-43
-1.95513e-42
-3.08844e-42
-1.31016e-41
-1.97712e-41
-8.78136e-41
-1.26774e-40
-6.87766e-40
-9.00084e-40
-4.87367e-39
-6.05336e-39
-3.27235e-38
-3.81162e-38
-2.05781e-37
-2.21883e-37
-1.19679e-36
-1.17365e-36
-6.32723e-36
-5.50732e-36
-2.96903e-35
-2.21436e-35
-1.19443e-34
-7.21341e-35
-3.89559e-34
-1.68337e-34
-9.10848e-34
-1.002e-34
-5.43658e-34
-9.45082e-35
-5.14668e-34
9.02726e-34
2.16233e-33
2.81177e-32
8.01105e-32
6.59688e-31
1.9475e-30
1.63807e-29
5.03757e-29
4.86537e-28
1.58331e-27
1.64854e-26
5.69674e-26
8.77313e-25
3.09575e-24
9.38414e-23
-4.34003e-62
-4.99899e-62
-1.3259e-61
-1.599e-61
-5.28097e-61
-6.6714e-61
-2.19233e-60
-2.9017e-60
-9.34071e-60
-1.29544e-59
-4.0801e-59
-5.92964e-59
-1.82664e-58
-2.78197e-58
-8.37916e-58
-1.33738e-57
-3.93695e-57
-6.58523e-57
-1.89388e-56
-3.31985e-56
-9.32329e-56
-1.71269e-55
-4.69433e-55
-9.03674e-55
-2.41601e-54
-4.87349e-54
-1.27011e-53
-2.68449e-53
-6.81505e-53
-1.50918e-52
-3.7292e-52
-8.65181e-52
-2.07911e-51
-5.05309e-51
-1.17982e-50
-3.00366e-50
-6.80695e-50
-1.81514e-49
-3.9882e-49
-1.11384e-48
-2.36993e-48
-6.93166e-48
-1.42641e-47
-4.36883e-47
-8.68311e-47
-2.78473e-46
-5.33794e-46
-1.7924e-45
-3.30862e-45
-1.16313e-44
-2.06426e-44
-7.59699e-44
-1.29404e-43
-4.98535e-43
-8.13482e-43
-3.28055e-42
-5.11674e-42
-2.15989e-41
-3.21151e-41
-1.41901e-40
-2.0147e-40
-1.087e-39
-1.39541e-39
-7.51156e-39
-9.14743e-39
-4.91418e-38
-5.61487e-38
-3.01122e-37
-3.19033e-37
-1.7086e-36
-1.65125e-36
-8.83459e-36
-7.61036e-36
-4.06954e-35
-3.02118e-35
-1.61551e-34
-9.79605e-35
-5.24126e-34
-2.32333e-34
-1.24464e-33
-2.04552e-34
-1.09806e-33
-8.66834e-35
-4.66698e-34
7.47745e-34
1.55386e-33
2.83634e-32
7.94835e-32
6.98737e-31
2.03856e-30
1.96874e-29
6.07352e-29
6.36909e-28
2.09083e-27
2.48448e-26
8.38924e-26
1.19226e-24
3.78586e-24
1.00856e-22
-8.41418e-62
-9.66059e-62
-2.56376e-61
-3.08189e-61
-1.01728e-60
-1.28098e-60
-4.20729e-60
-5.55067e-60
-1.7857e-59
-2.46852e-59
-7.76936e-59
-1.12545e-58
-3.46423e-58
-5.25875e-58
-1.58251e-57
-2.5175e-57
-7.4038e-57
-1.23432e-56
-3.54609e-56
-6.19543e-56
-1.73791e-55
-3.18188e-55
-8.71061e-55
-1.67118e-54
-4.46217e-54
-8.97042e-54
-2.33462e-53
-4.91756e-53
-1.2466e-52
-2.75103e-52
-6.78738e-52
-1.56918e-51
-3.76474e-51
-9.1175e-51
-2.12508e-50
-5.39074e-50
-1.21935e-49
-3.23967e-49
-7.10337e-49
-1.97649e-48
-4.19564e-48
-1.2225e-47
-2.50901e-47
-7.65479e-47
-1.5167e-46
-4.84477e-46
-9.25261e-46
-3.09416e-45
-5.68617e-45
-1.99051e-44
-3.51344e-44
-1.28738e-43
-2.17825e-43
-8.35372e-43
-1.35196e-42
-5.42633e-42
-8.37942e-42
-3.51967e-41
-5.17112e-41
-2.27303e-40
-3.18257e-40
-1.70765e-39
-2.15551e-39
-1.15352e-38
-1.37959e-38
-7.36511e-38
-8.26058e-38
-4.40053e-37
-4.57949e-37
-2.43506e-36
-2.31617e-36
-1.22975e-35
-1.0463e-35
-5.54927e-35
-4.09085e-35
-2.16837e-34
-1.31657e-34
-6.97823e-34
-3.15754e-34
-1.6746e-33
-3.49869e-34
-1.85801e-33
-6.99299e-35
-3.72185e-34
4.94657e-34
7.38401e-34
2.89567e-32
7.96872e-32
7.85687e-31
2.30386e-30
2.38051e-29
7.40358e-29
9.36579e-28
2.98788e-27
3.45009e-26
1.08831e-25
1.35702e-24
3.93628e-24
1.01296e-22
-1.58991e-61
-1.81967e-61
-4.83172e-61
-5.7899e-61
-1.91004e-60
-2.39757e-60
-7.87032e-60
-1.03504e-59
-3.32773e-59
-4.58555e-59
-1.44221e-58
-2.08247e-58
-6.40479e-58
-9.69132e-58
-2.91376e-57
-4.62031e-57
-1.35745e-56
-2.25572e-56
-6.47347e-56
-1.12729e-55
-3.15855e-55
-5.76386e-55
-1.57594e-54
-3.01351e-54
-8.03575e-54
-1.61005e-53
-4.18451e-53
-8.78437e-53
-2.22362e-52
-4.89041e-52
-1.20475e-51
-2.77567e-51
-6.64881e-51
-1.60458e-50
-3.73374e-50
-9.43785e-50
-2.13107e-49
-5.64153e-49
-1.23468e-48
-3.42281e-48
-7.2513e-48
-2.10489e-47
-4.31047e-47
-1.31003e-46
-2.5892e-46
-8.23797e-46
-1.5688e-45
-5.22485e-45
-9.56938e-45
-3.3358e-44
-5.86414e-44
-2.13937e-43
-3.60192e-43
-1.37511e-42
-2.21198e-42
-8.83632e-42
-1.35435e-41
-5.66074e-41
-8.24128e-41
-3.6038e-40
-4.99116e-40
-2.66331e-39
-3.31593e-39
-1.7641e-38
-2.07777e-38
-1.10229e-37
-1.21605e-37
-6.4347e-37
-6.58431e-37
-3.47601e-36
-3.25367e-36
-1.71426e-35
-1.43873e-35
-7.56793e-35
-5.52686e-35
-2.90377e-34
-1.75926e-34
-9.23682e-34
-4.23924e-34
-2.2256e-33
-5.42838e-34
-2.85166e-33
-5.11135e-35
-2.68896e-34
8.61449e-35
1.48699e-34
3.08272e-32
8.30192e-32
8.9012e-31
2.6243e-30
3.40595e-29
1.05422e-28
1.17968e-27
3.43944e-27
4.15931e-26
1.18576e-25
1.37355e-24
3.90039e-24
8.87897e-23
-2.93116e-61
-3.34443e-61
-8.88481e-61
-1.0614e-60
-3.49932e-60
-4.37896e-60
-1.4366e-59
-1.88345e-59
-6.05144e-59
-8.31282e-59
-2.61251e-58
-3.76051e-58
-1.1556e-57
-1.74307e-57
-5.23576e-57
-8.27598e-57
-2.42899e-56
-4.02347e-56
-1.15338e-55
-2.00205e-55
-5.60284e-55
-1.01913e-54
-2.78295e-54
-5.3042e-54
-1.41251e-53
-2.82083e-53
-7.32104e-53
-1.53178e-52
-3.87177e-52
-8.48663e-52
-2.08752e-51
-4.79316e-51
-1.14636e-50
-2.75701e-50
-6.40503e-50
-1.61334e-49
-3.63688e-49
-9.59349e-49
-2.09598e-48
-5.78938e-48
-1.22429e-47
-3.54062e-47
-7.23678e-47
-2.191e-46
-4.3215e-46
-1.36957e-45
-2.60222e-45
-8.63168e-45
-1.57683e-44
-5.47379e-44
-9.59378e-44
-3.4849e-43
-5.84639e-43
-2.22196e-42
-3.55876e-42
-1.41497e-41
-2.15725e-41
-8.97228e-41
-1.29774e-40
-5.64555e-40
-7.75726e-40
-4.11655e-39
-5.07238e-39
-2.6827e-38
-3.12233e-38
-1.64606e-37
-1.79186e-37
-9.41795e-37
-9.49977e-37
-4.97914e-36
-4.59382e-36
-2.40173e-35
-1.98913e-35
-1.03769e-34
-7.50069e-35
-3.906e-34
-2.35572e-34
-1.22514e-33
-5.67251e-34
-2.94786e-33
-7.98112e-34
-4.14713e-33
-3.97997e-35
-2.06941e-34
-2.82605e-34
-1.47169e-33
3.13043e-32
8.20622e-32
1.20353e-30
3.49918e-30
4.22871e-29
1.14846e-28
1.28118e-27
3.50374e-27
4.31217e-26
1.18982e-25
1.27674e-24
3.36292e-24
6.53985e-23
-5.27802e-61
-6.00411e-61
-1.59575e-60
-1.9006e-60
-6.26197e-60
-7.81247e-60
-2.56143e-59
-3.34799e-59
-1.07494e-58
-1.47215e-58
-4.62293e-58
-6.63403e-58
-2.03682e-57
-3.06284e-57
-9.19102e-57
-1.4483e-56
-4.24621e-56
-7.01167e-56
-2.00766e-55
-3.474e-55
-9.71018e-55
-1.76065e-54
-4.80153e-54
-9.12238e-54
-2.42595e-53
-4.82909e-53
-1.25151e-52
-2.61001e-52
-6.5873e-52
-1.43913e-51
-3.53448e-51
-8.08849e-51
-1.93143e-50
-4.62941e-50
-1.07376e-49
-2.69536e-49
-6.06609e-49
-1.59452e-48
-3.47793e-48
-9.57211e-48
-2.02082e-47
-5.82274e-47
-1.18808e-46
-3.5835e-46
-7.05549e-46
-2.22738e-45
-4.22417e-45
-1.39559e-44
-2.54435e-44
-8.79595e-44
-1.53823e-43
-5.56363e-43
-9.31015e-43
-3.52262e-42
-5.62523e-42
-2.22619e-41
-3.38198e-41
-1.39974e-40
-2.01581e-40
-8.72431e-40
-1.19248e-39
-6.29346e-39
-7.69956e-39
-4.04836e-38
-4.67281e-38
-2.44803e-37
-2.63946e-37
-1.378e-36
-1.37523e-36
-7.15627e-36
-6.52879e-36
-3.3871e-35
-2.77502e-35
-1.43572e-34
-1.02857e-34
-5.30887e-34
-3.18735e-34
-1.6419e-33
-7.64997e-34
-3.93501e-33
-1.14664e-33
-5.89307e-33
-4.69775e-35
-2.41404e-34
-4.65059e-34
-2.39148e-33
3.56517e-32
9.18491e-32
1.36537e-30
3.62763e-30
4.24171e-29
1.12568e-28
1.24403e-27
3.22634e-27
3.97651e-26
1.00529e-25
1.02261e-24
2.42353e-24
4.16683e-23
-9.29196e-61
-1.05395e-60
-2.80214e-60
-3.32772e-60
-1.09561e-59
-1.36289e-59
-4.46534e-59
-5.81941e-59
-1.86702e-58
-2.54937e-58
-7.9989e-58
-1.14445e-57
-3.51047e-57
-5.26303e-57
-1.57771e-56
-2.47864e-56
-7.25888e-56
-1.19501e-55
-3.41756e-55
-5.89558e-55
-1.64575e-54
-2.97488e-54