/*--------------------------------*- C++ -*----------------------------------*\
  =========                 |
  \\      /  F ield         | OpenFOAM: The Open Source CFD Toolbox
   \\    /   O peration     | Website:  https://openfoam.org
    \\  /    A nd           | Version:  9
     \\/     M anipulation  |
\*---------------------------------------------------------------------------*/
FoamFile
{
    format      ascii;
    class       volScalarField;
    location    "0.05";
    object      p;
}
// * * * * * * * * * * * * * * * * * * * * * * * * * * * * * * * * * * * * * //

dimensions      [1 -1 -2 0 0 0 0];

internalField   nonuniform List<scalar> 
5000
(
0.802089
0.802337
0.802488
0.802649
0.802826
0.803015
0.803218
0.803437
0.803671
0.803922
0.804188
0.804467
0.804756
0.805052
0.805348
0.805641
0.805927
0.806205
0.806476
0.806749
0.807037
0.807356
0.807729
0.808175
0.808708
0.809328
0.810021
0.810753
0.811481
0.81216
0.812805
0.813377
0.813891
0.814417
0.814995
0.815591
0.816111
0.816466
0.816635
0.81667
0.816635
0.816534
0.816293
0.815827
0.815107
0.814143
0.812903
0.811282
0.809202
0.806604
0.800148
0.800382
0.80052
0.800666
0.800828
0.801001
0.801187
0.801387
0.801603
0.801833
0.802077
0.802333
0.802598
0.802867
0.803135
0.803399
0.803655
0.803901
0.804142
0.804384
0.80464
0.804927
0.805266
0.805674
0.806163
0.806735
0.807373
0.808047
0.808712
0.809328
0.809904
0.810404
0.810851
0.811312
0.811818
0.812334
0.81277
0.813043
0.813139
0.813112
0.813027
0.812887
0.812623
0.812162
0.811492
0.810631
0.80955
0.808158
0.806391
0.804268
0.798206
0.798428
0.798552
0.798684
0.798832
0.798989
0.799158
0.799341
0.799537
0.799746
0.799967
0.800198
0.800435
0.800675
0.800914
0.801148
0.801375
0.801595
0.80181
0.80203
0.802266
0.802533
0.802847
0.803223
0.803669
0.804184
0.804754
0.805351
0.805939
0.806485
0.806999
0.80745
0.807854
0.808258
0.808683
0.809094
0.809423
0.809612
0.809656
0.809594
0.809469
0.809278
0.808974
0.808515
0.807893
0.807117
0.806168
0.80501
0.803607
0.801997
0.796264
0.796472
0.796583
0.7967
0.796832
0.796974
0.797126
0.79729
0.797467
0.797655
0.797853
0.79806
0.798271
0.798484
0.798695
0.798901
0.799101
0.799295
0.799489
0.799689
0.799906
0.800153
0.800443
0.800787
0.801189
0.801648
0.80215
0.802673
0.803188
0.803667
0.804121
0.804524
0.804882
0.805227
0.805567
0.805874
0.806099
0.806207
0.8062
0.806105
0.805942
0.805703
0.80536
0.804897
0.804313
0.803611
0.802788
0.801854
0.800814
0.799704
0.794321
0.794515
0.794611
0.794713
0.794829
0.794954
0.795089
0.795235
0.795392
0.79556
0.795737
0.79592
0.796108
0.796296
0.796481
0.796662
0.796837
0.797009
0.797182
0.797362
0.79756
0.797786
0.798049
0.798358
0.798716
0.799119
0.799558
0.800013
0.800461
0.800878
0.801275
0.801623
0.801929
0.802211
0.802471
0.802684
0.802816
0.802847
0.802783
0.802644
0.802437
0.802154
0.801781
0.801315
0.800764
0.800134
0.799435
0.798706
0.797991
0.797331
0.792377
0.792557
0.792637
0.792723
0.792823
0.792931
0.793049
0.793177
0.793316
0.793464
0.79362
0.793782
0.793947
0.794112
0.794274
0.794431
0.794584
0.794734
0.794887
0.795048
0.795227
0.79543
0.795666
0.795939
0.796252
0.796602
0.796981
0.797374
0.797759
0.798118
0.798456
0.798748
0.798997
0.799215
0.799399
0.799527
0.799574
0.799529
0.799403
0.799212
0.798955
0.798626
0.798221
0.797748
0.797219
0.796647
0.796057
0.795501
0.795056
0.794787
0.790433
0.790597
0.790662
0.790733
0.790816
0.790908
0.791009
0.791119
0.79124
0.79137
0.791507
0.791649
0.791793
0.791935
0.792075
0.79221
0.792341
0.792471
0.792604
0.792746
0.792904
0.793084
0.793291
0.793528
0.793798
0.794098
0.794422
0.794758
0.795087
0.79539
0.795669
0.7959
0.796089
0.796242
0.796353
0.7964
0.796364
0.796245
0.796055
0.795805
0.795493
0.795114
0.794673
0.794184
0.793663
0.793129
0.792622
0.792203
0.791963
0.792002
0.788488
0.788637
0.788687
0.788741
0.788809
0.788885
0.788969
0.789063
0.789167
0.789279
0.789398
0.789521
0.789645
0.789767
0.789886
0.79
0.79011
0.79022
0.790334
0.790456
0.790593
0.790749
0.790926
0.791128
0.791356
0.791609
0.791883
0.792167
0.792442
0.792691
0.792912
0.793081
0.793209
0.793297
0.793335
0.793302
0.793185
0.79299
0.792734
0.792422
0.792049
0.791614
0.791129
0.790612
0.790081
0.789561
0.789106
0.788781
0.788686
0.788939
0.786543
0.786676
0.786711
0.78675
0.786803
0.786863
0.786932
0.78701
0.787098
0.787194
0.787295
0.787401
0.787506
0.787609
0.787707
0.787801
0.787892
0.787982
0.788076
0.788179
0.788295
0.788426
0.788574
0.788741
0.788929
0.789138
0.789365
0.7896
0.789825
0.790022
0.790184
0.790292
0.790357
0.79038
0.790345
0.790233
0.790037
0.789767
0.789441
0.789061
0.788621
0.788123
0.787583
0.787024
0.786463
0.785932
0.785491
0.785212
0.785198
0.785571
0.784597
0.784715
0.784735
0.78476
0.784798
0.784843
0.784897
0.784961
0.785034
0.785114
0.7852
0.785289
0.785377
0.785461
0.78554
0.785615
0.785686
0.785757
0.785832
0.785916
0.78601
0.786116
0.786236
0.786369
0.786519
0.786686
0.78687
0.787059
0.787235
0.787381
0.787486
0.787532
0.787536
0.787493
0.787387
0.787197
0.786921
0.786576
0.786176
0.785722
0.785207
0.784637
0.784032
0.783414
0.782802
0.782231
0.781765
0.78148
0.781477
0.781877
0.78265
0.782754
0.78276
0.782771
0.782795
0.782826
0.782866
0.782916
0.782975
0.783042
0.783113
0.783186
0.783258
0.783324
0.783386
0.783441
0.783493
0.783546
0.783602
0.783666
0.783738
0.78382
0.783911
0.784012
0.784126
0.784254
0.784397
0.784543
0.784674
0.78477
0.784819
0.784804
0.784747
0.784639
0.784461
0.784194
0.783839
0.783417
0.78294
0.782405
0.781808
0.781156
0.780474
0.779779
0.779091
0.778452
0.777923
0.777578
0.777515
0.777849
0.780702
0.780793
0.780786
0.780784
0.780794
0.780813
0.78084
0.780878
0.780924
0.780977
0.781035
0.781094
0.781149
0.7812
0.781243
0.781281
0.781314
0.781348
0.781386
0.78143
0.781482
0.781539
0.781603
0.781672
0.781751
0.781843
0.781948
0.782054
0.78214
0.782189
0.782182
0.782108
0.781991
0.781818
0.781569
0.781224
0.780791
0.78029
0.779732
0.779111
0.778423
0.777682
0.776908
0.776117
0.775331
0.774593
0.773963
0.773504
0.773315
0.773496
0.778754
0.778831
0.778812
0.778798
0.778797
0.778803
0.778819
0.778845
0.778879
0.778921
0.778966
0.779011
0.779052
0.779087
0.779114
0.779133
0.779149
0.779165
0.779184
0.779209
0.77924
0.779274
0.77931
0.77935
0.779396
0.779455
0.779524
0.779592
0.779636
0.779639
0.779579
0.779446
0.779269
0.779033
0.778712
0.778291
0.777779
0.777198
0.776554
0.775841
0.775056
0.774216
0.773338
0.772432
0.771524
0.770658
0.769887
0.769268
0.768886
0.768836
0.776805
0.77687
0.77684
0.776814
0.776801
0.776797
0.776802
0.776818
0.776842
0.776873
0.776906
0.776939
0.776967
0.776986
0.776997
0.777
0.776998
0.776996
0.776997
0.777003
0.777014
0.777025
0.777036
0.777046
0.777062
0.777089
0.777125
0.777157
0.777161
0.77712
0.777008
0.776819
0.776584
0.776284
0.775892
0.775396
0.774806
0.774143
0.773409
0.772598
0.771709
0.770761
0.769766
0.76873
0.767677
0.766653
0.765706
0.764881
0.764251
0.763898
0.774855
0.774908
0.774868
0.774832
0.774809
0.774795
0.77479
0.774796
0.774811
0.774833
0.774856
0.774877
0.774892
0.774898
0.774893
0.774879
0.774861
0.774841
0.774825
0.774814
0.774804
0.774794
0.774779
0.774763
0.77475
0.774747
0.774753
0.774751
0.774717
0.774633
0.774472
0.774229
0.773936
0.773573
0.773111
0.77254
0.771873
0.771127
0.770301
0.769386
0.768387
0.767322
0.766198
0.765017
0.7638
0.762591
0.761434
0.760364
0.759436
0.758718
0.772904
0.772946
0.772896
0.772851
0.772819
0.772796
0.772783
0.772781
0.772788
0.7728
0.772815
0.772826
0.772829
0.772821
0.772802
0.772773
0.772738
0.772702
0.772669
0.77264
0.772612
0.77258
0.772542
0.7725
0.772461
0.772431
0.772408
0.772374
0.772305
0.77218
0.771973
0.771676
0.771327
0.770902
0.770372
0.769728
0.768984
0.768153
0.767232
0.76621
0.765094
0.763903
0.762639
0.761301
0.759904
0.758485
0.757086
0.755736
0.754468
0.753335
0.770951
0.770984
0.770926
0.770872
0.770832
0.7708
0.77078
0.770771
0.770771
0.770776
0.770782
0.770784
0.770776
0.770757
0.770724
0.77068
0.770629
0.770578
0.770529
0.770483
0.770437
0.770386
0.770326
0.77026
0.770196
0.770141
0.770091
0.770028
0.769925
0.769762
0.76951
0.769163
0.76876
0.768274
0.767677
0.766961
0.766141
0.765225
0.764207
0.763076
0.761839
0.760513
0.759099
0.757592
0.756001
0.754353
0.752684
0.751018
0.749375
0.747786
0.768998
0.769021
0.768955
0.768894
0.768846
0.768808
0.768782
0.768766
0.76876
0.768759
0.768758
0.768751
0.768734
0.768703
0.768658
0.7686
0.768535
0.768468
0.768404
0.768343
0.768281
0.768211
0.768131
0.768043
0.767957
0.767878
0.767804
0.767714
0.767579
0.767381
0.767086
0.766691
0.766236
0.765691
0.765029
0.764243
0.763347
0.762347
0.76123
0.759989
0.758629
0.757161
0.755587
0.753901
0.752105
0.750212
0.748251
0.746241
0.744188
0.742107
0.767044
0.767058
0.766985
0.766917
0.766863
0.766819
0.766787
0.766767
0.766755
0.766749
0.766742
0.766728
0.766703
0.766662
0.766604
0.766533
0.766455
0.766374
0.766296
0.766221
0.766143
0.766057
0.765959
0.765851
0.765744
0.765644
0.765547
0.765432
0.765268
0.765037
0.764703
0.764262
0.763756
0.763155
0.76243
0.761577
0.760606
0.759521
0.758307
0.756955
0.75547
0.753859
0.752118
0.750243
0.748231
0.746084
0.743818
0.74144
0.738948
0.736345
0.765088
0.765094
0.765016
0.764942
0.764883
0.764834
0.764797
0.764772
0.764756
0.764746
0.764734
0.764715
0.764682
0.764631
0.764563
0.76448
0.764389
0.764295
0.764204
0.764116
0.764025
0.763925
0.76381
0.763684
0.763558
0.763439
0.763322
0.763184
0.762994
0.762733
0.762362
0.761878
0.761323
0.760668
0.759883
0.758966
0.757923
0.756754
0.755442
0.753979
0.75237
0.750614
0.748704
0.746634
0.744398
0.741989
0.739409
0.736653
0.733704
0.730558
0.763132
0.76313
0.763047
0.762968
0.762904
0.762851
0.762811
0.762782
0.762764
0.76275
0.762734
0.762709
0.76267
0.762612
0.762534
0.76244
0.762337
0.762232
0.76213
0.76203
0.761928
0.761814
0.761685
0.761544
0.761402
0.761266
0.76113
0.760972
0.760758
0.76047
0.760066
0.759541
0.75894
0.758233
0.757392
0.756413
0.755302
0.754051
0.752642
0.751069
0.749335
0.747435
0.745356
0.743089
0.740623
0.737947
0.73505
0.731912
0.728502
0.724804
0.761174
0.761166
0.761078
0.760996
0.760929
0.760872
0.760829
0.760798
0.760777
0.76076
0.760741
0.760713
0.760669
0.760603
0.760517
0.760414
0.7603
0.760184
0.760072
0.759963
0.759851
0.759727
0.759586
0.759432
0.759275
0.759124
0.758972
0.758796
0.758561
0.758248
0.757814
0.757252
0.756609
0.755852
0.754958
0.753921
0.752745
0.751417
0.749916
0.748233
0.746373
0.74433
0.742087
0.739624
0.736926
0.73398
0.730765
0.727245
0.723379
0.719131
0.759216
0.759201
0.759111
0.759026
0.758955
0.758897
0.758851
0.758819
0.758796
0.758777
0.758757
0.758725
0.758676
0.758606
0.758512
0.7584
0.758277
0.758152
0.758031
0.757914
0.757795
0.757663
0.757513
0.757348
0.757179
0.757015
0.756849
0.756657
0.756405
0.75607
0.755609
0.755014
0.754331
0.753529
0.752585
0.751494
0.750257
0.748857
0.747268
0.745481
0.743496
0.741312
0.738907
0.736254
0.733328
0.730111
0.726578
0.72268
0.718365
0.713578
0.757256
0.757237
0.757145
0.757058
0.756986
0.756925
0.756878
0.756845
0.756821
0.756801
0.756779
0.756746
0.756694
0.756618
0.756519
0.756399
0.756268
0.756136
0.756008
0.755885
0.755761
0.755623
0.755467
0.755293
0.755114
0.754939
0.754763
0.754558
0.75429
0.753937
0.753453
0.752828
0.752109
0.751267
0.750276
0.749134
0.747839
0.746374
0.744706
0.74282
0.740716
0.73839
0.735828
0.732992
0.729846
0.726366
0.722521
0.718251
0.713496
0.708184
0.755296
0.755273
0.75518
0.755092
0.755019
0.754958
0.75491
0.754876
0.754852
0.754832
0.754809
0.754775
0.754721
0.754642
0.754537
0.754412
0.754275
0.754136
0.754002
0.753876
0.753748
0.753608
0.753448
0.753269
0.753082
0.752899
0.752713
0.752498
0.752218
0.751851
0.751347
0.750695
0.749946
0.749067
0.748034
0.746845
0.745497
0.74397
0.742232
0.740259
0.738042
0.735581
0.732864
0.729852
0.726496
0.722765
0.71862
0.713992
0.708812
0.702996
0.753336
0.75331
0.753217
0.75313
0.753057
0.752995
0.752948
0.752914
0.75289
0.75287
0.752847
0.752812
0.752756
0.752675
0.752568
0.752438
0.752295
0.752152
0.752015
0.751887
0.751759
0.751619
0.751457
0.751275
0.751084
0.750894
0.750701
0.750479
0.75019
0.749811
0.749291
0.748618
0.747842
0.746932
0.745863
0.744631
0.743233
0.74165
0.739849
0.7378
0.735483
0.732896
0.730031
0.726849
0.723296
0.719329
0.7149
0.709934
0.704351
0.698058
0.751375
0.751347
0.751256
0.751171
0.751099
0.751038
0.750992
0.750958
0.750934
0.750914
0.750892
0.750857
0.750801
0.750719
0.750609
0.750477
0.750331
0.750184
0.750046
0.749917
0.749792
0.749655
0.749495
0.749314
0.74912
0.748926
0.748729
0.748501
0.748207
0.74782
0.747288
0.746598
0.7458
0.744864
0.743765
0.742497
0.741054
0.739419
0.737561
0.735446
0.733045
0.730345
0.727343
0.724002
0.720262
0.716075
0.711384
0.706104
0.700147
0.69341
0.749413
0.749386
0.749298
0.749216
0.749146
0.749087
0.749042
0.749009
0.748985
0.748966
0.748944
0.74891
0.748855
0.748773
0.748663
0.748529
0.748382
0.748234
0.748095
0.747969
0.747847
0.747716
0.747562
0.747384
0.747191
0.746996
0.746795
0.746565
0.746268
0.745878
0.745339
0.744635
0.74382
0.742864
0.741742
0.740445
0.738964
0.737282
0.735373
0.733202
0.730729
0.727936
0.724814
0.721327
0.717416
0.713026
0.708093
0.702527
0.69623
0.689085
0.747452
0.747426
0.747343
0.747265
0.747199
0.747143
0.747099
0.747067
0.747044
0.747025
0.747003
0.74697
0.746917
0.746837
0.746728
0.746595
0.746448
0.7463
0.746163
0.746041
0.745927
0.745804
0.745659
0.745487
0.745297
0.745103
0.744903
0.744673
0.744377
0.743985
0.743443
0.742731
0.741904
0.740933
0.739795
0.738477
0.736967
0.735246
0.733292
0.731072
0.728541
0.725671
0.722448
0.718836
0.714773
0.7102
0.705051
0.699228
0.692625
0.685116
0.745491
0.745468
0.745391
0.745319
0.745258
0.745205
0.745163
0.745132
0.745109
0.745091
0.74507
0.745039
0.744988
0.74491
0.744805
0.744674
0.744529
0.744384
0.744251
0.744135
0.74403
0.743918
0.743785
0.743622
0.743439
0.743248
0.743051
0.742824
0.742531
0.742143
0.741602
0.740887
0.740053
0.739072
0.737924
0.736593
0.735064
0.733315
0.731324
0.729062
0.726484
0.723553
0.72025
0.716534
0.712344
0.707615
0.702278
0.696232
0.689362
0.681532
0.74353
0.743512
0.743444
0.743379
0.743323
0.743274
0.743235
0.743205
0.743183
0.743165
0.743144
0.743115
0.743067
0.742994
0.742893
0.742767
0.742627
0.742486
0.742358
0.742251
0.742156
0.742059
0.74194
0.74179
0.741617
0.741432
0.74124
0.741019
0.740733
0.740351
0.739815
0.739104
0.738268
0.737284
0.73613
0.734794
0.733256
0.73149
0.729474
0.727181
0.724565
0.721588
0.718223
0.714427
0.710136
0.705281
0.699788
0.693554
0.686459
0.678359
0.74157
0.741558
0.7415
0.741444
0.741395
0.741351
0.741315
0.741286
0.741264
0.741245
0.741226
0.741198
0.741154
0.741086
0.740992
0.740874
0.74074
0.740606
0.740486
0.740388
0.740307
0.740227
0.740125
0.739992
0.73983
0.739655
0.73947
0.739258
0.738982
0.73861
0.738084
0.737381
0.73655
0.735569
0.734417
0.733081
0.731542
0.729772
0.727744
0.725432
0.722792
0.719784
0.716374
0.712519
0.708152
0.703201
0.697588
0.691208
0.683933
0.675615
0.73961
0.739606
0.73956
0.739515
0.739474
0.739436
0.739403
0.739375
0.739353
0.739334
0.739314
0.739288
0.739248
0.739188
0.739103
0.738994
0.73887
0.738745
0.738635
0.738548
0.738482
0.738421
0.73834
0.738226
0.73808
0.737916
0.737741
0.737541
0.737278
0.73692
0.736408
0.735718
0.734899
0.733927
0.732783
0.731455
0.729924
0.728159
0.726134
0.723818
0.72117
0.718146
0.71471
0.710817
0.7064
0.701383
0.695685
0.689199
0.681793
0.673312
0.737649
0.737654
0.737622
0.73759
0.737559
0.737527
0.737498
0.737472
0.737449
0.737429
0.737409
0.737385
0.737351
0.737299
0.737224
0.737128
0.737016
0.736903
0.736804
0.736731
0.736682
0.736641
0.736584
0.736493
0.736366
0.736216
0.736054
0.735867
0.735622
0.735281
0.734787
0.734114
0.733313
0.732359
0.731232
0.729918
0.728401
0.726652
0.724641
0.722337
0.719698
0.716678
0.713237
0.709329
0.704887
0.699835
0.694087
0.687537
0.680048
0.671462
0.735689
0.735705
0.735689
0.73567
0.735649
0.735626
0.735601
0.735576
0.735553
0.735531
0.735511
0.735489
0.735461
0.735418
0.735357
0.735275
0.735179
0.735081
0.734996
0.734938
0.734907
0.734888
0.734857
0.734792
0.734687
0.734554
0.734406
0.734236
0.734011
0.733693
0.733222
0.732571
0.731791
0.730862
0.72976
0.728471
0.726977
0.725251
0.723265
0.720988
0.718375
0.715379
0.711956
0.708059
0.703619
0.698564
0.692804
0.686231
0.67871
0.670079
0.73373
0.733759
0.733759
0.733755
0.733746
0.733731
0.733711
0.733688
0.733664
0.733641
0.73362
0.7336
0.733578
0.733546
0.7335
0.733437
0.733359
0.733279
0.733211
0.733169
0.733157
0.733162
0.733159
0.733123
0.733043
0.73293
0.732799
0.732647
0.732446
0.732155
0.731712
0.731088
0.730335
0.729436
0.728368
0.727113
0.725651
0.723958
0.722007
0.719768
0.717198
0.714246
0.710865
0.707004
0.702599
0.697574
0.691841
0.685291
0.677788
0.669172
0.731771
0.731814
0.731831
0.731843
0.731847
0.731841
0.731827
0.731806
0.731782
0.731757
0.731736
0.731718
0.731703
0.731683
0.731654
0.731612
0.731556
0.731497
0.731448
0.731424
0.731432
0.731462
0.731488
0.731483
0.731433
0.731343
0.731231
0.731099
0.730924
0.730664
0.730256
0.729666
0.728943
0.728079
0.727053
0.725841
0.724422
0.722773
0.720867
0.718678
0.716164
0.713273
0.709956
0.70616
0.70182
0.696861
0.691195
0.684714
0.677284
0.668744
0.729813
0.72987
0.729905
0.729934
0.729952
0.729956
0.729948
0.72993
0.729906
0.72988
0.729859
0.729844
0.729835
0.729829
0.729819
0.7298
0.72977
0.729735
0.729708
0.729705
0.729733
0.729787
0.729844
0.729874
0.729856
0.729793
0.729702
0.729591
0.729443
0.729218
0.728852
0.728302
0.727617
0.726792
0.725812
0.724652
0.723288
0.721693
0.719845
0.717718
0.715272
0.712458
0.709224
0.705517
0.701272
0.696415
0.690858
0.684493
0.677189
0.668787
0.727855
0.727926
0.72798
0.728026
0.728058
0.728073
0.728072
0.728058
0.728035
0.72801
0.727989
0.727977
0.727976
0.727984
0.727995
0.728001
0.728
0.727994
0.727992
0.72801
0.72806
0.728139
0.728226
0.728292
0.728311
0.728279
0.728211
0.728122
0.728002
0.727815
0.727497
0.726996
0.726354
0.725575
0.724646
0.723545
0.722243
0.720716
0.718938
0.716886
0.714521
0.711798
0.708666
0.70507
0.700948
0.696225
0.690815
0.684612
0.677488
0.669286
0.725897
0.725982
0.726055
0.726117
0.726163
0.72619
0.726198
0.726189
0.726169
0.726145
0.726126
0.726118
0.726126
0.726148
0.726181
0.726216
0.726246
0.726271
0.726298
0.726341
0.726413
0.726516
0.726634
0.726736
0.726794
0.726798
0.726758
0.726693
0.7266
0.726452
0.726186
0.725743
0.725154
0.724428
0.723555
0.722516
0.721286
0.719835
0.718141
0.716177
0.713909
0.711292
0.708278
0.704814
0.700838
0.696279
0.691052
0.685054
0.67816
0.670219
0.723938
0.724036
0.724127
0.724206
0.724267
0.724306
0.724324
0.724322
0.724307
0.724287
0.724271
0.724268
0.724285
0.724323
0.724379
0.724443
0.724508
0.724568
0.724627
0.724697
0.724793
0.724919
0.725065
0.725204
0.725305
0.725349
0.725342
0.725302
0.725237
0.725127
0.724915
0.724537
0.724013
0.723348
0.722538
0.721567
0.720413
0.719048
0.717449
0.715587
0.713428
0.710933
0.708054
0.704741
0.700935
0.696568
0.691557
0.685803
0.679186
0.67156
0.721979
0.722089
0.722196
0.722291
0.722366
0.722418
0.722447
0.722456
0.722448
0.722434
0.722424
0.722428
0.722456
0.72251
0.722588
0.722683
0.722784
0.722883
0.722978
0.723078
0.723198
0.723347
0.723521
0.723695
0.723839
0.723928
0.72396
0.723951
0.723914
0.723839
0.723681
0.723374
0.722923
0.72233
0.721591
0.720695
0.719623
0.718351
0.716855
0.715107
0.713073
0.710713
0.707986
0.704843
0.70123
0.69708
0.692314
0.68684
0.680542
0.673284
0.720019
0.720139
0.72026
0.72037
0.720459
0.720525
0.720567
0.720587
0.72059
0.720586
0.720585
0.720599
0.720638
0.720709
0.72081
0.720936
0.721074
0.721213
0.721348
0.721482
0.721629
0.721802
0.722
0.722207
0.722394
0.722531
0.722608
0.722636
0.72263
0.72259
0.722484
0.722249
0.721878
0.721367
0.72071
0.719897
0.718913
0.717741
0.716356
0.714731
0.712832
0.710623
0.708064
0.705109
0.701708
0.697798
0.693305
0.688143
0.682203
0.675358
0.718058
0.718185
0.718319
0.718441
0.718544
0.718624
0.718681
0.718715
0.718733
0.718742
0.718754
0.718781
0.718834
0.718922
0.719047
0.719202
0.719377
0.719559
0.719736
0.719908
0.720086
0.720282
0.720503
0.720741
0.720968
0.721155
0.721283
0.721354
0.721384
0.72138
0.721323
0.721159
0.720872
0.720452
0.719886
0.719165
0.71828
0.717215
0.715948
0.714453
0.7127
0.710653
0.708275
0.705524
0.702353
0.698703
0.694508
0.689685
0.684136
0.677744
0.716096
0.716228
0.716371
0.716504
0.716619
0.716713
0.716787
0.716839
0.716875
0.716902
0.716931
0.716974
0.717045
0.717151
0.717298
0.717483
0.717694
0.717917
0.718139
0.718353
0.718564
0.718787
0.719031
0.719295
0.71956
0.719795
0.719977
0.7201
0.720173
0.720208
0.720201
0.720106
0.719903
0.719577
0.719111
0.718493
0.717715
0.716765
0.715624
0.714268
0.712667
0.710792
0.708606
0.706072
0.703147
0.699776
0.695897
0.691436
0.686305
0.680399
0.714133
0.714266
0.714416
0.714559
0.714685
0.714794
0.714885
0.714957
0.715015
0.715065
0.715116
0.71518
0.71527
0.715397
0.715567
0.715778
0.716024
0.716288
0.716555
0.716813
0.717063
0.717315
0.717582
0.717871
0.718169
0.71845
0.718688
0.718868
0.718993
0.719073
0.719117
0.719091
0.71897
0.718739
0.718376
0.71787
0.717209
0.716384
0.715377
0.714166
0.712727
0.71103
0.709047
0.706741
0.704072
0.700993
0.697447
0.693367
0.688675
0.683278
0.712168
0.712301
0.712455
0.712604
0.712741
0.712864
0.712974
0.713069
0.713153
0.71323
0.713307
0.713397
0.713511
0.71366
0.713853
0.714091
0.714368
0.71467
0.714981
0.715286
0.715578
0.715863
0.716157
0.716469
0.716796
0.717119
0.717411
0.717651
0.717836
0.71797
0.718071
0.718113
0.718073
0.717934
0.717678
0.717288
0.716753
0.716061
0.715196
0.714139
0.712868
0.711359
0.709584
0.707514
0.705112
0.702335
0.699132
0.695445
0.691206
0.686336
0.710203
0.710332
0.710488
0.710642
0.710788
0.710925
0.711055
0.711175
0.711288
0.711396
0.711506
0.711626
0.711768
0.711942
0.712158
0.712421
0.712726
0.713064
0.713417
0.713767
0.714104
0.714429
0.714752
0.715088
0.715442
0.715801
0.716143
0.716446
0.716695
0.716892
0.717058
0.717173
0.717212
0.717165
0.717013
0.716741
0.716336
0.715785
0.71507
0.714174
0.713079
0.711764
0.710206
0.708378
0.706249
0.70378
0.700927
0.69764
0.693863
0.689529
0.708236
0.70836
0.708516
0.708674
0.708827
0.708979
0.709129
0.709276
0.70942
0.709563
0.709709
0.709864
0.710038
0.710241
0.710482
0.710769
0.7111
0.711469
0.71186
0.712254
0.712638
0.713005
0.713364
0.713727
0.714106
0.714497
0.714885
0.715246
0.715564
0.71583
0.71607
0.716264
0.716385
0.716429
0.716381
0.716228
0.715955
0.715547
0.714988
0.71426
0.713347
0.712232
0.710896
0.709316
0.707464
0.705307
0.702808
0.699925
0.696611
0.692813
0.706269
0.706386
0.706541
0.706701
0.706862
0.707028
0.707198
0.707372
0.70755
0.70773
0.707916
0.708111
0.708322
0.708556
0.708825
0.709135
0.70949
0.709886
0.71031
0.710746
0.711175
0.711589
0.711987
0.712383
0.712789
0.71321
0.713638
0.714053
0.714437
0.714777
0.7151
0.71538
0.715588
0.715724
0.715781
0.715745
0.715604
0.715341
0.71494
0.714383
0.713658
0.712748
0.711639
0.71031
0.708738
0.706894
0.704748
0.702267
0.699413
0.696146
0.704302
0.704412
0.704566
0.704728
0.704896
0.705075
0.705266
0.705468
0.705679
0.705899
0.706127
0.706365
0.706615
0.706886
0.707184
0.70752
0.707897
0.708316
0.708768
0.70924
0.709713
0.710173
0.710616
0.71105
0.711488
0.711939
0.712402
0.712867
0.713314
0.713728
0.714137
0.714511
0.714813
0.715046
0.715209
0.715291
0.715281
0.715162
0.714919
0.714536
0.714
0.713299
0.712418
0.711342
0.71005
0.708518
0.706723
0.704638
0.702235
0.699485
0.702333
0.702438
0.702592
0.702757
0.702933
0.703125
0.703336
0.703565
0.70381
0.704069
0.704341
0.704623
0.704917
0.705227
0.705558
0.70592
0.70632
0.706759
0.707235
0.707737
0.708249
0.708755
0.709245
0.709723
0.710197
0.710681
0.711179
0.711688
0.712193
0.712678
0.713175
0.713648
0.714049
0.714387
0.714659
0.71486
0.714981
0.715005
0.714919
0.714709
0.714363
0.713871
0.713219
0.712395
0.71138
0.710156
0.708705
0.707006
0.705041
0.70279
0.700367
0.700469
0.700623
0.700793
0.700977
0.701182
0.701412
0.701667
0.701944
0.702242
0.702557
0.702885
0.703224
0.703575
0.703943
0.704334
0.704757
0.705216
0.705711
0.706238
0.706783
0.707331
0.707869
0.708394
0.708912
0.709433
0.709967
0.710517
0.711075
0.711627
0.712209
0.712783
0.713289
0.713736
0.714123
0.714446
0.714698
0.714865
0.714934
0.714896
0.714739
0.714453
0.714028
0.713452
0.71271
0.711787
0.710669
0.709343
0.707798
0.706022
0.698401
0.698503
0.698662
0.698837
0.699031
0.69925
0.6995
0.699779
0.700087
0.70042
0.700776
0.701148
0.701533
0.701928
0.702334
0.702758
0.703205
0.703684
0.704197
0.704744
0.705316
0.705901
0.706484
0.707058
0.707623
0.708188
0.708763
0.709355
0.709962
0.710575
0.711239
0.711912
0.712525
0.713084
0.71359
0.714039
0.714423
0.714733
0.714958
0.715089
0.715118
0.715036
0.714833
0.714499
0.714022
0.71339
0.712593
0.711624
0.710476
0.709145
0.696437
0.696542
0.696708
0.696894
0.697099
0.697334
0.697601
0.697903
0.698239
0.698606
0.698999
0.699413
0.699842
0.70028
0.700728
0.701186
0.701661
0.702161
0.702691
0.703255
0.703849
0.704465
0.705088
0.70571
0.706326
0.70694
0.70756
0.708196
0.708852
0.709524
0.710263
0.711032
0.711751
0.712425
0.713052
0.713629
0.714147
0.7146
0.71498
0.71528
0.715492
0.715609
0.715623
0.715524
0.715302
0.714949
0.714458
0.713824
0.713048
0.71213
0.694473
0.694587
0.694765
0.694964
0.695184
0.695434
0.695721
0.696044
0.696405
0.696801
0.697228
0.697679
0.698149
0.69863
0.699118
0.699614
0.70012
0.700643
0.701191
0.70177
0.702383
0.703023
0.703682
0.704348
0.705014
0.70568
0.706351
0.707037
0.707744
0.708471
0.709283
0.710144
0.710966
0.711753
0.712502
0.713206
0.71386
0.714457
0.714992
0.715458
0.715851
0.716163
0.716387
0.716514
0.716537
0.716448
0.716245
0.715925
0.715492
0.71495
0.692511
0.692638
0.692834
0.69305
0.693287
0.693555
0.69386
0.694204
0.694587
0.695008
0.695463
0.695947
0.696453
0.696974
0.697502
0.698035
0.698575
0.699125
0.699694
0.70029
0.700918
0.701578
0.702265
0.70297
0.703684
0.704403
0.705129
0.705869
0.70663
0.707415
0.708297
0.709246
0.710168
0.711066
0.711933
0.712763
0.713552
0.714293
0.714982
0.715614
0.716184
0.716686
0.717113
0.717457
0.717712
0.717874
0.717939
0.717909
0.717788
0.717586
0.690551
0.690696
0.690913
0.691151
0.691408
0.691696
0.692021
0.692384
0.692786
0.693229
0.693708
0.694219
0.694756
0.695311
0.695876
0.696447
0.697021
0.697602
0.698195
0.698809
0.699453
0.70013
0.700841
0.701578
0.702335
0.703105
0.703887
0.704685
0.705504
0.70635
0.707303
0.708339
0.709357
0.71036
0.711342
0.712296
0.713218
0.714101
0.714942
0.715737
0.716481
0.717167
0.71779
0.718342
0.718817
0.719213
0.719527
0.719762
0.719923
0.720021
0.688591
0.68876
0.689003
0.689266
0.689547
0.689858
0.690202
0.690584
0.691004
0.691464
0.691962
0.692495
0.693056
0.69364
0.694238
0.694844
0.695453
0.696066
0.696687
0.697323
0.697985
0.698679
0.699409
0.700173
0.700967
0.701784
0.70262
0.703477
0.704358
0.705267
0.706294
0.707417
0.70853
0.709636
0.710728
0.711802
0.712852
0.713875
0.714865
0.715819
0.716732
0.717597
0.718407
0.719157
0.71984
0.720454
0.720997
0.721471
0.721883
0.722242
0.686632
0.686829
0.687102
0.687394
0.687702
0.688037
0.688403
0.688803
0.689239
0.689714
0.690227
0.690775
0.691356
0.691963
0.692588
0.693225
0.693867
0.694514
0.695165
0.695827
0.69651
0.697222
0.69797
0.698757
0.699581
0.700439
0.701326
0.702241
0.703185
0.704161
0.705264
0.706476
0.707682
0.708887
0.710086
0.711276
0.712452
0.71361
0.714746
0.715854
0.71693
0.717966
0.718956
0.719892
0.72077
0.721586
0.722338
0.723027
0.723659
0.724241
0.684674
0.684901
0.685208
0.685532
0.68587
0.686231
0.686619
0.687038
0.68749
0.687977
0.688501
0.689062
0.689655
0.690279
0.690925
0.691588
0.692261
0.69294
0.693623
0.694315
0.695022
0.695755
0.696522
0.697329
0.698179
0.699072
0.700004
0.700973
0.701979
0.703023
0.704205
0.705506
0.706806
0.708109
0.709413
0.710716
0.712013
0.713303
0.714579
0.715837
0.717069
0.718269
0.719429
0.720542
0.721601
0.722602
0.723543
0.724422
0.725243
0.726011
0.682715
0.682975
0.683318
0.683677
0.684046
0.684434
0.684847
0.685285
0.685753
0.686252
0.686785
0.687353
0.687955
0.688589
0.689251
0.689934
0.690633
0.691341
0.692056
0.69278
0.693516
0.694273
0.695061
0.695888
0.696762
0.697685
0.698656
0.699674
0.700738
0.701847
0.703108
0.704499
0.705892
0.707294
0.708702
0.710115
0.711532
0.712949
0.71436
0.715761
0.717144
0.7185
0.71982
0.721098
0.722325
0.723496
0.724606
0.725652
0.726633
0.72755
0.680754
0.68105
0.68143
0.681824
0.682225
0.682643
0.683081
0.68354
0.684023
0.684534
0.685075
0.685648
0.686255
0.686895
0.687566
0.688264
0.688982
0.689716
0.690462
0.691217
0.691984
0.69277
0.693582
0.694432
0.695328
0.696277
0.697282
0.698342
0.699459
0.700631
0.701968
0.703447
0.704934
0.706433
0.707944
0.709467
0.711001
0.712542
0.714085
0.715623
0.717149
0.718652
0.720124
0.721556
0.722938
0.724264
0.725524
0.726713
0.727827
0.72886
0.678792
0.679123
0.679539
0.679969
0.680404
0.680852
0.681315
0.681796
0.682296
0.682818
0.683367
0.683945
0.684555
0.685197
0.685873
0.686579
0.687311
0.688066
0.688837
0.689623
0.690422
0.691238
0.692079
0.692954
0.693874
0.694848
0.695883
0.696981
0.698144
0.699372
0.700781
0.702346
0.703923
0.705518
0.707132
0.708764
0.710412
0.712074
0.713745
0.715415
0.717078
0.718721
0.720336
0.721912
0.723437
0.724902
0.726295
0.727606
0.728825
0.729943
0.676827
0.677192
0.677645
0.67811
0.678577
0.679054
0.679544
0.680047
0.680564
0.6811
0.681657
0.68224
0.682851
0.683494
0.68417
0.68488
0.685621
0.68639
0.687183
0.687995
0.688825
0.689674
0.690546
0.69145
0.692396
0.693396
0.694458
0.695589
0.696793
0.698071
0.699545
0.70119
0.702855
0.704544
0.706258
0.707997
0.709758
0.711539
0.713332
0.715131
0.716924
0.718701
0.720451
0.722161
0.723818
0.725409
0.726919
0.728332
0.729633
0.730806
0.674859
0.675257
0.675743
0.676241
0.676739
0.677245
0.677761
0.678287
0.678823
0.679373
0.67994
0.680528
0.681141
0.681783
0.682458
0.683168
0.683913
0.684691
0.6855
0.686334
0.687192
0.688071
0.688976
0.689911
0.690887
0.691915
0.693005
0.694166
0.695407
0.696729
0.698262
0.69998
0.701726
0.703505
0.705317
0.707159
0.709031
0.710926
0.712839
0.714761
0.71668
0.718585
0.720463
0.722299
0.724078
0.725783
0.727394