/*--------------------------------*- C++ -*----------------------------------*\
  =========                 |
  \\      /  F ield         | OpenFOAM: The Open Source CFD Toolbox
   \\    /   O peration     | Website:  https://openfoam.org
    \\  /    A nd           | Version:  9
     \\/     M anipulation  |
\*---------------------------------------------------------------------------*/
FoamFile
{
    format      ascii;
    class       volScalarField;
    location    "0.05";
    object      p_rgh;
}
// * * * * * * * * * * * * * * * * * * * * * * * * * * * * * * * * * * * * * //

dimensions      [1 -1 -2 0 0 0 0];

internalField   nonuniform List<scalar> 
5000
(
-0.000280221
-3.23072e-05
0.000118817
0.000278988
0.000456634
0.000645893
0.000848799
0.00106715
0.00130168
0.0015524
0.00181837
0.00209757
0.00238688
0.00268217
0.00297869
0.00327175
0.0035577
0.00383526
0.00410684
0.00437984
0.00466719
0.00498684
0.0053597
0.00580565
0.00633815
0.00695842
0.00765115
0.00838392
0.00911149
0.00979058
0.0104359
0.0110075
0.0115214
0.0120478
0.0126258
0.0132212
0.0137411
0.0140966
0.0142657
0.0143003
0.0142656
0.0141647
0.013924
0.0134575
0.0127374
0.011774
0.0105332
0.00891234
0.00683231
0.00423442
-0.000260005
-2.5116e-05
0.000112328
0.000258066
0.000420431
0.000593563
0.000779489
0.000979854
0.00119527
0.00142561
0.00166983
0.00192578
0.00219024
0.00245906
0.00272759
0.00299138
0.00324713
0.00349394
0.00373455
0.0039765
0.00423253
0.00451993
0.00485841
0.00526637
0.00575591
0.00632746
0.00696577
0.00763942
0.00830484
0.00892042
0.00949682
0.0099968
0.0104437
0.0109041
0.0114108
0.0119268
0.0123623
0.0126355
0.0127313
0.0127043
0.0126195
0.0124795
0.0122156
0.0117548
0.0110841
0.0102233
0.00914245
0.00775016
0.00598387
0.00386022
-0.000239683
-1.75361e-05
0.000106722
0.00023856
0.000386202
0.000543711
0.000712935
0.00089527
0.00109112
0.00130019
0.00152129
0.00175217
0.00198966
0.00222991
0.00246884
0.00270282
0.00292954
0.00314905
0.00336489
0.00358473
0.00382043
0.00408712
0.00440119
0.00477708
0.00522332
0.00573848
0.00630829
0.00690562
0.0074939
0.00803926
0.00855315
0.00900429
0.00940831
0.00981279
0.0102374
0.0106484
0.0109773
0.0111668
0.0112105
0.0111489
0.0110238
0.0108323
0.0105286
0.0100694
0.00944784
0.00867147
0.00772294
0.00656437
0.00516185
0.00355129
-0.00021981
-1.11259e-05
9.92382e-05
0.00021653
0.000348919
0.000490344
0.000642521
0.000806681
0.000983065
0.00117118
0.00136966
0.00157619
0.00178772
0.0020007
0.00221162
0.00241765
0.00261742
0.00281197
0.00300544
0.00320539
0.00342253
0.00366961
0.00395959
0.00430308
0.00470551
0.00516418
0.00566643
0.00618972
0.00670428
0.00718326
0.00763781
0.00804035
0.00839872
0.00874351
0.00908364
0.00939051
0.00961554
0.00972397
0.00971697
0.00962164
0.00945846
0.0092191
0.00887677
0.00841331
0.00782919
0.00712732
0.00630401
0.00537084
0.00433094
0.00322096
-0.00020062
-6.32687e-06
8.92948e-05
0.000191243
0.000307656
0.000432435
0.000567247
0.000713201
0.000870379
0.00103814
0.001215
0.00139864
0.00158606
0.001774
0.0019594
0.0021401
0.00231551
0.00248734
0.00266
0.00284067
0.00303868
0.00326445
0.00352792
0.00383673
0.00419424
0.0045976
0.00503621
0.00549162
0.00593921
0.00635677
0.00675301
0.00710196
0.00740769
0.00768944
0.00794938
0.00816273
0.00829471
0.0083256
0.0082618
0.0081224
0.00791589
0.00763263
0.00725911
0.00679321
0.00624207
0.00561242
0.00491363
0.00418464
0.00346977
0.0028091
-0.000182104
-2.81073e-06
7.75617e-05
0.000163738
0.000263897
0.000371938
0.000489483
0.000617529
0.00075605
0.000904287
0.00106065
0.00122275
0.00138766
0.00155231
0.00171407
0.00187133
0.00202412
0.00217462
0.00232736
0.00248893
0.00266724
0.0028705
0.00310604
0.00337919
0.00369208
0.00404228
0.00442136
0.00481424
0.0051999
0.00555889
0.00589639
0.00618798
0.00643705
0.00665521
0.00683971
0.00696788
0.00701416
0.00696939
0.00684393
0.00665204
0.00639569
0.00606662
0.00566157
0.00518872
0.00465975
0.00408795
0.00349768
0.00294192
0.0024964
0.00222759
-0.000164244
-2.74624e-07
6.46687e-05
0.000135002
0.000218966
0.00031047
0.000411131
0.000521868
0.000642545
0.000772267
0.000909308
0.00105119
0.001195
0.00133783
0.00147736
0.00161246
0.00174368
0.00187357
0.00200663
0.00214879
0.0023066
0.00248629
0.00269302
0.00293042
0.00320003
0.00350025
0.00382467
0.00416062
0.00448923
0.00479237
0.00507102
0.00530233
0.00549144
0.00564479
0.00575569
0.00580257
0.00576671
0.00564709
0.00545711
0.00520744
0.00489593
0.00451686
0.00407529
0.00358636
0.00306505
0.00253142
0.0020245
0.00160551
0.00136536
0.00140436
-0.000147046
1.52648e-06
5.11266e-05
0.000105781
0.000173814
0.000249194
0.000333549
0.00042772
0.000531454
0.000643708
0.000762599
0.000885527
0.00100953
0.00113182
0.00125033
0.00136436
0.00147487
0.00158471
0.00169829
0.00182087
0.00195769
0.00211316
0.00229068
0.00249266
0.00272055
0.00297381
0.00324774
0.00353129
0.00380659
0.00405596
0.00427607
0.00444577
0.00457336
0.0046612
0.00469904
0.00466604
0.00454938
0.0043549
0.00409807
0.00378608
0.00341383
0.00297885
0.00249316
0.0019762
0.00144509
0.000925972
0.000470046
0.000145948
5.08521e-05
0.000303421
-0.000130514
2.81435e-06
3.73908e-05
7.67594e-05
0.000129349
0.000189209
0.000257985
0.000336443
0.000424211
0.000520078
0.000621974
0.000727133
0.000832515
0.000935386
0.00103393
0.00112777
0.0012183
0.00130858
0.00140291
0.00150587
0.00162142
0.00175239
0.00190068
0.00206792
0.00225579
0.00246489
0.00269188
0.0029266
0.00315136
0.00334844
0.00351039
0.0036181
0.00368382
0.00370625
0.00367169
0.00355992
0.00336343
0.00309375
0.00276718
0.00238733
0.00194746
0.00144909
0.000909638
0.00035033
-0.000210562
-0.000741523
-0.00118292
-0.00146111
-0.00147534
-0.00110277
-0.000114667
3.77088e-06
2.38605e-05
4.85462e-05
8.63628e-05
0.000131465
0.000185524
0.000249233
0.000322083
0.000402672
0.000488706
0.000577222
0.000665065
0.000749521
0.000828965
0.000903359
0.000974459
0.00104557
0.00112082
0.00120413
0.0012983
0.00140471
0.00152406
0.0016575
0.00180719
0.00197484
0.00215815
0.00234716
0.00252377
0.00266993
0.00277442
0.00282044
0.00282449
0.00278178
0.00267529
0.00248557
0.00220997
0.00186439
0.00146459
0.0010107
0.000495663
-7.47042e-05
-0.000679445
-0.00129757
-0.00191
-0.00248078
-0.00294613
-0.00323132
-0.00323423
-0.00283493
-9.95362e-05
4.51909e-06
1.08163e-05
2.15691e-05
4.54174e-05
7.66444e-05
0.000116951
0.000166945
0.00022597
0.000292407
0.000363709
0.000436673
0.000507989
0.000574936
0.000636062
0.000691651
0.000743817
0.000796079
0.000852427
0.00091615
0.000988943
0.00107094
0.00116184
0.00126258
0.00137598
0.00150482
0.00164744
0.00179355
0.00192417
0.00202088
0.00206899
0.00205416
0.0019971
0.0018895
0.00171129
0.00144404
0.00108966
0.000667002
0.000190082
-0.000344157
-0.000941814
-0.0015931
-0.00227593
-0.00297102
-0.00365804
-0.00429758
-0.00482612
-0.00517196
-0.00523437
-0.00490074
-8.51558e-05
5.1387e-06
-1.55186e-06
-3.87801e-06
6.89953e-06
2.5212e-05
5.27898e-05
9.01499e-05
0.000136467
0.000189882
0.000247565
0.00030604
0.000361808
0.000412115
0.00045566
0.000493044
0.00052674
0.00056049
0.000598166
0.000642461
0.000694059
0.000751955
0.000815082
0.000884369
0.000963399
0.00105592
0.00116057
0.00126629
0.00135293
0.00140174
0.0013949
0.00132044
0.00120302
0.00103083
0.000781075
0.000436703
3.67002e-06
-0.000497591
-0.00105582
-0.00167663
-0.00236406
-0.00310527
-0.00387954
-0.00467057
-0.00545621
-0.00619419
-0.00682485
-0.0072832
-0.00747296
-0.00729186
-7.15608e-05
5.67251e-06
-1.3138e-05
-2.76315e-05
-2.89746e-05
-2.2573e-05
-6.66793e-06
1.916e-05
5.39033e-05
9.54346e-05
0.000140607
0.00018564
0.000226818
0.000261332
0.000288023
0.0003078
0.000323505
0.000339119
0.000358423
0.000383569
0.000414307
0.000448619
0.000484818
0.000523993
0.000570569
0.000629151
0.000698355
0.000765996
0.000810616
0.000813209
0.000753071
0.000620428
0.000443554
0.000207163
-0.000113793
-0.000534669
-0.00104614
-0.00162763
-0.00227144
-0.0029849
-0.00376917
-0.00460925
-0.00548797
-0.00639322
-0.00730128
-0.00816756
-0.00893828
-0.00955799
-0.00993922
-0.00999
-5.87854e-05
6.13197e-06
-2.39061e-05
-4.9633e-05
-6.21268e-05
-6.66133e-05
-6.13113e-05
-4.59104e-05
-2.16151e-05
9.16153e-06
4.29293e-05
7.55713e-05
0.000103126
0.000122703
0.000133273
0.000136059
0.000134288
0.000132209
0.000133548
0.000139959
0.000150329
0.000161733
0.000172007
0.000182522
0.000198579
0.000225498
0.000261617
0.000293385
0.00029796
0.000256174
0.000144643
-4.4535e-05
-0.000279878
-0.000579949
-0.00097152
-0.00146801
-0.00205755
-0.00272082
-0.00345418
-0.00426601
-0.0051541
-0.00610211
-0.00709751
-0.00813341
-0.00918621
-0.0102102
-0.0111573
-0.0119822
-0.012612
-0.0129656
-4.68812e-05
6.47534e-06
-3.38905e-05
-6.99118e-05
-9.25866e-05
-0.000106948
-0.00011119
-0.000105115
-9.01416e-05
-6.8993e-05
-4.55283e-05
-2.42267e-05
-9.32252e-06
-3.80566e-06
-8.58479e-06
-2.21214e-05
-4.0789e-05
-6.00404e-05
-7.61548e-05
-8.79147e-05
-9.72326e-05
-0.000107863
-0.000122348
-0.000138948
-0.000151483
-0.000154035
-0.000148755
-0.000150718
-0.000184158
-0.000268329
-0.000429138
-0.000673009
-0.000965685
-0.00132873
-0.00179011
-0.00236112
-0.00302826
-0.00377462
-0.00460089
-0.005516
-0.00651469
-0.00757993
-0.00870366
-0.00988442
-0.0111014
-0.0123105
-0.0134678
-0.0145374
-0.0154652
-0.0161831
-3.59307e-05
6.59264e-06
-4.32021e-05
-8.8582e-05
-0.000120471
-0.000143699
-0.000156438
-0.000158612
-0.000151859
-0.000139226
-0.000124964
-0.00011394
-0.000110687
-0.000118315
-0.000137627
-0.000166763
-0.000201673
-0.000237467
-0.000270381
-0.000299581
-0.000327721
-0.000359321
-0.000397238
-0.000439313
-0.000478502
-0.000508401
-0.000531794
-0.000565369
-0.000634725
-0.000759154
-0.000966975
-0.00126351
-0.00161217
-0.00203719
-0.00256724
-0.00321152
-0.00395572
-0.00478615
-0.00570776
-0.00672988
-0.00784518
-0.00903686
-0.0103003
-0.0116383
-0.0130356
-0.0144542
-0.0158535
-0.0172039
-0.0184711
-0.0196042
-2.60311e-05
6.34729e-06
-5.19685e-05
-0.000105774
-0.000145932
-0.000177042
-0.000197252
-0.000206613
-0.000206994
-0.000201778
-0.000195624
-0.00019381
-0.00020119
-0.000221013
-0.000253983
-0.000297921
-0.000348328
-0.00039993
-0.000448852
-0.000494589
-0.000540488
-0.000591795
-0.000651642
-0.000717445
-0.000781337
-0.000836512
-0.000886467
-0.000949516
-0.00105259
-0.00121502
-0.00146747
-0.00181452
-0.00221754
-0.00270317
-0.00330034
-0.00401635
-0.00483694
-0.00575213
-0.00677059
-0.00790198
-0.00913841
-0.0104648
-0.0118789
-0.0133856
-0.0149768
-0.0166249
-0.018294
-0.0199592
-0.0216022
-0.0231919
-1.72731e-05
5.59917e-06
-6.03326e-05
-0.000121628
-0.000169109
-0.000207128
-0.000233809
-0.000249328
-0.000255788
-0.000256916
-0.000257787
-0.000264105
-0.000281068
-0.00031209
-0.000357793
-0.000415672
-0.000480751
-0.000547311
-0.000611308
-0.000672501
-0.000734893
-0.000804434
-0.000884537
-0.000972215
-0.00105884
-0.00113726
-0.00121168
-0.00130202
-0.00143648
-0.00163452
-0.0019291
-0.00232441
-0.00277998
-0.00332446
-0.00398669
-0.00477252
-0.00566862
-0.00666893
-0.00778506
-0.00902671
-0.0103869
-0.0118541
-0.0134283
-0.0151144
-0.0169108
-0.0188033
-0.0207641
-0.0227742
-0.0248271
-0.0269086
-9.68307e-06
4.32159e-06
-6.83246e-05
-0.00013619
-0.000190075
-0.00023406
-0.000266247
-0.000286936
-0.000298457
-0.000304881
-0.00031171
-0.000325088
-0.000350572
-0.00039176
-0.000449212
-0.000520096
-0.000598928
-0.000679488
-0.000757486
-0.000832887
-0.000910312
-0.000996417
-0.00109492
-0.00120251
-0.00130986
-0.00140951
-0.00150633
-0.00162169
-0.00178507
-0.00201615
-0.00235019
-0.00279141
-0.00329755
-0.0038988
-0.00462358
-0.00547685
-0.00644705
-0.00753237
-0.00874657
-0.0100988
-0.0115835
-0.0131948
-0.0149357
-0.0168104
-0.0188221
-0.020969
-0.023236
-0.0256133
-0.0281052
-0.0307083
-3.23258e-06
2.56611e-06
-7.58992e-05
-0.000149419
-0.000208802
-0.00025784
-0.000294608
-0.000319525
-0.000335144
-0.000345869
-0.000357624
-0.000377001
-0.00040993
-0.000460218
-0.000528379
-0.00061126
-0.000702839
-0.000796336
-0.000887136
-0.000975338
-0.00106615
-0.00116695
-0.00128183
-0.00140725
-0.00153327
-0.00165213
-0.00176927
-0.00190737
-0.00209708
-0.00235843
-0.00272904
-0.00321359
-0.0037681
-0.00442376
-0.00520821
-0.006126
-0.00716814
-0.00833744
-0.00964952
-0.0111124
-0.0127218
-0.0144778
-0.016388
-0.0184578
-0.0206935
-0.0231021
-0.0256826
-0.0284388
-0.0313876
-0.0345333
2.15949e-06
4.70296e-07
-8.29247e-05
-0.000161189
-0.000225177
-0.000278386
-0.000318856
-0.000347118
-0.000365932
-0.000380019
-0.000395713
-0.000420046
-0.000459338
-0.000517628
-0.000595412
-0.000689217
-0.00079246
-0.000897731
-0.00100001
-0.00109946
-0.00120183
-0.00131526
-0.00144432
-0.00158536
-0.00172795
-0.00186399
-0.00199934
-0.00215784
-0.00237123
-0.00265996
-0.00306401
-0.00358897
-0.00418933
-0.00489675
-0.0057378
-0.00671678
-0.00782776
-0.00907856
-0.0104871
-0.0120606
-0.013795
-0.0156948
-0.0177732
-0.0200406
-0.0225065
-0.0251824
-0.0280794
-0.0312175
-0.0346276
-0.0383254
6.58114e-06
-1.80757e-06
-8.92143e-05
-0.000171306
-0.000239009
-0.000295527
-0.000338867
-0.000369653
-0.000390831
-0.000407414
-0.00042612
-0.000454405
-0.000498984
-0.000564154
-0.00065042
-0.000754007
-0.000867745
-0.000983539
-0.00109587
-0.00120488
-0.00131683
-0.00144065
-0.00158152
-0.00173587
-0.00189284
-0.00204396
-0.00219537
-0.00237186
-0.00260622
-0.00291935
-0.00335355
-0.00391567
-0.00455896
-0.00531514
-0.00620961
-0.00724631
-0.00842228
-0.00975039
-0.011252
-0.0129346
-0.0147944
-0.016837
-0.0190804
-0.0215433
-0.024241
-0.0271878
-0.030403
-0.0339223
-0.0377887
-0.0420366
1.01084e-05
-4.12729e-06
-9.45669e-05
-0.000179522
-0.000250033
-0.000309012
-0.000354432
-0.000386995
-0.000409795
-0.000428096
-0.000448956
-0.000480235
-0.000529039
-0.000599943
-0.0006935
-0.000805654
-0.000928643
-0.00105362
-0.00117449
-0.00129126
-0.00141066
-0.00154246
-0.00169262
-0.00185782
-0.00202693
-0.00219101
-0.00235623
-0.00254822
-0.00280072
-0.00313522
-0.00359618
-0.0041919
-0.0048747
-0.00567618
-0.00662072
-0.00771176
-0.00894869
-0.0103486
-0.0119371
-0.013725
-0.0157092
-0.017894
-0.0202987
-0.0229514
-0.0258775
-0.0290945
-0.0326272
-0.036525
-0.0408402
-0.0456278
1.28212e-05
-6.33797e-06
-9.87541e-05
-0.000185546
-0.000257931
-0.000318532
-0.000365283
-0.000398947
-0.000422723
-0.000442061
-0.000464304
-0.000497672
-0.000549655
-0.00062513
-0.000724734
-0.00084417
-0.000975083
-0.00110784
-0.00123565
-0.00135828
-0.00148288
-0.0016201
-0.00177686
-0.00195037
-0.0021293
-0.00230416
-0.00248091
-0.00268578
-0.00295347
-0.00330618
-0.0037904
-0.00441593
-0.00513429
-0.00597701
-0.00696784
-0.00810994
-0.00940411
-0.01087
-0.0125375
-0.0144231
-0.0165279
-0.0188531
-0.0214158
-0.0242516
-0.0273975
-0.0308779
-0.0347228
-0.0389929
-0.0437471
-0.0490591
1.48064e-05
-8.26703e-06
-0.000101503
-0.000189032
-0.000262319
-0.000323704
-0.000371082
-0.000405249
-0.000429455
-0.000449262
-0.000472218
-0.000506844
-0.000560989
-0.000639848
-0.000744194
-0.00086954
-0.00100696
-0.001146
-0.00127909
-0.00140563
-0.00153307
-0.00167303
-0.00183357
-0.00201269
-0.00219906
-0.00238252
-0.00256852
-0.00278358
-0.00306335
-0.00343092
-0.00393476
-0.00458614
-0.00533571
-0.0062149
-0.00724746
-0.00843696
-0.00978495
-0.0113116
-0.0130495
-0.0150227
-0.0172396
-0.0197007
-0.0224177
-0.0254298
-0.0287851
-0.0325164
-0.0366616
-0.0412899
-0.04647
-0.0522853
1.61864e-05
-9.67974e-06
-0.000102471
-0.00018956
-0.000262731
-0.000324064
-0.000371417
-0.000405582
-0.000429787
-0.00044962
-0.000472734
-0.00050787
-0.000563194
-0.000644228
-0.00075194
-0.000881729
-0.00102415
-0.00116791
-0.00130455
-0.00143299
-0.00156087
-0.00170077
-0.00186213
-0.00204403
-0.00223534
-0.00242518
-0.00261818
-0.00284079
-0.0031295
-0.00350835
-0.00402803
-0.00470112
-0.00547732
-0.00638766
-0.00745637
-0.00868847
-0.0100866
-0.0116697
-0.0134704
-0.0155196
-0.0178364
-0.0204237
-0.0232888
-0.0264701
-0.0300237
-0.0339909
-0.0384193
-0.0433855
-0.0489687
-0.0552612
1.71222e-05
-1.02789e-05
-0.000101252
-0.000186647
-0.000258649
-0.000319098
-0.000365825
-0.000399577
-0.000423481
-0.000443032
-0.000465871
-0.000500859
-0.000556416
-0.000638398
-0.000748026
-0.000880683
-0.00102649
-0.00117332
-0.00131177
-0.00144008
-0.00156597
-0.00170297
-0.00186208
-0.00204377
-0.00223735
-0.00243123
-0.00262898
-0.0028566
-0.00315096
-0.00353767
-0.00406913
-0.00475966
-0.00555774
-0.00649366
-0.00759212
-0.00886057
-0.0103037
-0.011939
-0.0137964
-0.0159111
-0.0183129
-0.0210121
-0.0240141
-0.027355
-0.0310952
-0.0352824
-0.0399739
-0.0452531
-0.0512101
-0.0579474
1.77801e-05
-9.76195e-06
-9.74327e-05
-0.000179792
-0.000249524
-0.00030826
-0.00035381
-0.000386834
-0.000410265
-0.000429375
-0.000451647
-0.000485927
-0.000540815
-0.00062249
-0.0007325
-0.000866329
-0.00101378
-0.00116196
-0.00130042
-0.00142658
-0.00154806
-0.0016793
-0.00183306
-0.00201142
-0.00220449
-0.00239996
-0.00260011
-0.00283016
-0.00312705
-0.00351791
-0.004057
-0.00476046
-0.00557569
-0.00653173
-0.00765322
-0.00895045
-0.0104316
-0.0121135
-0.0140222
-0.0161936
-0.0186661
-0.0214596
-0.024582
-0.0280682
-0.0319798
-0.03637
-0.0413029
-0.0468682
-0.0531659
-0.0603101
1.83589e-05
-7.7895e-06
-9.05756e-05
-0.00016847
-0.000234788
-0.00029099
-0.000334867
-0.000366946
-0.000389866
-0.000408527
-0.00043008
-0.000463201
-0.000516561
-0.000596648
-0.000705408
-0.000838575
-0.000985798
-0.00113349
-0.00127013
-0.00139214
-0.00150683
-0.00162948
-0.00177473
-0.00194672
-0.00213635
-0.00233082
-0.00253094
-0.00276068
-0.00305701
-0.0034484
-0.00399077
-0.00470227
-0.00552978
-0.00650068
-0.00763876
-0.00895665
-0.0104667
-0.0121874
-0.0141413
-0.016362
-0.0188928
-0.0217628
-0.0249857
-0.0285977
-0.0326609
-0.0372332
-0.0423829
-0.0482051
-0.0548081
-0.0623175
1.90882e-05
-3.96104e-06
-8.02017e-05
-0.00015216
-0.0002139
-0.000266762
-0.000308525
-0.000339539
-0.000362036
-0.000380382
-0.000401203
-0.000432817
-0.000483843
-0.000561034
-0.000666811
-0.000797326
-0.000942273
-0.00108753
-0.0012205
-0.0013364
-0.00144197
-0.00155328
-0.00168692
-0.00184934
-0.0020326
-0.00222341
-0.00242093
-0.00264763
-0.00294032
-0.00332869
-0.00386988
-0.00458416
-0.00541863
-0.00639907
-0.00754782
-0.00887852
-0.0104076
-0.0121567
-0.0141472
-0.0164095
-0.0189879
-0.0219184
-0.0252218
-0.0289371
-0.0331275
-0.037856
-0.0431936
-0.04924
-0.05611
-0.0639393
2.013e-05
2.01379e-06
-6.59307e-05
-0.000130461
-0.00018646
-0.000235182
-0.00027443
-0.000304333
-0.0003266
-0.000344888
-0.000365084
-0.000394947
-0.000442875
-0.000515832
-0.000616783
-0.000742492
-0.000882958
-0.0010237
-0.00115108
-0.00125896
-0.00135324
-0.00145048
-0.00156941
-0.00171905
-0.00189301
-0.00207749
-0.00226982
-0.00249071
-0.00277662
-0.00315846
-0.00369413
-0.00440568
-0.00524121
-0.00622543
-0.00737908
-0.00871553
-0.0102538
-0.0120194
-0.0140351
-0.016329
-0.0189445
-0.0219211
-0.0252863
-0.0290822
-0.0333738
-0.0382288
-0.0437217
-0.0499551
-0.05705
-0.06515
2.29107e-05
1.06698e-05
-4.7449e-05
-0.000103149
-0.000152282
-0.000196084
-0.000232432
-0.00026121
-0.000283494
-0.000302058
-0.000321833
-0.00034978
-0.000393893
-0.000461257
-0.000555437
-0.000674008
-0.000807562
-0.000941558
-0.00106141
-0.00115945
-0.00124039
-0.00132102
-0.00142213
-0.00155571
-0.00171735
-0.00189293
-0.00207754
-0.00228976
-0.00256562
-0.00293746
-0.00346345
-0.00416687
-0.00499718
-0.0059786
-0.00713097
-0.00846665
-0.0100054
-0.0117757
-0.0138031
-0.0161156
-0.0187553
-0.0217638
-0.0251732
-0.0290283
-0.0333953
-0.0383462
-0.0439594
-0.0503398
-0.0576141
-0.0659322
2.4046e-05
1.99865e-05
-2.59468e-05
-7.09387e-05
-0.000111775
-0.000149685
-0.000182639
-0.000210215
-0.000232749
-0.000251952
-0.000271568
-0.000297505
-0.000337127
-0.000397519
-0.000482879
-0.000591796
-0.000715796
-0.000840621
-0.000950927
-0.00103741
-0.00110321
-0.00116493
-0.00124523
-0.00135939
-0.00150558
-0.00166967
-0.00184415
-0.00204485
-0.00230725
-0.00266545
-0.00317771
-0.00386798
-0.00468685
-0.00565821
-0.00680211
-0.00813037
-0.00966197
-0.0114263
-0.0134517
-0.0157677
-0.0184158
-0.0214397
-0.0248751
-0.0287682
-0.0331858
-0.0382023
-0.0439005
-0.0503866
-0.0577927
-0.0662733
2.53941e-05
3.08865e-05
-1.16295e-06
-3.37833e-05
-6.50005e-05
-9.6104e-05
-0.000125169
-0.000151445
-0.000174438
-0.000194639
-0.000214381
-0.000238261
-0.000272769
-0.00032482
-0.000399236
-0.000495817
-0.000607394
-0.000720409
-0.000819034
-0.000892319
-0.000941453
-0.000982294
-0.00103904
-0.00113041
-0.00125785
-0.0014078
-0.00156991
-0.00175641
-0.0020018
-0.00234235
-0.00283661
-0.00350916
-0.00431091
-0.00526478
-0.00639195
-0.00770514
-0.00922221
-0.0109715
-0.0129824
-0.0152863
-0.0179255
-0.0209456
-0.0243862
-0.0282944
-0.032737
-0.0377888
-0.0435363
-0.0500869
-0.0575757
-0.0661613
2.74226e-05
4.39194e-05
2.71893e-05
8.34805e-06
-1.21011e-05
-3.55686e-05
-6.02602e-05
-8.50963e-05
-0.000108695
-0.000130199
-0.000150331
-0.000172129
-0.000200947
-0.000243326
-0.000304651
-0.0003861
-0.000482177
-0.000580495
-0.000665137
-0.00072359
-0.000754784
-0.000773209
-0.000804027
-0.000869355
-0.000974608
-0.00110762
-0.00125527
-0.0014252
-0.00165007
-0.00196851
-0.00243996
-0.0030903
-0.00387004
-0.00479949
-0.00590112
-0.00719023
-0.00868456
-0.0104103
-0.0123961
-0.0146737
-0.0172864
-0.0202823
-0.023705
-0.027603
-0.0320423
-0.0370976
-0.0428574
-0.0494301
-0.0569517
-0.0655829
3.02702e-05
5.9209e-05
5.90216e-05
5.51352e-05
4.64571e-05
3.14053e-05
1.16121e-05
-1.15339e-05
-3.57424e-05
-5.87206e-05
-7.94211e-05
-9.90935e-05
-0.000121689
-0.000153136
-0.000199269
-0.00026274
-0.000340074
-0.000420576
-0.000488734
-0.000530683
-0.000542858
-0.000537733
-0.000540687
-0.000576954
-0.000656481
-0.000769568
-0.000900746
-0.00105224
-0.00125345
-0.00154501
-0.001988
-0.00261119
-0.00336454
-0.00426369
-0.00533139
-0.00658653
-0.00804843
-0.00974154
-0.0116922
-0.0139313
-0.0165019
-0.0194539
-0.0228349
-0.0266954
-0.0311007
-0.0361256
-0.0418586
-0.0484087
-0.0559114
-0.0645278
3.37187e-05
7.62494e-05
9.36311e-05
0.000105676
0.000109669
0.000103829
8.95829e-05
6.85896e-05
4.40281e-05
1.96559e-05
-1.60591e-06
-1.90261e-05
-3.48899e-05
-5.42434e-05
-8.31855e-05
-0.000125861
-0.000181117
-0.000240494
-0.000289464
-0.000313158
-0.000305389
-0.000275967
-0.000249607
-0.000254113
-0.000304317
-0.000394176
-0.000506821
-0.000638509
-0.00081367
-0.00107375
-0.00148182
-0.00207187
-0.00279428
-0.00365825
-0.00468491
-0.00589646
-0.00731512
-0.00896493
-0.0108701
-0.0130592
-0.0155739
-0.0184647
-0.0217817
-0.0255779
-0.0299179
-0.0348766
-0.0405421
-0.0470232
-0.0544536
-0.0629937
3.74701e-05
9.42805e-05
0.000129967
0.000158674
0.000176117
0.000180308
0.000172426
0.000154336
0.000130041
0.000104721
8.31997e-05
6.83229e-05
5.97087e-05
5.34937e-05
4.35735e-05
2.43912e-05
-5.44223e-06
-4.02323e-05
-6.71102e-05
-7.06981e-05
-4.21886e-05
1.18838e-05
6.84736e-05
9.80233e-05
8.07404e-05
1.78249e-05
-7.3895e-05
-0.000184795
-0.000332499
-0.000557244
-0.000923672
-0.0014732
-0.002159
-0.00298323
-0.00396332
-0.00512308
-0.00648778
-0.00808244
-0.00993015
-0.0120575
-0.0145036
-0.0173177
-0.0205511
-0.0242582
-0.0285031
-0.0333605
-0.0389177
-0.0452825
-0.0525865
-0.0609881
4.12889e-05
0.000112546
0.000166857
0.000212638
0.000244137
0.00025918
0.000258659
0.00024456
0.000221586
0.000196224
0.000175141
0.000163345
0.000162548
0.000170377
0.000181062
0.00018784
0.000186685
0.000180048
0.000178392
0.000196921
0.000246875
0.000325542
0.000412656
0.000477999
0.000497119
0.000465339
0.000397587
0.000308471
0.000188605
1.65056e-06
-0.000317003
-0.000817502
-0.00145919
-0.00223828
-0.00316719
-0.00426889
-0.00557029
-0.00709796
-0.00887531
-0.0109279
-0.0132922
-0.0160152
-0.0191473
-0.0227431
-0.0268655
-0.0315887
-0.0369987
-0.0432016
-0.0503259
-0.0585274
4.49884e-05
0.000130315
0.000203054
0.000265928
0.000311868
0.000338565
0.000346586
0.000337935
0.00031784
0.000293893
0.000274439
0.000266595
0.000274281
0.00029691
0.000329446
0.000364279
0.000394828
0.00041994
0.000446889
0.000489821
0.000561954
0.000664782
0.000781987
0.000884088
0.000942735
0.000946684
0.000906885
0.000841116
0.000748804
0.000600374
0.000333998
-0.000108802
-0.000697052
-0.00142374
-0.00229651
-0.00333519
-0.00456598
-0.00601617
-0.00771035
-0.00967438
-0.0119428
-0.0145598
-0.0175738
-0.0210379
-0.0250133
-0.0295721
-0.034799
-0.0407972
-0.0476914
-0.055633
4.83759e-05
0.000146841
0.000237247
0.000316795
0.000377307
0.000416412
0.000434334
0.000432971
0.000417858
0.000397406
0.000381365
0.000378784
0.000395797
0.000433844
0.00048907
0.000553515
0.000618359
0.00067869
0.000737865
0.000807908
0.000903211
0.00102955
0.00117566
0.00131447
0.00141504
0.00145943
0.00145262
0.00141295
0.00134797
0.00123724
0.00102525
0.000647628
0.000123055
-0.000541908
-0.00135197
-0.00232266
-0.00347698
-0.00484123
-0.00644096
-0.00830301
-0.0104611
-0.0129568
-0.0158357
-0.0191487
-0.022954
-0.0273212
-0.0323322
-0.0380863
-0.0447036
-0.0523292
5.12333e-05
0.000161355
0.000268107
0.000363468
0.000438408
0.000490598
0.000519927
0.000528062
0.000520585
0.000506373
0.000496198
0.000500734
0.000528205
0.00058222
0.000660537
0.000755471
0.000856519
0.00095516
0.00105029
0.00115067
0.00127067
0.00141996
0.00159318
0.00176749
0.0019112
0.00200035
0.00203243
0.00202324
0.00198642
0.00191179
0.00175378
0.00144635
0.000994976
0.000402271
-0.000336416
-0.00123272
-0.00230487
-0.0035763
-0.00507241
-0.00682084
-0.00885499
-0.0112142
-0.0139413
-0.0170841
-0.0206978
-0.024848
-0.0296131
-0.0350876
-0.0413853
-0.0486434
5.33359e-05
0.00017312
0.000294382
0.000404271
0.000493217
0.000559069
0.00060141
0.000621561
0.000624878
0.000620298
0.000619143
0.00063328
0.00067275
0.000743337
0.00084477
0.000970314
0.00110857
0.0012479
0.00138254
0.00151693
0.00166396
0.00183618
0.00203447
0.00224195
0.00242849
0.00256564
0.00264276
0.00267012
0.0026642
0.00262456
0.00251846
0.00228314
0.00191206
0.00140165
0.000744428
-6.90028e-05
-0.00105209
-0.0022242
-0.00360918
-0.00523455
-0.00713312
-0.00934203
-0.0119016
-0.0148563
-0.0182579
-0.0221679
-0.0266601
-0.031823
-0.0377629
-0.0446077
5.44765e-05
0.000181502
0.000315003
0.00043777
0.000540042
0.00062
0.000676987
0.000711886
0.000729556
0.000738566
0.000750257
0.000777148
0.000830677
0.000918651
0.00104299
0.00119855
0.00137396
0.00155532
0.00173248
0.00190477
0.00208202
0.00227811
0.00249977
0.00273731
0.00296468
0.00315131
0.00327899
0.00335015
0.00338024
0.00337632
0.00331988
0.00315593
0.00286876
0.00244836
0.00188253
0.00116195
0.000276638
-0.000788789
-0.00205565
-0.00355014
-0.00530358
-0.00735067
-0.00972893
-0.0124797
-0.015651
-0.0193001
-0.0234954
-0.0283189
-0.033868
-0.04026
5.44938e-05
0.000186046
0.000329208
0.00046293
0.00057762
0.000671974
0.000745189
0.000797651
0.00083348
0.000860458
0.000889388
0.000932825
0.00100306
0.0011096
0.0012566
0.00144103
0.00165249
0.00187597
0.00209763
0.00231149
0.00252287
0.00274503
0.00298929
0.00325368
0.00351844
0.00375384
0.00393592
0.00405825
0.00413158
0.00416686
0.00415944
0.00406484
0.00386182
0.00353561
0.00306915
0.00245141
0.00167381
0.000723738
-0.000417463
-0.00177381
-0.00337406
-0.00524983
-0.0074355
-0.00996904
-0.0128949
-0.0162657
-0.0201442
-0.0246051
-0.0297361
-0.0356428
5.33027e-05
0.000186548
0.000336651
0.000479251
0.000605289
0.000714162
0.000805045
0.000877813
0.000935659
0.000985203
0.00103616
0.00110047
0.00119065
0.00131741
0.00148701
0.00169884
0.00194437
0.00220871
0.00247551
0.00273384
0.00298356
0.00323526
0.00350285
0.00379155
0.00408949
0.00437078
0.00460862
0.00478829
0.00491315
0.00499395
0.00503787
0.00501118
0.00489042
0.00465906
0.00429674
0.00379008
0.00312991
0.00230458
0.00129737
8.67585e-05
-0.00135276
-0.00304907
-0.00503301
-0.00733889
-0.0100073
-0.0130863
-0.0166325
-0.0207128
-0.0254048
-0.0308014
5.09052e-05
0.000183102
0.000337478
0.000486884
0.00062312
0.00074647
0.000856233
0.00095181
0.00103536
0.00111203
0.00118996
0.00127986
0.00139372
0.0015429
0.0017354
0.00197316
0.00225016
0.00255287
0.00286389
0.00316833
0.00346031
0.00374595
0.00403933
0.00435132
0.00467837
0.00500109
0.00529323
0.00553396
0.0057182
0.00585279
0.00595369
0.00599574
0.00595512
0.00581697
0.00556033
0.00517
0.00463508
0.00394323
0.00307851
0.00202162
0.000750423
-0.000758938
-0.00253338
-0.00460342
-0.00700551
-0.0097828
-0.0129857
-0.0166728
-0.0209114
-0.0257811
4.73755e-05
0.000176106
0.000332385
0.000486705
0.000632012
0.000769649
0.000899199
0.00101968
0.00113219
0.00124023
0.00134999
0.00147031
0.00161202
0.00178636
0.00200258
0.00226503
0.00257065
0.00290831
0.00326109
0.00361162
0.00394879
0.00427312
0.00459635
0.00493261
0.00528598
0.00564508
0.00598764
0.00628998
0.0065394
0.00673638
0.00690244
0.00701708
0.00705612
0.00700917
0.00685755
0.00658571
0.0061809
0.00562919
0.00491441
0.00401889
0.00292352
0.00160825
5.01046e-05
-0.00177755
-0.00390684
-0.00637586
-0.00922849
-0.012515
-0.0162923
-0.0206264
4.28113e-05
0.000166155
0.000322501
0.00048025
0.000633683
0.000785334
0.000935231
0.00108216
0.00122624
0.00136928
0.00151527
0.00167074
0.00184463
0.00204736
0.00228874
0.00257517
0.00290668
0.0032753
0.00366607
0.00406088
0.00444462
0.0048119
0.00517008
0.00553377
0.00591273
0.00630391
0.00669159
0.00705297
0.00737017
0.00763663
0.00787685
0.00807056
0.00819154
0.0082353
0.00818755
0.00803418
0.00776135
0.00735355
0.006794
0.00606609
0.00515317
0.00403842
0.00270246
0.00112235
-0.000729715
-0.00288665
-0.00538577
-0.00826901
-0.0115829
-0.0153804
3.76152e-05
0.00015442
0.000309661
0.000469891
0.00063079
0.000796146
0.000966576
0.00114082
0.0013182
0.00149895
0.00168478
0.00187962
0.00208999
0.00232468
0.00259332
0.00290375
0.00325892
0.00365447
0.00407855
0.00451413
0.00494385
0.00535704
0.00575547
0.00615143
0.00655777
0.00697862
0.00740613
0.00782176
0.00820583
0.00854587
0.00886805
0.00914856
0.00935644
0.00949297
0.00954915
0.00951356
0.00937247
0.00910964
0.00870798
0.00815169
0.00742609
0.0065168
0.00540748
0.00407851
0.00250613
0.000662564
-0.00148306
-0.00396456
-0.00681857
-0.0100856
3.22321e-05
0.000142315
0.000296104
0.000458596
0.000626718
0.000805511
0.000996328
0.00119805
0.00140946
0.00162944
0.00185759
0.00209517
0.00234589
0.00261624