/*--------------------------------*- C++ -*----------------------------------*\
  =========                 |
  \\      /  F ield         | OpenFOAM: The Open Source CFD Toolbox
   \\    /   O peration     | Website:  https://openfoam.org
    \\  /    A nd           | Version:  9
     \\/     M anipulation  |
\*---------------------------------------------------------------------------*/
FoamFile
{
    format      ascii;
    class       volVectorField;
    location    "0.05";
    object      U;
}
// * * * * * * * * * * * * * * * * * * * * * * * * * * * * * * * * * * * * * //

dimensions      [0 1 -1 0 0 0 0];

internalField   nonuniform List<vector> 
5000
(
(-0.0305456 0 -0.00236235)
(-0.0305924 0 -0.00511286)
(-0.0305717 0 -0.00691157)
(-0.0305698 0 -0.0083871)
(-0.0305757 0 -0.009696)
(-0.030582 0 -0.01092)
(-0.0305921 0 -0.0120999)
(-0.0306078 0 -0.0132665)
(-0.0306311 0 -0.0144457)
(-0.0306638 0 -0.01566)
(-0.0307079 0 -0.0169282)
(-0.0307655 0 -0.0182656)
(-0.0308388 0 -0.0196844)
(-0.0309301 0 -0.0211941)
(-0.0310422 0 -0.0228026)
(-0.031178 0 -0.0245171)
(-0.0313409 0 -0.026344)
(-0.0315349 0 -0.0282903)
(-0.0317643 0 -0.0303626)
(-0.0320344 0 -0.0325684)
(-0.0323507 0 -0.034915)
(-0.0327201 0 -0.0374105)
(-0.03315 0 -0.0400632)
(-0.0336493 0 -0.0428817)
(-0.0342281 0 -0.0458751)
(-0.0348985 0 -0.0490527)
(-0.0356742 0 -0.0524234)
(-0.0365717 0 -0.0559961)
(-0.0376109 0 -0.0597795)
(-0.0388098 0 -0.0637817)
(-0.0403241 0 -0.0683702)
(-0.0421858 0 -0.07344)
(-0.0442704 0 -0.0785269)
(-0.0465879 0 -0.0836264)
(-0.0491582 0 -0.0887308)
(-0.0520009 0 -0.0938291)
(-0.0551393 0 -0.0989066)
(-0.0585977 0 -0.103943)
(-0.0624016 0 -0.108912)
(-0.0665773 0 -0.113779)
(-0.0711544 0 -0.1185)
(-0.0761679 0 -0.123019)
(-0.0816579 0 -0.127267)
(-0.0876657 0 -0.131156)
(-0.0942299 0 -0.134573)
(-0.101387 0 -0.137368)
(-0.109176 0 -0.13935)
(-0.117643 0 -0.140282)
(-0.126814 0 -0.139879)
(-0.13674 0 -0.137804)
(-0.0296616 0 -0.0023572)
(-0.0297089 0 -0.00510517)
(-0.0296885 0 -0.00690329)
(-0.0296871 0 -0.00837713)
(-0.0296932 0 -0.00968188)
(-0.0296993 0 -0.0108987)
(-0.029709 0 -0.0120683)
(-0.0297239 0 -0.0132214)
(-0.0297459 0 -0.0143843)
(-0.0297769 0 -0.0155799)
(-0.0298187 0 -0.0168272)
(-0.0298734 0 -0.0181418)
(-0.0299431 0 -0.0195361)
(-0.0300302 0 -0.0210196)
(-0.0301372 0 -0.0226003)
(-0.0302671 0 -0.0242848)
(-0.0304231 0 -0.0260798)
(-0.030609 0 -0.0279917)
(-0.0308292 0 -0.030027)
(-0.0310885 0 -0.0321927)
(-0.0313926 0 -0.0344959)
(-0.0317479 0 -0.0369441)
(-0.0321619 0 -0.0395452)
(-0.032643 0 -0.0423076)
(-0.0332012 0 -0.0452396)
(-0.0338481 0 -0.0483501)
(-0.0345971 0 -0.0516474)
(-0.035464 0 -0.0551396)
(-0.0364682 0 -0.0588344)
(-0.0376271 0 -0.062739)
(-0.0390912 0 -0.0672096)
(-0.0408922 0 -0.0721414)
(-0.0429097 0 -0.0770804)
(-0.0451532 0 -0.0820212)
(-0.0476423 0 -0.0869549)
(-0.050396 0 -0.091869)
(-0.0534363 0 -0.0967469)
(-0.0567861 0 -0.101566)
(-0.0604687 0 -0.106298)
(-0.0645084 0 -0.110907)
(-0.0689325 0 -0.11535)
(-0.0737729 0 -0.119572)
(-0.079066 0 -0.123502)
(-0.0848481 0 -0.127049)
(-0.091151 0 -0.130095)
(-0.0980032 0 -0.13249)
(-0.105431 0 -0.134054)
(-0.113466 0 -0.134555)
(-0.122122 0 -0.13371)
(-0.131393 0 -0.131214)
(-0.0287464 0 -0.00235142)
(-0.0287938 0 -0.00509663)
(-0.0287739 0 -0.00689441)
(-0.0287727 0 -0.0083671)
(-0.0287788 0 -0.00966846)
(-0.0287847 0 -0.010879)
(-0.0287938 0 -0.0120392)
(-0.0288078 0 -0.0131798)
(-0.0288285 0 -0.0143275)
(-0.0288575 0 -0.0155052)
(-0.0288968 0 -0.0167325)
(-0.0289485 0 -0.0180252)
(-0.0290145 0 -0.0193958)
(-0.0290971 0 -0.0208538)
(-0.0291988 0 -0.0224072)
(-0.0293223 0 -0.0240626)
(-0.029471 0 -0.0258264)
(-0.0296482 0 -0.0277048)
(-0.0298583 0 -0.0297042)
(-0.0301059 0 -0.0318311)
(-0.0303966 0 -0.0340924)
(-0.0307364 0 -0.0364952)
(-0.0311327 0 -0.0390472)
(-0.0315937 0 -0.0417559)
(-0.0321292 0 -0.0446293)
(-0.0327503 0 -0.0476755)
(-0.0334701 0 -0.050902)
(-0.0343038 0 -0.0543163)
(-0.03527 0 -0.0579251)
(-0.0363858 0 -0.0617343)
(-0.0377964 0 -0.0660897)
(-0.0395326 0 -0.070887)
(-0.0414782 0 -0.0756824)
(-0.0436423 0 -0.0804693)
(-0.0460439 0 -0.0852377)
(-0.0487011 0 -0.0899734)
(-0.0516344 0 -0.0946581)
(-0.0548654 0 -0.0992678)
(-0.0584164 0 -0.103772)
(-0.0623108 0 -0.108136)
(-0.0665742 0 -0.112314)
(-0.0712352 0 -0.116253)
(-0.0763244 0 -0.119882)
(-0.0818719 0 -0.123108)
(-0.0879037 0 -0.125811)
(-0.0944434 0 -0.127845)
(-0.101508 0 -0.129031)
(-0.10911 0 -0.129152)
(-0.117262 0 -0.127922)
(-0.125893 0 -0.125064)
(-0.027802 0 -0.00234509)
(-0.0278496 0 -0.00508718)
(-0.02783 0 -0.00688476)
(-0.0278291 0 -0.00835677)
(-0.0278352 0 -0.00965544)
(-0.0278408 0 -0.0108606)
(-0.0278492 0 -0.0120123)
(-0.0278621 0 -0.0131415)
(-0.0278811 0 -0.0142749)
(-0.0279079 0 -0.0154359)
(-0.0279445 0 -0.0166443)
(-0.0279927 0 -0.0179161)
(-0.0280545 0 -0.0192639)
(-0.0281321 0 -0.0206975)
(-0.0282279 0 -0.0222246)
(-0.0283446 0 -0.0238519)
(-0.0284852 0 -0.0255854)
(-0.0286532 0 -0.0274313)
(-0.0288525 0 -0.0293957)
(-0.0290878 0 -0.0314849)
(-0.0293642 0 -0.0337056)
(-0.0296877 0 -0.0360646)
(-0.0300652 0 -0.0385691)
(-0.0305049 0 -0.0412263)
(-0.0310159 0 -0.0440437)
(-0.0316093 0 -0.0470286)
(-0.0322974 0 -0.050188)
(-0.0330952 0 -0.0535282)
(-0.0340204 0 -0.057055)
(-0.0350896 0 -0.0607731)
(-0.0364425 0 -0.0650178)
(-0.0381089 0 -0.0696848)
(-0.0399772 0 -0.0743399)
(-0.0420562 0 -0.0789759)
(-0.0443641 0 -0.0835816)
(-0.046918 0 -0.0881424)
(-0.0497375 0 -0.092639)
(-0.0528428 0 -0.097047)
(-0.0562549 0 -0.101336)
(-0.0599959 0 -0.105468)
(-0.0640899 0 -0.109397)
(-0.0685624 0 -0.113068)
(-0.0734396 0 -0.11641)
(-0.0787463 0 -0.11933)
(-0.0845032 0 -0.121714)
(-0.0907284 0 -0.123418)
(-0.0974333 0 -0.124266)
(-0.104611 0 -0.124053)
(-0.112271 0 -0.122509)
(-0.120322 0 -0.119344)
(-0.0268302 0 -0.00233821)
(-0.0268779 0 -0.00507675)
(-0.0268587 0 -0.00687422)
(-0.0268579 0 -0.00834595)
(-0.026864 0 -0.00964256)
(-0.0268693 0 -0.0108431)
(-0.026877 0 -0.0119873)
(-0.0268886 0 -0.0131061)
(-0.0269058 0 -0.0142263)
(-0.0269303 0 -0.0153716)
(-0.0269638 0 -0.0165621)
(-0.0270082 0 -0.0178142)
(-0.0270655 0 -0.0191405)
(-0.0271377 0 -0.0205509)
(-0.0272271 0 -0.0220531)
(-0.0273363 0 -0.0236537)
(-0.0274682 0 -0.0253585)
(-0.0276262 0 -0.0271736)
(-0.027814 0 -0.0291047)
(-0.028036 0 -0.0311579)
(-0.0282972 0 -0.0333398)
(-0.0286034 0 -0.0356566)
(-0.0289611 0 -0.0381154)
(-0.0293782 0 -0.0407228)
(-0.0298635 0 -0.0434859)
(-0.0304274 0 -0.0464115)
(-0.031082 0 -0.0495057)
(-0.0318414 0 -0.0527743)
(-0.0327229 0 -0.056222)
(-0.0337422 0 -0.0598523)
(-0.035033 0 -0.0639907)
(-0.0366243 0 -0.0685325)
(-0.0384097 0 -0.0730531)
(-0.0403979 0 -0.0775441)
(-0.0426062 0 -0.0819937)
(-0.0450509 0 -0.0863865)
(-0.0477506 0 -0.0907027)
(-0.050724 0 -0.0949173)
(-0.0539909 0 -0.0989987)
(-0.0575718 0 -0.102909)
(-0.061489 0 -0.106601)
(-0.0657658 0 -0.110019)
(-0.0704249 0 -0.113092)
(-0.0754869 0 -0.115728)
(-0.0809685 0 -0.117817)
(-0.0868816 0 -0.11922)
(-0.0932333 0 -0.119766)
(-0.100006 0 -0.119258)
(-0.107188 0 -0.117459)
(-0.114705 0 -0.114061)
(-0.025833 0 -0.00233084)
(-0.0258806 0 -0.00506552)
(-0.0258618 0 -0.00686303)
(-0.0258612 0 -0.00833496)
(-0.0258672 0 -0.00963025)
(-0.025872 0 -0.0108271)
(-0.0258789 0 -0.0119648)
(-0.0258892 0 -0.0130742)
(-0.0259045 0 -0.0141823)
(-0.0259264 0 -0.015313)
(-0.0259567 0 -0.0164868)
(-0.0259971 0 -0.0177203)
(-0.0260496 0 -0.0190263)
(-0.026116 0 -0.0204148)
(-0.0261987 0 -0.0218934)
(-0.0263 0 -0.0234686)
(-0.0264228 0 -0.0251463)
(-0.0265701 0 -0.026932)
(-0.0267456 0 -0.0288316)
(-0.0269535 0 -0.0308507)
(-0.0271985 0 -0.0329956)
(-0.0274862 0 -0.0352724)
(-0.0278228 0 -0.0376874)
(-0.0282158 0 -0.0402473)
(-0.0286737 0 -0.0429583)
(-0.0292064 0 -0.0458267)
(-0.0298254 0 -0.0488582)
(-0.0305442 0 -0.0520577)
(-0.0313794 0 -0.0554289)
(-0.032346 0 -0.0589745)
(-0.0335713 0 -0.0630105)
(-0.035083 0 -0.0674323)
(-0.0367809 0 -0.0718244)
(-0.0386729 0 -0.0761774)
(-0.0407759 0 -0.0804786)
(-0.0431056 0 -0.0847117)
(-0.0456793 0 -0.0888559)
(-0.0485146 0 -0.0928855)
(-0.0516299 0 -0.0967683)
(-0.0550445 0 -0.100466)
(-0.0587792 0 -0.103932)
(-0.0628551 0 -0.10711)
(-0.067292 0 -0.109929)
(-0.0721071 0 -0.112301)
(-0.0773142 0 -0.114115)
(-0.0829206 0 -0.115241)
(-0.0889285 0 -0.115515)
(-0.0953179 0 -0.114746)
(-0.102055 0 -0.112725)
(-0.109075 0 -0.109162)
(-0.0248126 0 -0.00232308)
(-0.0248601 0 -0.00505366)
(-0.0248417 0 -0.0068514)
(-0.0248412 0 -0.00832407)
(-0.024847 0 -0.0096188)
(-0.0248513 0 -0.0108129)
(-0.0248572 0 -0.0119452)
(-0.0248661 0 -0.0130463)
(-0.0248793 0 -0.0141435)
(-0.0248985 0 -0.0152609)
(-0.0249254 0 -0.0164192)
(-0.0249616 0 -0.0176353)
(-0.025009 0 -0.0189222)
(-0.0250694 0 -0.02029)
(-0.0251449 0 -0.0217463)
(-0.0252379 0 -0.0232976)
(-0.025351 0 -0.0249494)
(-0.0254871 0 -0.0267073)
(-0.0256497 0 -0.0285769)
(-0.0258427 0 -0.0305636)
(-0.0260706 0 -0.0326733)
(-0.0263388 0 -0.0349119)
(-0.0266531 0 -0.0372855)
(-0.0270207 0 -0.0398001)
(-0.0274496 0 -0.0424617)
(-0.0279493 0 -0.0452759)
(-0.0285307 0 -0.0482477)
(-0.0292066 0 -0.0513814)
(-0.029993 0 -0.0546799)
(-0.030904 0 -0.0581448)
(-0.0320603 0 -0.0620828)
(-0.0334886 0 -0.0663899)
(-0.0350944 0 -0.0706588)
(-0.0368856 0 -0.0748797)
(-0.0388783 0 -0.0790388)
(-0.0410874 0 -0.0831193)
(-0.0435292 0 -0.0870994)
(-0.0462204 0 -0.0909525)
(-0.0491781 0 -0.0946461)
(-0.0524209 0 -0.0981414)
(-0.0559682 0 -0.101392)
(-0.0598392 0 -0.104343)
(-0.0640511 0 -0.106923)
(-0.0686184 0 -0.109046)
(-0.0735533 0 -0.110606)
(-0.0788604 0 -0.111475)
(-0.0845364 0 -0.111502)
(-0.0905626 0 -0.110502)
(-0.0968913 0 -0.108284)
(-0.103466 0 -0.104594)
(-0.0237714 0 -0.002315)
(-0.0238188 0 -0.0050413)
(-0.0238007 0 -0.0068395)
(-0.0238002 0 -0.00831343)
(-0.0238057 0 -0.00960838)
(-0.0238094 0 -0.0108007)
(-0.0238143 0 -0.0119286)
(-0.0238215 0 -0.0130226)
(-0.0238326 0 -0.0141101)
(-0.023849 0 -0.0152154)
(-0.0238722 0 -0.0163594)
(-0.023904 0 -0.0175594)
(-0.0239461 0 -0.0188286)
(-0.0240001 0 -0.0201771)
(-0.0240682 0 -0.0216125)
(-0.0241524 0 -0.0231412)
(-0.0242553 0 -0.0247688)
(-0.0243796 0 -0.0265006)
(-0.0245286 0 -0.0283418)
(-0.024706 0 -0.0302979)
(-0.0249161 0 -0.0323744)
(-0.0251637 0 -0.034577)
(-0.0254546 0 -0.0369113)
(-0.0257955 0 -0.0393831)
(-0.0261941 0 -0.0419978)
(-0.0266591 0 -0.0447606)
(-0.027201 0 -0.047676)
(-0.027832 0 -0.0507473)
(-0.028567 0 -0.0539769)
(-0.0294198 0 -0.057365)
(-0.0305038 0 -0.0612101)
(-0.0318446 0 -0.0654079)
(-0.0333541 0 -0.0695595)
(-0.0350399 0 -0.0736542)
(-0.0369174 0 -0.0776777)
(-0.0390008 0 -0.0816122)
(-0.0413056 0 -0.0854357)
(-0.0438472 0 -0.0891207)
(-0.0466422 0 -0.0926344)
(-0.0497082 0 -0.0959379)
(-0.0530639 0 -0.0989853)
(-0.0567267 0 -0.101721)
(-0.0607115 0 -0.104076)
(-0.0650314 0 -0.105965)
(-0.0696974 0 -0.107286)
(-0.0747132 0 -0.107917)
(-0.0800714 0 -0.107716)
(-0.0857548 0 -0.106509)
(-0.0917119 0 -0.104116)
(-0.0978927 0 -0.100319)
(-0.0227119 0 -0.00230667)
(-0.022759 0 -0.00502858)
(-0.0227412 0 -0.0068275)
(-0.0227407 0 -0.00830325)
(-0.0227459 0 -0.00959921)
(-0.0227489 0 -0.0107907)
(-0.0227526 0 -0.0119153)
(-0.0227581 0 -0.0130035)
(-0.0227669 0 -0.0140824)
(-0.0227803 0 -0.0151769)
(-0.0227997 0 -0.016308)
(-0.0228269 0 -0.0174932)
(-0.0228634 0 -0.018746)
(-0.0229108 0 -0.0200765)
(-0.022971 0 -0.0214925)
(-0.0230461 0 -0.0230003)
(-0.0231384 0 -0.0246052)
(-0.0232504 0 -0.0263125)
(-0.0233852 0 -0.0281273)
(-0.0235463 0 -0.0300548)
(-0.0237376 0 -0.0321002)
(-0.0239638 0 -0.034269)
(-0.0242303 0 -0.0365664)
(-0.0245433 0 -0.0389979)
(-0.02491 0 -0.0415685)
(-0.0253388 0 -0.0442829)
(-0.0258395 0 -0.0471448)
(-0.0264234 0 -0.0501572)
(-0.027105 0 -0.0533215)
(-0.027897 0 -0.0566371)
(-0.0289055 0 -0.060394)
(-0.030155 0 -0.0644883)
(-0.0315642 0 -0.0685287)
(-0.0331402 0 -0.0725037)
(-0.0348979 0 -0.0763984)
(-0.0368509 0 -0.0801944)
(-0.0390137 0 -0.083869)
(-0.0414009 0 -0.0873943)
(-0.0440284 0 -0.0907372)
(-0.0469134 0 -0.0938587)
(-0.0500737 0 -0.0967131)
(-0.0535252 0 -0.0992449)
(-0.0572815 0 -0.101386)
(-0.0613549 0 -0.103054)
(-0.065756 0 -0.104151)
(-0.0704885 0 -0.10456)
(-0.0755432 0 -0.104144)
(-0.0809052 0 -0.102744)
(-0.0865242 0 -0.100192)
(-0.0923572 0 -0.0962958)
(-0.0216367 0 -0.00229816)
(-0.0216834 0 -0.00501565)
(-0.0216659 0 -0.00681558)
(-0.0216652 0 -0.00829373)
(-0.02167 0 -0.00959151)
(-0.0216722 0 -0.0107831)
(-0.0216747 0 -0.0119056)
(-0.0216785 0 -0.0129891)
(-0.0216848 0 -0.0140609)
(-0.021695 0 -0.0151457)
(-0.0217105 0 -0.0162653)
(-0.0217329 0 -0.0174371)
(-0.0217635 0 -0.0186748)
(-0.021804 0 -0.0199889)
(-0.0218561 0 -0.021387)
(-0.0219217 0 -0.0228754)
(-0.0220029 0 -0.0244594)
(-0.0221021 0 -0.026144)
(-0.0222221 0 -0.0279343)
(-0.0223662 0 -0.0298352)
(-0.022538 0 -0.0318516)
(-0.0227419 0 -0.0339889)
(-0.0229829 0 -0.0362519)
(-0.0232668 0 -0.0386458)
(-0.0236005 0 -0.0411752)
(-0.0239916 0 -0.0438442)
(-0.0244492 0 -0.0466561)
(-0.0249843 0 -0.0496132)
(-0.0256102 0 -0.0527161)
(-0.0263389 0 -0.0559633)
(-0.0272691 0 -0.0596371)
(-0.0284238 0 -0.0636338)
(-0.0297288 0 -0.0675692)
(-0.0311909 0 -0.0714311)
(-0.0328246 0 -0.075204)
(-0.0346427 0 -0.0788691)
(-0.036659 0 -0.0824028)
(-0.0388872 0 -0.0857769)
(-0.0413429 0 -0.0889579)
(-0.0440429 0 -0.0919068)
(-0.0470042 0 -0.094578)
(-0.0502418 0 -0.0969164)
(-0.0537683 0 -0.098855)
(-0.0575962 0 -0.100314)
(-0.0617364 0 -0.101197)
(-0.066193 0 -0.101394)
(-0.0709572 0 -0.100774)
(-0.0760178 0 -0.0991896)
(-0.0813297 0 -0.0964835)
(-0.0868564 0 -0.092487)
(-0.0205486 0 -0.00228955)
(-0.0205948 0 -0.00500266)
(-0.0205775 0 -0.00680393)
(-0.0205766 0 -0.00828506)
(-0.0205809 0 -0.00958549)
(-0.0205823 0 -0.0107783)
(-0.0205834 0 -0.0118998)
(-0.0205853 0 -0.0129798)
(-0.020589 0 -0.0140457)
(-0.0205959 0 -0.0151223)
(-0.0206073 0 -0.0162316)
(-0.0206246 0 -0.0173914)
(-0.0206492 0 -0.0186156)
(-0.0206826 0 -0.0199147)
(-0.0207262 0 -0.0212965)
(-0.0207819 0 -0.0227671)
(-0.0208516 0 -0.024332)
(-0.0209376 0 -0.0259959)
(-0.0210422 0 -0.0277636)
(-0.0211686 0 -0.0296399)
(-0.0213202 0 -0.0316297)
(-0.0215009 0 -0.0337378)
(-0.0217155 0 -0.0359691)
(-0.0219694 0 -0.0383281)
(-0.0222686 0 -0.0408192)
(-0.0226206 0 -0.043446)
(-0.0230337 0 -0.0462113)
(-0.0235181 0 -0.0491168)
(-0.0240863 0 -0.0521624)
(-0.0247496 0 -0.0553458)
(-0.0255986 0 -0.0589418)
(-0.0266552 0 -0.0628469)
(-0.0278523 0 -0.0666837)
(-0.0291967 0 -0.0704393)
(-0.0307023 0 -0.0740976)
(-0.0323814 0 -0.0776391)
(-0.0342468 0 -0.0810399)
(-0.0363118 0 -0.0842711)
(-0.0385915 0 -0.0872988)
(-0.0411026 0 -0.0900843)
(-0.0438617 0 -0.0925817)
(-0.0468827 0 -0.0947364)
(-0.0501783 0 -0.0964821)
(-0.0537614 0 -0.0977409)
(-0.057644 0 -0.0984211)
(-0.0618311 0 -0.0984143)
(-0.0663159 0 -0.0975966)
(-0.0710922 0 -0.0958307)
(-0.0761233 0 -0.0929687)
(-0.0813793 0 -0.0888604)
(-0.0194502 0 -0.00228093)
(-0.0194958 0 -0.00498978)
(-0.0194787 0 -0.00679274)
(-0.0194776 0 -0.00827748)
(-0.0194813 0 -0.00958139)
(-0.0194817 0 -0.0107764)
(-0.0194814 0 -0.0118981)
(-0.0194812 0 -0.0129759)
(-0.0194823 0 -0.0140371)
(-0.0194858 0 -0.0151069)
(-0.0194929 0 -0.0162073)
(-0.019505 0 -0.0173566)
(-0.0195233 0 -0.0185687)
(-0.0195492 0 -0.0198544)
(-0.0195841 0 -0.0212215)
(-0.0196296 0 -0.0226762)
(-0.0196875 0 -0.0242237)
(-0.0197597 0 -0.0258687)
(-0.0198485 0 -0.0276159)
(-0.0199566 0 -0.0294699)
(-0.0200873 0 -0.0314354)
(-0.0202441 0 -0.0335169)
(-0.0204313 0 -0.035719)
(-0.020654 0 -0.038046)
(-0.0209178 0 -0.0405018)
(-0.0212294 0 -0.0430898)
(-0.0215965 0 -0.0458121)
(-0.0220285 0 -0.0486699)
(-0.0225371 0 -0.0516624)
(-0.0231328 0 -0.0547864)
(-0.023898 0 -0.0583099)
(-0.0248533 0 -0.0621298)
(-0.0259392 0 -0.0658746)
(-0.0271623 0 -0.0695307)
(-0.0285361 0 -0.0730816)
(-0.0300721 0 -0.0765072)
(-0.0317825 0 -0.079783)
(-0.0336801 0 -0.0828795)
(-0.0357799 0 -0.0857627)
(-0.0380985 0 -0.0883935)
(-0.0406519 0 -0.0907262)
(-0.0434537 0 -0.0927061)
(-0.0465168 0 -0.0942679)
(-0.0498554 0 -0.0953352)
(-0.0534827 0 -0.0958192)
(-0.057405 0 -0.0956147)
(-0.0616191 0 -0.0946028)
(-0.0661246 0 -0.0926543)
(-0.0708952 0 -0.0896295)
(-0.0759081 0 -0.0853908)
(-0.0183442 0 -0.0022724)
(-0.0183892 0 -0.00497721)
(-0.0183722 0 -0.00678226)
(-0.0183708 0 -0.00827122)
(-0.0183739 0 -0.00957946)
(-0.0183732 0 -0.0107776)
(-0.0183713 0 -0.0119007)
(-0.0183691 0 -0.0129775)
(-0.0183674 0 -0.0140355)
(-0.0183673 0 -0.0150998)
(-0.01837 0 -0.0161928)
(-0.0183767 0 -0.017333)
(-0.0183886 0 -0.0185346)
(-0.0184069 0 -0.0198085)
(-0.0184328 0 -0.0211626)
(-0.0184678 0 -0.0226031)
(-0.0185134 0 -0.0241351)
(-0.0185714 0 -0.0257633)
(-0.0186438 0 -0.0274921)
(-0.0187332 0 -0.0293261)
(-0.0188422 0 -0.0312696)
(-0.0189744 0 -0.033327)
(-0.0191335 0 -0.0355027)
(-0.0193242 0 -0.0378006)
(-0.0195514 0 -0.0402244)
(-0.0198213 0 -0.0427769)
(-0.020141 0 -0.0454598)
(-0.0205191 0 -0.0482738)
(-0.0209664 0 -0.0512175)
(-0.0214925 0 -0.0542868)
(-0.0221714 0 -0.0577436)
(-0.0230225 0 -0.0614845)
(-0.023994 0 -0.065144)
(-0.0250924 0 -0.0687078)
(-0.0263307 0 -0.0721587)
(-0.0277198 0 -0.0754761)
(-0.0292714 0 -0.0786347)
(-0.0309977 0 -0.0816048)
(-0.0329137 0 -0.084352)
(-0.0350361 0 -0.0868368)
(-0.0373805 0 -0.0890135)
(-0.0399601 0 -0.0908271)
(-0.0427886 0 -0.092213)
(-0.0458821 0 -0.0930963)
(-0.0492549 0 -0.0933898)
(-0.0529151 0 -0.0929914)
(-0.0568644 0 -0.0917859)
(-0.0611083 0 -0.0896507)
(-0.065632 0 -0.086452)
(-0.0704211 0 -0.0820597)
(-0.0172332 0 -0.00226403)
(-0.0172774 0 -0.00496509)
(-0.0172606 0 -0.00677266)
(-0.0172588 0 -0.00826648)
(-0.0172612 0 -0.00957987)
(-0.0172594 0 -0.0107823)
(-0.017256 0 -0.0119078)
(-0.0172516 0 -0.012985)
(-0.017247 0 -0.014041)
(-0.0172433 0 -0.0151012)
(-0.0172415 0 -0.0161883)
(-0.0172427 0 -0.0173209)
(-0.017248 0 -0.0185137)
(-0.0172584 0 -0.0197774)
(-0.0172751 0 -0.0211203)
(-0.0172993 0 -0.0225484)
(-0.0173323 0 -0.0240669)
(-0.0173758 0 -0.0256802)
(-0.0174314 0 -0.0273929)
(-0.0175014 0 -0.0292091)
(-0.0175884 0 -0.0311331)
(-0.0176952 0 -0.0331691)
(-0.0178255 0 -0.0353212)
(-0.0179832 0 -0.0375931)
(-0.0181729 0 -0.039988)
(-0.0184 0 -0.0425084)
(-0.0186711 0 -0.0451558)
(-0.0189938 0 -0.0479301)
(-0.0193782 0 -0.0508294)
(-0.0198328 0 -0.0538489)
(-0.0204231 0 -0.0572445)
(-0.0211672 0 -0.0609131)
(-0.0220213 0 -0.0644942)
(-0.0229918 0 -0.0679727)
(-0.0240912 0 -0.0713311)
(-0.0253299 0 -0.074548)
(-0.0267189 0 -0.0775977)
(-0.02827 0 -0.0804497)
(-0.0299984 0 -0.0830693)
(-0.0319208 0 -0.0854167)
(-0.0340525 0 -0.0874456)
(-0.0364066 0 -0.089101)
(-0.038998 0 -0.0903186)
(-0.0418445 0 -0.0910245)
(-0.0449619 0 -0.0911325)
(-0.0483607 0 -0.0905423)
(-0.0520477 0 -0.0891423)
(-0.0560349 0 -0.086814)
(-0.0603182 0 -0.0834275)
(-0.0648936 0 -0.0788566)
(-0.0161193 0 -0.00225581)
(-0.0161628 0 -0.0049534)
(-0.0161462 0 -0.00676394)
(-0.0161441 0 -0.00826326)
(-0.0161458 0 -0.00958264)
(-0.016143 0 -0.0107903)
(-0.016138 0 -0.0119194)
(-0.0161315 0 -0.0129983)
(-0.0161241 0 -0.0140537)
(-0.0161167 0 -0.0151114)
(-0.0161103 0 -0.016194)
(-0.0161059 0 -0.0173207)
(-0.0161044 0 -0.0185061)
(-0.0161068 0 -0.0197615)
(-0.016114 0 -0.0210949)
(-0.0161272 0 -0.0225125)
(-0.0161474 0 -0.0240194)
(-0.0161759 0 -0.0256201)
(-0.0162144 0 -0.0273188)
(-0.0162647 0 -0.0291196)
(-0.016329 0 -0.0310267)
(-0.0164099 0 -0.033044)
(-0.0165106 0 -0.0351754)
(-0.0166345 0 -0.0374243)
(-0.0167858 0 -0.0397936)
(-0.0169692 0 -0.0422857)
(-0.0171904 0 -0.0449013)
(-0.0174565 0 -0.0476401)
(-0.0177764 0 -0.0504996)
(-0.0181579 0 -0.0534741)
(-0.0186575 0 -0.0568145)
(-0.0192919 0 -0.0604174)
(-0.0200258 0 -0.0639271)
(-0.0208654 0 -0.0673277)
(-0.0218226 0 -0.0706012)
(-0.0229075 0 -0.0737256)
(-0.0241302 0 -0.0766744)
(-0.0255025 0 -0.0794167)
(-0.0270396 0 -0.0819172)
(-0.0287581 0 -0.0841356)
(-0.0306731 0 -0.0860249)
(-0.032798 0 -0.08753)
(-0.0351488 0 -0.0885867)
(-0.0377452 0 -0.0891212)
(-0.0406046 0 -0.0890479)
(-0.04374 0 -0.0882677)
(-0.0471639 0 -0.0866711)
(-0.0508943 0 -0.0841421)
(-0.0549373 0 -0.080553)
(-0.0593002 0 -0.0757781)
(-0.0150051 0 -0.00224759)
(-0.015048 0 -0.00494189)
(-0.0150317 0 -0.00675581)
(-0.0150295 0 -0.0082613)
(-0.0150306 0 -0.00958758)
(-0.0150268 0 -0.0108015)
(-0.0150204 0 -0.0119356)
(-0.0150117 0 -0.0130174)
(-0.0150014 0 -0.0140737)
(-0.0149904 0 -0.0151303)
(-0.0149794 0 -0.0162101)
(-0.0149693 0 -0.0173324)
(-0.014961 0 -0.0185123)
(-0.0149552 0 -0.019761)
(-0.0149528 0 -0.0210867)
(-0.0149547 0 -0.0224958)
(-0.0149618 0 -0.0239932)
(-0.0149752 0 -0.0255834)
(-0.0149961 0 -0.0272704)
(-0.0150262 0 -0.0290582)
(-0.0150673 0 -0.030951)
(-0.0151218 0 -0.0329523)
(-0.0151923 0 -0.0350659)
(-0.0152819 0 -0.037295)
(-0.0153939 0 -0.0396423)
(-0.0155325 0 -0.0421095)
(-0.0157028 0 -0.0446974)
(-0.015911 0 -0.047405)
(-0.0161651 0 -0.0502292)
(-0.0164719 0 -0.053164)
(-0.0168787 0 -0.056455)
(-0.0174012 0 -0.0599992)
(-0.0180122 0 -0.0634446)
(-0.0187181 0 -0.0667748)
(-0.0195303 0 -0.0699711)
(-0.020458 0 -0.073011)
(-0.021511 0 -0.0758672)
(-0.0227007 0 -0.0785083)
(-0.0240425 0 -0.0808982)
(-0.0255531 0 -0.0829961)
(-0.0272472 0 -0.0847542)
(-0.0291386 0 -0.0861167)
(-0.0312447 0 -0.0870195)
(-0.0335866 0 -0.0873887)
(-0.0361834 0 -0.0871382)
(-0.0390511 0 -0.0861694)
(-0.0422074 0 -0.0843741)
(-0.0456764 0 -0.0816369)
(-0.0494727 0 -0.0778302)
(-0.0536157 0 -0.0728275)
(-0.0138937 0 -0.00223916)
(-0.013936 0 -0.00493011)
(-0.0139203 0 -0.00674778)
(-0.0139181 0 -0.00826015)
(-0.0139188 0 -0.00959431)
(-0.0139142 0 -0.0108158)
(-0.0139063 0 -0.0119561)
(-0.0138955 0 -0.0130423)
(-0.0138824 0 -0.014101)
(-0.0138676 0 -0.0151581)
(-0.0138519 0 -0.0162366)
(-0.013836 0 -0.0173563)
(-0.0138208 0 -0.0185323)
(-0.0138067 0 -0.0197761)
(-0.0137946 0 -0.0210962)
(-0.013785 0 -0.0224987)
(-0.0137788 0 -0.0239887)
(-0.0137767 0 -0.0255705)
(-0.0137798 0 -0.0272481)
(-0.0137893 0 -0.0290256)
(-0.0138069 0 -0.0309066)
(-0.0138345 0 -0.0328948)
(-0.0138743 0 -0.0349937)
(-0.0139288 0 -0.0372062)
(-0.0140008 0 -0.0395348)
(-0.0140939 0 -0.041981)
(-0.0142123 0 -0.0445451)
(-0.0143615 0 -0.0472259)
(-0.0145485 0 -0.0500197)
(-0.0147791 0 -0.0529197)
(-0.0150915 0 -0.0561675)
(-0.0154998 0 -0.05966)
(-0.0159856 0 -0.0630484)
(-0.0165551 0 -0.0663159)
(-0.0172192 0 -0.0694429)
(-0.0179867 0 -0.0724064)
(-0.0188666 0 -0.0751785)
(-0.0198702 0 -0.077727)
(-0.0210129 0 -0.0800151)
(-0.0223112 0 -0.0820011)
(-0.0237798 0 -0.0836363)
(-0.025433 0 -0.0848642)
(-0.0272893 0 -0.0856204)
(-0.0293711 0 -0.0858302)
(-0.031699 0 -0.0854068)
(-0.034292 0 -0.0842513)
(-0.0371732 0 -0.0822556)
(-0.0403712 0 -0.0793034)
(-0.0439091 0 -0.0752657)
(-0.0478168 0 -0.0700142)
(-0.012789 0 -0.00223035)
(-0.0128306 0 -0.0049177)
(-0.0128156 0 -0.00673938)
(-0.0128136 0 -0.00825937)
(-0.0128139 0 -0.00960251)
(-0.0128085 0 -0.0108329)
(-0.0127992 0 -0.0119808)
(-0.0127863 0 -0.013073)
(-0.0127702 0 -0.0141357)
(-0.0127516 0 -0.0151948)
(-0.0127311 0 -0.0162738)
(-0.0127094 0 -0.0173924)
(-0.0126871 0 -0.0185663)
(-0.0126646 0 -0.0198072)
(-0.0126426 0 -0.0211234)
(-0.0126214 0 -0.0225214)
(-0.0126016 0 -0.0240061)
(-0.0125839 0 -0.0255818)
(-0.0125688 0 -0.0272525)
(-0.0125576 0 -0.0290221)
(-0.0125513 0 -0.030894)
(-0.0125515 0 -0.032872)
(-0.01256 0 -0.0349592)
(-0.0125789 0 -0.0371584)
(-0.0126103 0 -0.0394719)
(-0.0126571 0 -0.041901)
(-0.0127228 0 -0.0444455)
(-0.012812 0 -0.0471038)
(-0.0129308 0 -0.049872)
(-0.0130839 0 -0.0527426)
(-0.0133002 0 -0.0559534)
(-0.0135924 0 -0.0594012)
(-0.0139508 0 -0.0627402)
(-0.0143816 0 -0.0659526)
(-0.0148949 0 -0.0690186)
(-0.0154992 0 -0.071914)
(-0.0162027 0 -0.0746106)
(-0.0170167 0 -0.0770753)
(-0.0179563 0 -0.0792706)
(-0.0190379 0 -0.0811537)
(-0.0202761 0 -0.0826747)
(-0.0216857 0 -0.0837763)
(-0.0232864 0 -0.0843933)
(-0.0251012 0 -0.0844502)
(-0.0271522 0 -0.0838588)
(-0.0294615 0 -0.0825192)
(-0.0320565 0 -0.0803226)
(-0.0349701 0 -0.0771502)
(-0.0382327 0 -0.0728705)
(-0.0418828 0 -0.0673521)
(-0.0116952 0 -0.00222115)
(-0.0117359 0 -0.00490457)
(-0.0117216 0 -0.00673051)
(-0.0117197 0 -0.00825885)
(-0.0117197 0 -0.00961214)
(-0.0117134 0 -0.0108528)
(-0.0117026 0 -0.01201)
(-0.0116874 0 -0.0131097)
(-0.0116683 0 -0.014178)
(-0.0116458 0 -0.0152408)
(-0.0116204 0 -0.0163218)
(-0.0115928 0 -0.0174412)
(-0.0115633 0 -0.0186147)
(-0.0115323 0 -0.0198544)
(-0.0115002 0 -0.0211688)
(-0.0114672 0 -0.0225643)
(-0.0114337 0 -0.0240459)
(-0.0114001 0 -0.0256178)
(-0.0113667 0 -0.027284)
(-0.0113343 0 -0.0290481)
(-0.0113038 0 -0.0309138)
(-0.0112763 0 -0.0328844)
(-0.0112532 0 -0.0349631)
(-0.0112359 0 -0.0371524)
(-0.0112262 0 -0.0394544)
(-0.011226 0 -0.0418701)
(-0.0112382 0 -0.0443991)
(-0.0112667 0 -0.0470396)
(-0.0113163 0 -0.0497871)
(-0.0113908 0 -0.0526336)
(-0.0115096 0 -0.0558137)
(-0.011684 0 -0.0592243)
(-0.011913 0 -0.0625214)
(-0.0122027 0 -0.0656868)
(-0.0125629 0 -0.0686998)
(-0.013001 0 -0.0715359)
(-0.0135251 0 -0.0741657)
(-0.0141459 0 -0.0765557)
(-0.0148785 0 -0.0786674)
(-0.0157389 0 -0.0804568)
(-0.0167414 0 -0.0818728)
(-0.0179016 0 -0.0828569)
(-0.01924 0 -0.083343)
(-0.0207799 0 -0.0832541)
(-0.0225446 0 -0.0825005)
(-0.024559 0 -0.0809808)
(-0.0268541 0 -0.0785844)
(-0.0294661 0 -0.0751891)
(-0.0324318 0 -0.0706598)
(-0.0357965 0 -0.0648605)
(-0.0106161 0 -0.00221176)
(-0.0106559 0 -0.00489108)
(-0.0106421 0 -0.00672152)
(-0.0106401 0 -0.00825894)
(-0.0106395 0 -0.0096235)
(-0.0106322 0 -0.0108758)
(-0.0106198 0 -0.0120439)
(-0.0106023 0 -0.0131527)
(-0.0105801 0 -0.0142281)
(-0.0105535 0 -0.0152962)
(-0.0105231 0 -0.0163809)
(-0.0104894 0 -0.0175026)
(-0.0104526 0 -0.0186777)
(-0.0104129 0 -0.0199181)
(-0.0103706 0 -0.0212325)
(-0.0103258 0 -0.0226276)
(-0.0102784 0 -0.0241082)
(-0.0102287 0 -0.0256786)
(-0.0101768 0 -0.0273427)
(-0.010123 0 -0.0291041)
(-0.0100681 0 -0.0309663)
(-0.0100126 0 -0.0329325)
(-0.00995748 0 -0.0350058)
(-0.00990372 0 -0.0371885)
(-0.00985233 0 -0.0394827)
(-0.00980468 0 -0.0418889)
(-0.00976283 0 -0.0444068)
(-0.00972974 0 -0.047034)
(-0.00970936 0 -0.0497659)
(-0.00970431 0 -0.0525937)
(-0.00972441 0 -0.0557496)
(-0.00977943 0 -0.0591303)
(-0.00987737 0 -0.0623933)
(-0.010024 0 -0.0655198)
(-0.0102286 0 -0.0684885)
(-0.0104981 0 -0.0712739)
(-0.0108397 0 -0.0738461)
(-0.0112641 0 -0.0761707)
(-0.0117858 0 -0.0782083)
(-0.0124202 0 -0.0799136)
(-0.0131816 0 -0.0812343)
(-0.0140861 0 -0.0821105)
(-0.0151547 0 -0.0824746)
(-0.0164109 0 -0.0822481)
(-0.0178785 0 -0.0813394)
(-0.019585 0 -0.0796452)
(-0.0215641 0 -0.0770522)
(-0.0238544 0 -0.0734344)
(-0.0264978 0 -0.0686522)
(-0.029545 0 -0.0625633)
(-0.00955533 0 -0.00220253)
(-0.00959375 0 -0.00487789)
(-0.00958025 0 -0.00671314)
(-0.00957795 0 -0.00826028)
(-0.00957663 0 -0.00963713)
(-0.00956812 0 -0.0109025)
(-0.00955399 0 -0.0120827)
(-0.00953404 0 -0.0132022)
(-0.00950854 0 -0.0142863)
(-0.00947786 0 -0.0153612)
(-0.00944241 0 -0.0164512)
(-0.0094025 0 -0.0175771)
(-0.00935831 0 -0.0187554)
(-0.00930993 0 -0.0199983)
(-0.00925735 0 -0.0213148)
(-0.00920047 0 -0.0227115)
(-0.00913915 0 -0.0241933)
(-0.00907321 0 -0.0257646)
(-0.00900259 0 -0.027429)
(-0.00892733 0 -0.0291903)
(-0.00884766 0 -0.0310518)
(-0.00876394 0 -0.0330166)
(-0.00867661 0 -0.0350876)
(-0.00858605 0 -0.0372673)
(-0.00849267 0 -0.0395572)
(-0.00839713 0 -0.0419581)
(-0.00830073 0 -0.0444691)
(-0.00820555 0 -0.0470878)
(-0.0081145 0 -0.0498089)
(-0.00802913 0 -0.0526236)
(-0.00794951 0 -0.0557619)
(-0.00788388 0 -0.0591202)
(-0.0078492 0 -0.0623571)
(-0.00785109 0 -0.065453)
(-0.00789802 0 -0.068386)
(-0.00799627 0 -0.0711299)
(-0.00815264 0 -0.0736539)
(-0.00837729 0 -0.0759228)
(-0.00868422 0 -0.0778962)
(-0.00908811 0 -0.0795276)
(-0.00960288 0 -0.0807632)
(-0.010245 0 -0.0815417)
(-0.0110358 0 -0.0817938)
(-0.0119985 0 -0.0814391)
(-0.0131574 0 -0.0803839)
(-0.0145417 0 -0.0785227)
(-0.0161868 0 -0.0757389)
(-0.0181329 0 -0.0719022)
(-0.0204255 0 -0.066868)
(-0.0231194 0 -0.0604874)
(-0.00851559 0 -0.00219384)
(-0.00855249 0 -0.00486574)
(-0.00853904 0 -0.00670621)
(-0.00853618 0 -0.00826365)
(-0.00853386 0 -0.00965361)
(-0.008524 0 -0.010933)
(-0.00850803 0 -0.0121268)
(-0.00848561 0 -0.0132583)
(-0.00845686 0 -0.0143527)
(-0.00842205 0 -0.0154361)
(-0.00838149 0 -0.016533)
(-0.00833537 0 -0.0176647)
(-0.00828374 0 -0.0188479)
(-0.00822655 0 -0.0200953)
(-0.00816361 0 -0.0214158)
(-0.00809463 0 -0.0228162)
(-0.00801923 0 -0.0243014)
(-0.007937 0 -0.0258758)
(-0.00784757 0 -0.0275431)
(-0.00775068 0 -0.0293069)
(-0.0076462 0 -0.0311705)
(-0.0075341 0 -0.0331369)
(-0.00741434 0 -0.035209)
(-0.00728677 0 -0.037389)
(-0.00715116 0 -0.0396785)
(-0.00700744 0 -0.042078)
(-0.00685613 0 -0.0445865)
(-0.00669845 0 -0.0472012)
(-0.00653623 0 -0.0499169)
(-0.00636995 0 -0.052724)
(-0.00618981 0 -0.0558513)
(-0.00600249 0 -0.059195)
(-0.00583395 0 -0.0624139)
(-0.00568952 0 -0.0654877)
(-0.00557696 0 -0.0683938)
(-0.00550183 0 -0.0711055)
(-0.00547032 0 -0.073591)
(-0.0054921 0 -0.0758143)
(-0.00558048 0 -0.077734)
(-0.00574923 0 -0.0793021)
(-0.00601178 0 -0.0804635)
(-0.00638475 0 -0.0811554)
(-0.00688934 0 -0.0813066)
(-0.0075483 0 -0.0808345)
(-0.0083859 0 -0.0796431)
(-0.00943251 0 -0.0776245)
(-0.0107243 0 -0.0746584)
(-0.0123021 0 -0.0706098)
(-0.0142136 0 -0.0653292)
(-0.0165162 0 -0.058661)
(-0.00749962 0 -0.00218598)
(-0.00753483 0 -0.00485525)
(-0.00752126 0 -0.00670141)
(-0.00751764 0 -0.00826966)
(-0.00751415 0 -0.00967339)
(-0.00750286 0 -0.0109677)
(-0.007485 0 -0.0121763)
(-0.0074601 0 -0.0133212)
(-0.00742812 0 -0.0144273)
(-0.00738921 0 -0.0155207)
(-0.00734355 0 -0.0166262)
(-0.0072912 0 -0.0177654)
(-0.00723212 0 -0.0189554)
(-0.00716608 0 -0.0202091)
(-0.00709274 0 -0.0215356)
(-0.00701161 0 -0.0229417)
(-0.0069221 0 -0.0244326)
(-0.00682353 0 -0.0260125)
(-0.00671525 0 -0.0276851)
(-0.00659667 0 -0.0294541)
(-0.00646731 0 -0.0313225)
(-0.00632673 0 -0.0332936)
(-0.00617446 0 -0.0353699)
(-0.00600977 0 -0.0375538)
(-0.0058318 0 -0.0398466)
(-0.00563974 0 -0.0422487)
(-0.00543331 0 -0.0447591)
(-0.00521285 0 -0.0473748)
(-0.00497911 0 -0.0500902)
(-0.00473152 0 -0.0528954)
(-0.00445032 0 -0.0560184)
(-0.00414054 0 -0.0593552)
(-0.00383714 0 -0.0625644)