/*--------------------------------*- C++ -*----------------------------------*\
  =========                 |
  \\      /  F ield         | OpenFOAM: The Open Source CFD Toolbox
   \\    /   O peration     | Website:  https://openfoam.org
    \\  /    A nd           | Version:  9
     \\/     M anipulation  |
\*---------------------------------------------------------------------------*/
FoamFile
{
    format      ascii;
    class       surfaceVectorField;
    location    "0.05";
    object      Uf;
}
// * * * * * * * * * * * * * * * * * * * * * * * * * * * * * * * * * * * * * //

dimensions      [0 1 -1 0 0 0 0];

internalField   nonuniform List<vector> 
9850
(
(-0.0305656 0 -0.00370474)
(-0.0301036 0 -0.0023598)
(-0.0305678 0 -0.00599072)
(-0.0301506 0 -0.00510911)
(-0.0305703 0 -0.00763171)
(-0.0301301 0 -0.00690758)
(-0.0305736 0 -0.00902591)
(-0.0301285 0 -0.00838233)
(-0.0305786 0 -0.0102934)
(-0.0301345 0 -0.00968919)
(-0.0305868 0 -0.0114959)
(-0.0301407 0 -0.0109096)
(-0.0305998 0 -0.0126693)
(-0.0301505 0 -0.0120844)
(-0.0306193 0 -0.013842)
(-0.0301659 0 -0.0132442)
(-0.0306472 0 -0.0150383)
(-0.0301885 0 -0.0144153)
(-0.0306855 0 -0.0162789)
(-0.0302203 0 -0.0156202)
(-0.0307363 0 -0.0175809)
(-0.0302633 0 -0.0168779)
(-0.0308016 0 -0.018958)
(-0.0303194 0 -0.0182039)
(-0.0308838 0 -0.0204212)
(-0.0303909 0 -0.0196103)
(-0.0309853 0 -0.0219791)
(-0.0304801 0 -0.0211068)
(-0.031109 0 -0.0236394)
(-0.0305897 0 -0.0227013)
(-0.0312581 0 -0.0254087)
(-0.0307225 0 -0.0244007)
(-0.0314361 0 -0.0272939)
(-0.030882 0 -0.0262116)
(-0.0316472 0 -0.0293017)
(-0.0310719 0 -0.0281406)
(-0.0318963 0 -0.0314392)
(-0.0312967 0 -0.0301944)
(-0.0321887 0 -0.0337137)
(-0.0315614 0 -0.0323801)
(-0.0325307 0 -0.0361329)
(-0.0318717 0 -0.0347051)
(-0.0329294 0 -0.0387051)
(-0.032234 0 -0.037177)
(-0.033393 0 -0.0414387)
(-0.0326559 0 -0.0398041)
(-0.033931 0 -0.0443426)
(-0.0331461 0 -0.0425946)
(-0.0345546 0 -0.0474259)
(-0.0337147 0 -0.0455575)
(-0.0352766 0 -0.0506978)
(-0.0343733 0 -0.0487015)
(-0.0361122 0 -0.0541671)
(-0.0351357 0 -0.0520355)
(-0.0370791 0 -0.0578426)
(-0.0360179 0 -0.0555677)
(-0.0381977 0 -0.0617328)
(-0.0370395 0 -0.0593065)
(-0.0394923 0 -0.0658451)
(-0.0382184 0 -0.0632594)
(-0.0412558 0 -0.0709051)
(-0.0397077 0 -0.0677883)
(-0.0432301 0 -0.0759835)
(-0.041539 0 -0.0727889)
(-0.0454311 0 -0.0810767)
(-0.0435901 0 -0.0778022)
(-0.047876 0 -0.0861786)
(-0.0458705 0 -0.0828232)
(-0.0505837 0 -0.09128)
(-0.0484002 0 -0.0878431)
(-0.0535746 0 -0.0963679)
(-0.0511985 0 -0.0928499)
(-0.0568718 0 -0.101425)
(-0.0542878 0 -0.0978277)
(-0.0605007 0 -0.106428)
(-0.0576919 0 -0.102755)
(-0.0644887 0 -0.111346)
(-0.0614352 0 -0.107605)
(-0.068866 0 -0.11614)
(-0.0655429 0 -0.112343)
(-0.0736655 0 -0.120759)
(-0.0700434 0 -0.116924)
(-0.0789222 0 -0.125143)
(-0.0749704 0 -0.121295)
(-0.0846727 0 -0.129212)
(-0.080362 0 -0.125384)
(-0.0909564 0 -0.132865)
(-0.0862569 0 -0.129103)
(-0.0978152 0 -0.13597)
(-0.0926904 0 -0.132335)
(-0.105292 0 -0.138359)
(-0.0996952 0 -0.134931)
(-0.113427 0 -0.139816)
(-0.107303 0 -0.136705)
(-0.122255 0 -0.140081)
(-0.115554 0 -0.137423)
(-0.131813 0 -0.138842)
(-0.124468 0 -0.136797)
(-0.134066 0 -0.134513)
(-0.0296819 0 -0.00369835)
(-0.029204 0 -0.00235433)
(-0.0296845 0 -0.00598275)
(-0.0292514 0 -0.00510098)
(-0.0296874 0 -0.0076226)
(-0.0292312 0 -0.006899)
(-0.0296909 0 -0.00901391)
(-0.0292299 0 -0.00837234)
(-0.029696 0 -0.0102758)
(-0.029236 0 -0.00967548)
(-0.0297039 0 -0.0114695)
(-0.029242 0 -0.0108893)
(-0.0297163 0 -0.012631)
(-0.0292514 0 -0.0120542)
(-0.0297347 0 -0.0137889)
(-0.0292659 0 -0.0132011)
(-0.0297612 0 -0.0149678)
(-0.0292872 0 -0.0143565)
(-0.0297975 0 -0.0161886)
(-0.0293172 0 -0.0155431)
(-0.0298457 0 -0.0174688)
(-0.0293578 0 -0.0167804)
(-0.0299078 0 -0.0188223)
(-0.0294109 0 -0.0180841)
(-0.0299861 0 -0.0202602)
(-0.0294788 0 -0.0194664)
(-0.0300829 0 -0.0217911)
(-0.0295636 0 -0.020937)
(-0.0302011 0 -0.0234224)
(-0.029668 0 -0.0225037)
(-0.0303438 0 -0.0251609)
(-0.0297947 0 -0.0241735)
(-0.0305143 0 -0.0270129)
(-0.029947 0 -0.0259526)
(-0.0307168 0 -0.028985)
(-0.0301286 0 -0.0278474)
(-0.0309559 0 -0.031084)
(-0.0303437 0 -0.0298644)
(-0.0312369 0 -0.0333168)
(-0.0305972 0 -0.0320105)
(-0.0315657 0 -0.0356907)
(-0.0308946 0 -0.0342926)
(-0.0319495 0 -0.0382136)
(-0.0312422 0 -0.0367182)
(-0.032396 0 -0.0408934)
(-0.0316473 0 -0.039295)
(-0.0329147 0 -0.0437386)
(-0.0321184 0 -0.0420309)
(-0.0335163 0 -0.0467577)
(-0.0326652 0 -0.0449342)
(-0.0342133 0 -0.0499593)
(-0.0332992 0 -0.0480131)
(-0.0350202 0 -0.0533518)
(-0.0340336 0 -0.0512756)
(-0.0359543 0 -0.0569429)
(-0.0348839 0 -0.0547293)
(-0.0370353 0 -0.0607401)
(-0.0358691 0 -0.0583814)
(-0.0382869 0 -0.0647493)
(-0.0370064 0 -0.0622383)
(-0.0399927 0 -0.0696755)
(-0.0384438 0 -0.0666512)
(-0.0419031 0 -0.0746109)
(-0.0402124 0 -0.0715153)
(-0.0440336 0 -0.0795508)
(-0.0421939 0 -0.0763818)
(-0.046401 0 -0.0844881)
(-0.0443977 0 -0.0812449)
(-0.0490234 0 -0.0894119)
(-0.0468431 0 -0.0860948)
(-0.0519206 0 -0.0943079)
(-0.0495485 0 -0.0909184)
(-0.0551143 0 -0.0991565)
(-0.0525353 0 -0.0956986)
(-0.0586281 0 -0.103932)
(-0.0558257 0 -0.100413)
(-0.0624876 0 -0.108603)
(-0.0594426 0 -0.105032)
(-0.0667207 0 -0.113129)
(-0.0634096 0 -0.10952)
(-0.0713573 0 -0.117461)
(-0.0677534 0 -0.113833)
(-0.0764288 0 -0.121537)
(-0.0725041 0 -0.117914)
(-0.0819676 0 -0.125276)
(-0.0776952 0 -0.121692)
(-0.0880075 0 -0.128572)
(-0.08336 0 -0.125077)
(-0.0945829 0 -0.131293)
(-0.0895274 0 -0.127952)
(-0.101727 0 -0.133272)
(-0.0962233 0 -0.130168)
(-0.109467 0 -0.134304)
(-0.103469 0 -0.131545)
(-0.117816 0 -0.134132)
(-0.111288 0 -0.131857)
(-0.126785 0 -0.132462)
(-0.119692 0 -0.130817)
(-0.128643 0 -0.128138)
(-0.0287668 0 -0.00369122)
(-0.0282742 0 -0.00234827)
(-0.0287697 0 -0.00597404)
(-0.0283217 0 -0.00509193)
(-0.0287729 0 -0.00761316)
(-0.0283019 0 -0.00688962)
(-0.0287766 0 -0.00900223)
(-0.0283009 0 -0.00836199)
(-0.0287816 0 -0.0102593)
(-0.028307 0 -0.00966203)
(-0.0287891 0 -0.0114452)
(-0.0283128 0 -0.0108699)
(-0.0288007 0 -0.0125959)
(-0.0283215 0 -0.0120259)
(-0.028818 0 -0.0137399)
(-0.028335 0 -0.0131608)
(-0.0288427 0 -0.0149022)
(-0.0283548 0 -0.0143014)
(-0.0288769 0 -0.0161042)
(-0.0283827 0 -0.0154707)
(-0.0289223 0 -0.0173634)
(-0.0284207 0 -0.0166886)
(-0.028981 0 -0.0186941)
(-0.0284706 0 -0.0179708)
(-0.0290552 0 -0.0201074)
(-0.0285345 0 -0.01933)
(-0.0291472 0 -0.0216119)
(-0.0286146 0 -0.0207757)
(-0.0292596 0 -0.0232151)
(-0.0287133 0 -0.0223159)
(-0.0293954 0 -0.0249234)
(-0.0288335 0 -0.0239571)
(-0.0295579 0 -0.0267432)
(-0.0289781 0 -0.0257057)
(-0.0297511 0 -0.0286806)
(-0.0291507 0 -0.0275676)
(-0.0299793 0 -0.0307422)
(-0.0293554 0 -0.0295493)
(-0.0302477 0 -0.0329347)
(-0.0295969 0 -0.0316572)
(-0.0305622 0 -0.0352651)
(-0.0298804 0 -0.0338981)
(-0.0309294 0 -0.0377407)
(-0.030212 0 -0.036279)
(-0.0313572 0 -0.0403692)
(-0.030599 0 -0.0388073)
(-0.0318545 0 -0.0431583)
(-0.0310493 0 -0.0414903)
(-0.0324319 0 -0.046116)
(-0.0315726 0 -0.044336)
(-0.0331013 0 -0.0492502)
(-0.0321798 0 -0.0473518)
(-0.033877 0 -0.0525684)
(-0.0328837 0 -0.0505451)
(-0.0347755 0 -0.0560776)
(-0.0336995 0 -0.0539228)
(-0.035816 0 -0.0597842)
(-0.0346452 0 -0.0574909)
(-0.0370215 0 -0.0636928)
(-0.0357377 0 -0.0612548)
(-0.0386655 0 -0.0684884)
(-0.0371195 0 -0.0655552)
(-0.0405076 0 -0.0732847)
(-0.0388208 0 -0.0702872)
(-0.0425626 0 -0.0780758)
(-0.0407277 0 -0.0750118)
(-0.0448464 0 -0.0828535)
(-0.0428493 0 -0.0797223)
(-0.0473765 0 -0.0876055)
(-0.045204 0 -0.084408)
(-0.0501716 0 -0.0923158)
(-0.0478096 0 -0.0890549)
(-0.0532526 0 -0.096963)
(-0.0506859 0 -0.0936447)
(-0.0566417 0 -0.10152)
(-0.0538541 0 -0.0981534)
(-0.0603634 0 -0.105954)
(-0.0573356 0 -0.102551)
(-0.0644437 0 -0.110225)
(-0.0611534 0 -0.1068)
(-0.0689094 0 -0.114284)
(-0.0653321 0 -0.110856)
(-0.0737879 0 -0.118068)
(-0.0698988 0 -0.114661)
(-0.0791069 0 -0.121495)
(-0.074882 0 -0.118146)
(-0.084895 0 -0.124459)
(-0.0803091 0 -0.121218)
(-0.09118 0 -0.126828)
(-0.0862035 0 -0.123762)
(-0.0979847 0 -0.128438)
(-0.0925859 0 -0.125632)
(-0.105326 0 -0.129092)
(-0.0994705 0 -0.12665)
(-0.113203 0 -0.128537)
(-0.10686 0 -0.126606)
(-0.121592 0 -0.126493)
(-0.114766 0 -0.125224)
(-0.123107 0 -0.122213)
(-0.0278225 0 -0.00368337)
(-0.0273161 0 -0.00234165)
(-0.0278257 0 -0.00596449)
(-0.0273637 0 -0.00508195)
(-0.0278292 0 -0.00760318)
(-0.0273444 0 -0.00687947)
(-0.0278329 0 -0.00899059)
(-0.0273435 0 -0.00835132)
(-0.0278378 0 -0.0102436)
(-0.0273496 0 -0.00964895)
(-0.0278449 0 -0.0114227)
(-0.027355 0 -0.0108518)
(-0.0278555 0 -0.0125634)
(-0.0273631 0 -0.0119997)
(-0.0278715 0 -0.0136947)
(-0.0273754 0 -0.0131237)
(-0.0278943 0 -0.0148416)
(-0.0273935 0 -0.0142505)
(-0.027926 0 -0.0160257)
(-0.0274191 0 -0.0154036)
(-0.0279683 0 -0.017265)
(-0.0274541 0 -0.016603)
(-0.0280232 0 -0.0185739)
(-0.0275004 0 -0.017865)
(-0.0280928 0 -0.0199636)
(-0.02756 0 -0.019202)
(-0.0281793 0 -0.0214428)
(-0.0276349 0 -0.020624)
(-0.0282853 0 -0.0230188)
(-0.0277275 0 -0.0221387)
(-0.0284137 0 -0.0246979)
(-0.0278405 0 -0.0237526)
(-0.0285676 0 -0.0264863)
(-0.0279767 0 -0.0254719)
(-0.0287507 0 -0.02839)
(-0.0281397 0 -0.0273024)
(-0.0289675 0 -0.0304153)
(-0.0283333 0 -0.0292502)
(-0.0292226 0 -0.0325687)
(-0.0285619 0 -0.0313215)
(-0.0295219 0 -0.0348569)
(-0.0288307 0 -0.0335228)
(-0.0298716 0 -0.0372869)
(-0.0291455 0 -0.0358607)
(-0.0302794 0 -0.0398659)
(-0.0295132 0 -0.0383423)
(-0.030754 0 -0.0426013)
(-0.0299415 0 -0.0409746)
(-0.0313052 0 -0.0455005)
(-0.0304397 0 -0.0437647)
(-0.031945 0 -0.0485706)
(-0.0310183 0 -0.0467198)
(-0.0326869 0 -0.0518182)
(-0.0316897 0 -0.0498465)
(-0.0335469 0 -0.0552495)
(-0.0324683 0 -0.0531508)
(-0.0345436 0 -0.0588696)
(-0.0333717 0 -0.0566379)
(-0.0356993 0 -0.0626819)
(-0.0344159 0 -0.060312)
(-0.0372767 0 -0.0673513)
(-0.0357378 0 -0.0645036)
(-0.0390454 0 -0.0720124)
(-0.0373666 0 -0.069108)
(-0.0410192 0 -0.0766579)
(-0.0391935 0 -0.0736959)
(-0.0432134 0 -0.0812788)
(-0.0412271 0 -0.0782595)
(-0.0456446 0 -0.085862)
(-0.0434851 0 -0.0827871)
(-0.048331 0 -0.0903907)
(-0.0459845 0 -0.0872639)
(-0.0512924 0 -0.094843)
(-0.048744 0 -0.0916705)
(-0.0545499 0 -0.0991914)
(-0.0517834 0 -0.0959818)
(-0.0581262 0 -0.103402)
(-0.0551229 0 -0.100167)
(-0.0620452 0 -0.107432)
(-0.0587839 0 -0.104188)
(-0.0663308 0 -0.111233)
(-0.0627895 0 -0.107999)
(-0.0710075 0 -0.114739)
(-0.0671641 0 -0.111543)
(-0.0760997 0 -0.11787)
(-0.0719322 0 -0.114751)
(-0.0816311 0 -0.120522)
(-0.0771166 0 -0.11753)
(-0.087623 0 -0.122566)
(-0.0827358 0 -0.119767)
(-0.0940894 0 -0.123842)
(-0.088805 0 -0.121321)
(-0.101036 0 -0.124159)
(-0.0953333 0 -0.122019)
(-0.108456 0 -0.123281)
(-0.102309 0 -0.12166)
(-0.116304 0 -0.120927)
(-0.109729 0 -0.119992)
(-0.117513 0 -0.116716)
(-0.0268508 0 -0.00367476)
(-0.0263316 0 -0.00233453)
(-0.0268543 0 -0.00595401)
(-0.0263792 0 -0.00507113)
(-0.0268579 0 -0.0075925)
(-0.0263603 0 -0.00686861)
(-0.0268618 0 -0.00897876)
(-0.0263596 0 -0.00834044)
(-0.0268665 0 -0.0102285)
(-0.0263656 0 -0.00963638)
(-0.026873 0 -0.0114016)
(-0.0263707 0 -0.0108351)
(-0.0268827 0 -0.0125333)
(-0.0263779 0 -0.011976)
(-0.0268971 0 -0.0136528)
(-0.0263889 0 -0.0130901)
(-0.0269179 0 -0.0147853)
(-0.0264052 0 -0.0142042)
(-0.0269468 0 -0.0159526)
(-0.0264284 0 -0.0153422)
(-0.0269857 0 -0.0171732)
(-0.0264603 0 -0.0165244)
(-0.0270365 0 -0.0184615)
(-0.0265027 0 -0.0177671)
(-0.0271011 0 -0.0198289)
(-0.0265575 0 -0.0190833)
(-0.0271817 0 -0.0212841)
(-0.0266269 0 -0.0204827)
(-0.0272808 0 -0.0228343)
(-0.0267129 0 -0.0219731)
(-0.0274011 0 -0.0244857)
(-0.0268182 0 -0.023561)
(-0.0275457 0 -0.0262444)
(-0.0269455 0 -0.0252523)
(-0.0277181 0 -0.028116)
(-0.0270981 0 -0.0270527)
(-0.0279224 0 -0.0301068)
(-0.0272798 0 -0.0289681)
(-0.0281635 0 -0.0322228)
(-0.0274948 0 -0.0310043)
(-0.0284465 0 -0.0344705)
(-0.0277479 0 -0.0331677)
(-0.0287778 0 -0.0368566)
(-0.0280448 0 -0.0354645)
(-0.0291644 0 -0.0393879)
(-0.028392 0 -0.0379014)
(-0.0296148 0 -0.0420714)
(-0.028797 0 -0.040485)
(-0.0301385 0 -0.0449138)
(-0.0292686 0 -0.0432221)
(-0.0307468 0 -0.0479216)
(-0.0298169 0 -0.046119)
(-0.0314528 0 -0.051101)
(-0.0304537 0 -0.0491817)
(-0.0322718 0 -0.054457)
(-0.0311928 0 -0.0524156)
(-0.0332217 0 -0.0579938)
(-0.0320511 0 -0.0558249)
(-0.034324 0 -0.0617132)
(-0.0330441 0 -0.0594127)
(-0.0358297 0 -0.0662616)
(-0.0343021 0 -0.0634997)
(-0.0375194 0 -0.0707928)
(-0.0358537 0 -0.0679816)
(-0.0394063 0 -0.0752986)
(-0.0375953 0 -0.072438)
(-0.0415051 0 -0.0797689)
(-0.0395354 0 -0.0768602)
(-0.0438318 0 -0.0841901)
(-0.0416911 0 -0.081236)
(-0.0464036 0 -0.0885446)
(-0.0440783 0 -0.0855494)
(-0.0492392 0 -0.09281)
(-0.0467149 0 -0.08978)
(-0.0523587 0 -0.096958)
(-0.0496193 0 -0.0939022)
(-0.0557828 0 -0.100954)
(-0.0528104 0 -0.0978841)
(-0.0595332 0 -0.104755)
(-0.0563081 0 -0.101687)
(-0.0636318 0 -0.10831)
(-0.0601341 0 -0.105266)
(-0.0681006 0 -0.111555)
(-0.0643105 0 -0.108564)
(-0.0729612 0 -0.11441)
(-0.0688584 0 -0.111511)
(-0.0782332 0 -0.116773)
(-0.073797 0 -0.114016)
(-0.0839322 0 -0.118518)
(-0.0791413 0 -0.115968)
(-0.0900655 0 -0.119493)
(-0.0849011 0 -0.117232)
(-0.0966293 0 -0.119512)
(-0.0910809 0 -0.117643)
(-0.10361 0 -0.118359)
(-0.0976619 0 -0.117005)
(-0.110955 0 -0.11576)
(-0.104621 0 -0.115096)
(-0.11189 0 -0.11162)
(-0.0258536 0 -0.0036655)
(-0.0253228 0 -0.00232696)
(-0.0258573 0 -0.0059428)
(-0.0253704 0 -0.00505959)
(-0.0258612 0 -0.00758141)
(-0.0253518 0 -0.00685721)
(-0.025865 0 -0.00896713)
(-0.0253512 0 -0.00832951)
(-0.0258695 0 -0.0102144)
(-0.0253571 0 -0.00962451)
(-0.0258753 0 -0.0113824)
(-0.0253617 0 -0.01082)
(-0.0258839 0 -0.0125062)
(-0.025368 0 -0.011955)
(-0.0258967 0 -0.013615)
(-0.0253776 0 -0.0130602)
(-0.0259153 0 -0.0147341)
(-0.0253919 0 -0.0141628)
(-0.0259414 0 -0.0158859)
(-0.0254125 0 -0.0152869)
(-0.0259767 0 -0.0170888)
(-0.0254411 0 -0.016453)
(-0.026023 0 -0.0183577)
(-0.0254794 0 -0.0176777)
(-0.0260824 0 -0.019704)
(-0.0255293 0 -0.0189742)
(-0.0261568 0 -0.0211364)
(-0.0255927 0 -0.0203523)
(-0.0262485 0 -0.0226622)
(-0.0256718 0 -0.0218198)
(-0.0263603 0 -0.0242874)
(-0.025769 0 -0.023383)
(-0.0264949 0 -0.0260178)
(-0.0258869 0 -0.0250477)
(-0.0266559 0 -0.0278591)
(-0.0260286 0 -0.0268196)
(-0.0268472 0 -0.029817)
(-0.0261976 0 -0.0287041)
(-0.0270731 0 -0.0318975)
(-0.0263981 0 -0.030707)
(-0.0273389 0 -0.0341068)
(-0.0266346 0 -0.0328343)
(-0.0276504 0 -0.036451)
(-0.0269125 0 -0.035092)
(-0.0280145 0 -0.0389368)
(-0.027238 0 -0.0374863)
(-0.0284392 0 -0.0415704)
(-0.0276183 0 -0.0400235)
(-0.0289336 0 -0.0443583)
(-0.0280617 0 -0.0427098)
(-0.0295085 0 -0.0473063)
(-0.0285778 0 -0.0455511)
(-0.0301764 0 -0.0504197)
(-0.029178 0 -0.0485527)
(-0.030952 0 -0.053703)
(-0.0298754 0 -0.0517193)
(-0.0318525 0 -0.0571594)
(-0.0306862 0 -0.0550542)
(-0.0328983 0 -0.0607894)
(-0.031625 0 -0.0585595)
(-0.0343283 0 -0.0652214)
(-0.0328158 0 -0.0625464)
(-0.0359344 0 -0.0696284)
(-0.0342858 0 -0.0669108)
(-0.0377294 0 -0.0740009)
(-0.0359377 0 -0.0712413)
(-0.0397274 0 -0.078328)
(-0.0377793 0 -0.0755282)
(-0.0419438 0 -0.0825951)
(-0.0398271 0 -0.0797584)
(-0.044395 0 -0.0867838)
(-0.0420965 0 -0.0839153)
(-0.0470987 0 -0.0908707)
(-0.0446042 0 -0.0879776)
(-0.0500735 0 -0.0948269)
(-0.0473675 0 -0.091919)
(-0.053339 0 -0.0986171)
(-0.050404 0 -0.0957071)
(-0.0569148 0 -0.102199)
(-0.0537327 0 -0.0993035)
(-0.0608212 0 -0.105521)
(-0.0573737 0 -0.102662)
(-0.0650779 0 -0.108519)
(-0.0613472 0 -0.105726)
(-0.069704 0 -0.111115)
(-0.0656715 0 -0.108426)
(-0.0747156 0 -0.113208)
(-0.0703627 0 -0.110674)
(-0.0801238 0 -0.114678)
(-0.0754338 0 -0.112362)
(-0.0859319 0 -0.115378)
(-0.0808905 0 -0.11336)
(-0.0921296 0 -0.115131)
(-0.0867324 0 -0.113511)
(-0.098695 0 -0.113736)
(-0.0929402 0 -0.112629)
(-0.105575 0 -0.110944)
(-0.0994729 0 -0.110509)
(-0.106271 0 -0.106885)
(-0.0248332 0 -0.00365574)
(-0.024292 0 -0.00231904)
(-0.0248371 0 -0.00593105)
(-0.0243395 0 -0.00504747)
(-0.0248411 0 -0.00757014)
(-0.0243212 0 -0.00684544)
(-0.0248449 0 -0.00895596)
(-0.0243207 0 -0.00831874)
(-0.024849 0 -0.0102016)
(-0.0243264 0 -0.00961357)
(-0.0248541 0 -0.0113655)
(-0.0243304 0 -0.0108068)
(-0.0248616 0 -0.0124826)
(-0.0243357 0 -0.0119368)
(-0.0248726 0 -0.0135818)
(-0.0243438 0 -0.0130344)
(-0.0248888 0 -0.0146888)
(-0.024356 0 -0.0141267)
(-0.0249118 0 -0.0158262)
(-0.0243738 0 -0.0152381)
(-0.0249433 0 -0.0170127)
(-0.0243988 0 -0.0163893)
(-0.024985 0 -0.0182634)
(-0.0244328 0 -0.0175973)
(-0.0250388 0 -0.0195898)
(-0.0244775 0 -0.0188754)
(-0.0251066 0 -0.0210007)
(-0.0245348 0 -0.0202334)
(-0.0251907 0 -0.0225034)
(-0.0246066 0 -0.0216793)
(-0.0252934 0 -0.0241037)
(-0.0246952 0 -0.0232193)
(-0.0254176 0 -0.0258074)
(-0.0248031 0 -0.024859)
(-0.0255666 0 -0.0276198)
(-0.0249334 0 -0.0266039)
(-0.0257439 0 -0.0295465)
(-0.0250891 0 -0.0284592)
(-0.025954 0 -0.0315933)
(-0.0252743 0 -0.0304306)
(-0.0262015 0 -0.0337659)
(-0.0254933 0 -0.0325238)
(-0.0264922 0 -0.0360704)
(-0.0257512 0 -0.0347443)
(-0.0268325 0 -0.0385127)
(-0.0260539 0 -0.0370983)
(-0.02723 0 -0.0410991)
(-0.0264081 0 -0.0395914)
(-0.0276934 0 -0.0438351)
(-0.0268218 0 -0.0422295)
(-0.028233 0 -0.0467263)
(-0.0273042 0 -0.045018)
(-0.0288607 0 -0.0497771)
(-0.0278658 0 -0.0479616)
(-0.0295905 0 -0.0529913)
(-0.0285193 0 -0.0510641)
(-0.0304389 0 -0.056371)
(-0.02928 0 -0.0543282)
(-0.0314253 0 -0.0599157)
(-0.0301619 0 -0.0577547)
(-0.0327756 0 -0.0642364)
(-0.0312821 0 -0.0616462)
(-0.0342939 0 -0.0685244)
(-0.0326666 0 -0.0658986)
(-0.0359925 0 -0.0727693)
(-0.0342243 0 -0.0701089)
(-0.0378848 0 -0.0769593)
(-0.0359628 0 -0.0742666)
(-0.0399856 0 -0.0810791)
(-0.0378978 0 -0.0783579)
(-0.0423106 0 -0.0851093)
(-0.0400441 0 -0.0823653)
(-0.0448764 0 -0.089026)
(-0.0424174 0 -0.0862671)
(-0.0477006 0 -0.0927993)
(-0.0450338 0 -0.0900361)
(-0.0508015 0 -0.0963937)
(-0.0479101 0 -0.0936398)
(-0.0541976 0 -0.0997669)
(-0.0510645 0 -0.0970394)
(-0.0579073 0 -0.102868)
(-0.0545161 0 -0.100189)
(-0.0619486 0 -0.105633)
(-0.058283 0 -0.103032)
(-0.0663385 0 -0.107985)
(-0.0623813 0 -0.1055)
(-0.0710904 0 -0.109826)
(-0.0668249 0 -0.107507)
(-0.0762123 0 -0.111041)
(-0.0716254 0 -0.108948)
(-0.0817046 0 -0.111489)
(-0.0767868 0 -0.109699)
(-0.0875539 0 -0.111002)
(-0.0823039 0 -0.109612)
(-0.0937317 0 -0.109393)
(-0.0881587 0 -0.10851)
(-0.100186 0 -0.106439)
(-0.0943016 0 -0.106206)
(-0.100679 0 -0.102464)
(-0.023792 0 -0.00364557)
(-0.0232417 0 -0.00231083)
(-0.023796 0 -0.00591891)
(-0.0232889 0 -0.00503494)
(-0.0238001 0 -0.00755885)
(-0.023271 0 -0.00683349)
(-0.0238038 0 -0.00894543)
(-0.0232704 0 -0.00830833)
(-0.0238074 0 -0.0101903)
(-0.0232758 0 -0.00960378)
(-0.0238118 0 -0.0113511)
(-0.0232791 0 -0.0107956)
(-0.0238179 0 -0.0124625)
(-0.0232834 0 -0.0119219)
(-0.023827 0 -0.0135534)
(-0.0232898 0 -0.013013)
(-0.0238407 0 -0.0146495)
(-0.0232998 0 -0.0140962)
(-0.0238605 0 -0.0157737)
(-0.0233146 0 -0.0151961)
(-0.023888 0 -0.0169451)
(-0.023336 0 -0.0163337)
(-0.0239248 0 -0.0181789)
(-0.0233655 0 -0.0175263)
(-0.0239728 0 -0.0194867)
(-0.0234047 0 -0.0187872)
(-0.0240337 0 -0.0208776)
(-0.0234555 0 -0.0201267)
(-0.0241096 0 -0.0223586)
(-0.0235196 0 -0.0215524)
(-0.0242029 0 -0.0239356)
(-0.0235993 0 -0.0230707)
(-0.0243162 0 -0.025614)
(-0.0236968 0 -0.0246869)
(-0.0244525 0 -0.0273992)
(-0.023815 0 -0.0264065)
(-0.0246153 0 -0.0292965)
(-0.0239569 0 -0.0282345)
(-0.0248086 0 -0.0313114)
(-0.0241261 0 -0.0301763)
(-0.025037 0 -0.0334494)
(-0.0243268 0 -0.0322372)
(-0.0253058 0 -0.0357163)
(-0.0245637 0 -0.0344229)
(-0.0256211 0 -0.0381177)
(-0.0248424 0 -0.0367387)
(-0.0259901 0 -0.0406592)
(-0.0251694 0 -0.0391903)
(-0.026421 0 -0.0433462)
(-0.025552 0 -0.041783)
(-0.0269236 0 -0.0461835)
(-0.025999 0 -0.0445216)
(-0.0275091 0 -0.0491749)
(-0.0265202 0 -0.0474102)
(-0.0281909 0 -0.0523235)
(-0.0271277 0 -0.050452)
(-0.0289846 0 -0.0556305)
(-0.027836 0 -0.0536489)
(-0.0299086 0 -0.0590941)
(-0.0286584 0 -0.0570008)
(-0.0311754 0 -0.063309)
(-0.0297047 0 -0.0608017)
(-0.0326018 0 -0.0674837)
(-0.0309998 0 -0.0649478)
(-0.0341995 0 -0.0716068)
(-0.0324591 0 -0.0690438)
(-0.0359815 0 -0.0756659)
(-0.03409 0 -0.0730786)
(-0.0379618 0 -0.079645)
(-0.0359076 0 -0.0770377)
(-0.0401552 0 -0.083524)
(-0.0379259 0 -0.080903)
(-0.0425778 0 -0.0872782)
(-0.0401597 0 -0.0846521)
(-0.0452461 0 -0.0908775)
(-0.0426241 0 -0.0882573)
(-0.0481774 0 -0.0942861)
(-0.0453353 0 -0.0916856)
(-0.0513891 0 -0.0974616)
(-0.0483108 0 -0.0948983)
(-0.0548983 0 -0.100353)
(-0.0515688 0 -0.0978493)
(-0.0587217 0 -0.102898)
(-0.0551259 0 -0.100483)
(-0.0628745 0 -0.10502)
(-0.0589965 0 -0.102731)
(-0.0673686 0 -0.106625)
(-0.0631931 0 -0.10451)
(-0.0722099 0 -0.107602)
(-0.0677267 0 -0.10572)
(-0.0773968 0 -0.107816)
(-0.0726008 0 -0.106241)
(-0.0829159 0 -0.107112)
(-0.0778073 0 -0.105932)
(-0.0887358 0 -0.105312)
(-0.08333 0 -0.10463)
(-0.0948064 0 -0.102217)
(-0.089118 0 -0.102159)
(-0.095125 0 -0.0983142)
(-0.0227324 0 -0.0036351)
(-0.0221743 0 -0.00230241)
(-0.0227365 0 -0.00590655)
(-0.0222212 0 -0.00502212)
(-0.0227406 0 -0.00754774)
(-0.0222036 0 -0.00682154)
(-0.0227441 0 -0.00893574)
(-0.022203 0 -0.00829848)
(-0.0227472 0 -0.0101807)
(-0.022208 0 -0.00959534)
(-0.0227507 0 -0.0113396)
(-0.0222106 0 -0.0107869)
(-0.0227553 0 -0.0124464)
(-0.0222136 0 -0.0119105)
(-0.0227625 0 -0.0135301)
(-0.0222183 0 -0.0129963)
(-0.0227736 0 -0.0146166)
(-0.0222259 0 -0.0140716)
(-0.02279 0 -0.0157289)
(-0.0222376 0 -0.0151613)
(-0.0228132 0 -0.0168864)
(-0.0222551 0 -0.0162866)
(-0.022845 0 -0.0181046)
(-0.0222799 0 -0.0174651)
(-0.0228868 0 -0.0193953)
(-0.0223134 0 -0.0187104)
(-0.0229405 0 -0.0207676)
(-0.0223574 0 -0.0200326)
(-0.0230079 0 -0.0222284)
(-0.0224136 0 -0.0214397)
(-0.0230914 0 -0.0237836)
(-0.0224839 0 -0.0229377)
(-0.0231932 0 -0.0254385)
(-0.0225706 0 -0.0245322)
(-0.0233163 0 -0.0271982)
(-0.0226763 0 -0.0262282)
(-0.0234639 0 -0.029068)
(-0.0228037 0 -0.0280307)
(-0.0236397 0 -0.0310531)
(-0.0229562 0 -0.0299449)
(-0.0238481 0 -0.0331587)
(-0.0231378 0 -0.0319758)
(-0.024094 0 -0.0353902)
(-0.0233528 0 -0.0341288)
(-0.0243832 0 -0.0377531)
(-0.0236066 0 -0.036409)
(-0.0247224 0 -0.0402525)
(-0.023905 0 -0.0388217)
(-0.0251193 0 -0.0428932)
(-0.0242552 0 -0.0413717)
(-0.0255832 0 -0.0456797)
(-0.0246652 0 -0.0440633)
(-0.0261246 0 -0.0486151)
(-0.0251444 0 -0.0469003)
(-0.0267563 0 -0.0517016)
(-0.0257039 0 -0.049885)
(-0.0274928 0 -0.0549397)
(-0.0263576 0 -0.0530186)
(-0.0283518 0 -0.0583265)
(-0.0271179 0 -0.0563)
(-0.0295315 0 -0.0624412)
(-0.0280873 0 -0.0600153)
(-0.030862 0 -0.0665085)
(-0.0292894 0 -0.0640608)
(-0.0323546 0 -0.0705162)
(-0.0306465 0 -0.0680487)
(-0.0340218 0 -0.074451)
(-0.0321655 0 -0.0719671)
(-0.0358769 0 -0.0782964)
(-0.0338612 0 -0.075801)
(-0.0379341 0 -0.0820317)
(-0.0357468 0 -0.0795315)
(-0.0402085 0 -0.0856317)
(-0.0378363 0 -0.0831358)
(-0.0427162 0 -0.0890658)
(-0.0401441 0 -0.0865855)
(-0.0454734 0 -0.092298)
(-0.0426856 0 -0.0898475)
(-0.0484965 0 -0.0952859)
(-0.0454782 0 -0.0928828)
(-0.0518019 0 -0.097979)
(-0.048539 0 -0.0956457)
(-0.0554052 0 -0.100316)
(-0.0518835 0 -0.0980809)
(-0.0593208 0 -0.10222)
(-0.0555249 0 -0.100121)
(-0.0635593 0 -0.103603)
(-0.0594755 0 -0.101685)
(-0.068126 0 -0.104355)
(-0.0637462 0 -0.102676)
(-0.0730189 0 -0.104352)
(-0.0683407 0 -0.102979)
(-0.0782255 0 -0.103444)
(-0.0732502 0 -0.102461)
(-0.0837156 0 -0.101468)
(-0.0784615 0 -0.10097)
(-0.0894419 0 -0.0982438)
(-0.0839269 0 -0.0983417)
(-0.0896068 0 -0.0943968)
(-0.0216571 0 -0.00362444)
(-0.0210927 0 -0.00229386)
(-0.0216613 0 -0.00589411)
(-0.0211391 0 -0.00500916)
(-0.0216652 0 -0.00753699)
(-0.0211217 0 -0.00680975)
(-0.0216685 0 -0.00892711)
(-0.0211209 0 -0.00828938)
(-0.021671 0 -0.0101731)
(-0.0211255 0 -0.00958849)
(-0.0216734 0 -0.011331)
(-0.0211273 0 -0.0107807)
(-0.0216766 0 -0.0124344)
(-0.0211291 0 -0.0119027)
(-0.0216817 0 -0.0135122)
(-0.0211319 0 -0.0129844)
(-0.0216899 0 -0.0145903)
(-0.0211369 0 -0.0140532)
(-0.0217028 0 -0.0156921)
(-0.0211455 0 -0.015134)
(-0.0217217 0 -0.0168372)
(-0.0211589 0 -0.0162484)
(-0.0217481 0 -0.0180412)
(-0.0211787 0 -0.0174142)
(-0.0217835 0 -0.0193162)
(-0.0212064 0 -0.0186452)
(-0.0218297 0 -0.0206712)
(-0.0212433 0 -0.0199517)
(-0.0218883 0 -0.0221134)
(-0.0212912 0 -0.0213417)
(-0.0219615 0 -0.0236484)
(-0.0213518 0 -0.0228212)
(-0.0220514 0 -0.0252816)
(-0.0214273 0 -0.0243956)
(-0.0221608 0 -0.0270178)
(-0.0215198 0 -0.0260699)
(-0.0222925 0 -0.028862)
(-0.0216322 0 -0.0278489)
(-0.0224501 0 -0.0308193)
(-0.0217674 0 -0.0297374)
(-0.0226377 0 -0.0328947)
(-0.0219291 0 -0.0317406)
(-0.0228597 0 -0.0350934)
(-0.0221214 0 -0.0338633)
(-0.0231217 0 -0.0374203)
(-0.0223492 0 -0.0361104)
(-0.0234298 0 -0.0398803)
(-0.0226181 0 -0.0384868)
(-0.0237914 0 -0.0424778)
(-0.0229346 0 -0.040997)
(-0.024215 0 -0.0452165)
(-0.0233061 0 -0.0436449)
(-0.0247106 0 -0.0480993)
(-0.0237415 0 -0.0464335)
(-0.02529 0 -0.0511275)
(-0.0242512 0 -0.0493648)
(-0.0259672 0 -0.0543009)
(-0.0248482 0 -0.0524391)
(-0.0267585 0 -0.0576154)
(-0.0255443 0 -0.0556543)
(-0.0278477 0 -0.0616355)
(-0.0264338 0 -0.0592892)
(-0.0290786 0 -0.0656015)
(-0.0275395 0 -0.0632401)
(-0.0304623 0 -0.0695002)
(-0.0287905 0 -0.0671262)
(-0.0320105 0 -0.0733176)
(-0.0301938 0 -0.070935)
(-0.033736 0 -0.0770366)
(-0.0317635 0 -0.0746506)
(-0.0356524 0 -0.0806359)
(-0.0335121 0 -0.0782539)
(-0.0377742 0 -0.0840898)
(-0.0354529 0 -0.0817212)
(-0.0401167 0 -0.0873674)
(-0.0375995 0 -0.0850239)
(-0.0426955 0 -0.0904323)
(-0.0399672 0 -0.0881283)
(-0.0455264 0 -0.0932424)
(-0.0425728 0 -0.0909956)
(-0.0486249 0 -0.0957472)
(-0.045433 0 -0.09358)
(-0.0520063 0 -0.0978857)
(-0.0485622 0 -0.0958267)
(-0.0556844 0 -0.0995843)
(-0.0519733 0 -0.097669)
(-0.0596697 0 -0.100755)
(-0.0556788 0 -0.099028)
(-0.0639676 0 -0.101296)
(-0.0596902 0 -0.0998103)
(-0.0685771 0 -0.101084)
(-0.064012 0 -0.0999057)
(-0.0734878 0 -0.0999818)
(-0.0686365 0 -0.0991874)
(-0.0786732 0 -0.0978366)
(-0.073555 0 -0.0975129)
(-0.0840915 0 -0.0944853)
(-0.0787265 0 -0.0947294)
(-0.0841178 0 -0.0906777)
(-0.0205687 0 -0.00361369)
(-0.0199994 0 -0.00228524)
(-0.0205729 0 -0.00588177)
(-0.0200453 0 -0.00499622)
(-0.0205767 0 -0.0075268)
(-0.0200281 0 -0.00679833)
(-0.0205796 0 -0.00891974)
(-0.0200271 0 -0.00828126)
(-0.0205815 0 -0.0101676)
(-0.0200311 0 -0.00958343)
(-0.0205828 0 -0.0113256)
(-0.020032 0 -0.0107773)
(-0.0205844 0 -0.0124269)
(-0.0200324 0 -0.0118989)
(-0.0205872 0 -0.0135)
(-0.0200333 0 -0.0129778)
(-0.0205925 0 -0.0145711)
(-0.0200357 0 -0.0140414)
(-0.0206017 0 -0.0156637)
(-0.0200408 0 -0.0151146)
(-0.020616 0 -0.0167976)
(-0.0200501 0 -0.0162194)
(-0.0206369 0 -0.0179889)
(-0.0200648 0 -0.0173739)
(-0.0206657 0 -0.0192496)
(-0.0200863 0 -0.0185921)
(-0.0207041 0 -0.0205891)
(-0.0201159 0 -0.0198845)
(-0.0207536 0 -0.0220142)
(-0.0201552 0 -0.021259)
(-0.0208161 0 -0.0235309)
(-0.0202058 0 -0.0227216)
(-0.0208936 0 -0.025144)
(-0.0202696 0 -0.0242778)
(-0.0209887 0 -0.0268586)
(-0.0203486 0 -0.0259322)
(-0.021104 0 -0.0286793)
(-0.0204454 0 -0.0276897)
(-0.0212428 0 -0.030611)
(-0.0205626 0 -0.0295549)
(-0.0214087 0 -0.0326586)
(-0.0207037 0 -0.0315325)
(-0.021606 0 -0.0348268)
(-0.0208725 0 -0.0336273)
(-0.0218397 0 -0.0371204)
(-0.0210734 0 -0.0358439)
(-0.0221156 0 -0.0395439)
(-0.0213117 0 -0.0381869)
(-0.0224405 0 -0.0421012)
(-0.0215932 0 -0.0406604)
(-0.0228223 0 -0.0447956)
(-0.021925 0 -0.0432677)
(-0.0232704 0 -0.0476294)
(-0.0223151 0 -0.0460116)
(-0.0237957 0 -0.0506032)
(-0.0227733 0 -0.0488932)
(-0.0244113 0 -0.0537161)
(-0.0233117 0 -0.0519122)
(-0.0251326 0 -0.0569628)
(-0.0239412 0 -0.0550659)
(-0.026128 0 -0.0608943)
(-0.0247483 0 -0.0586256)
(-0.027256 0 -0.0647653)
(-0.0257542 0 -0.0624881)
(-0.028527 0 -0.0685615)
(-0.0268957 0 -0.0662789)
(-0.0299522 0 -0.0722684)
(-0.0281795 0 -0.0699848)
(-0.031544 0 -0.0758684)
(-0.0296192 0 -0.0735894)
(-0.0333154 0 -0.0793395)
(-0.0312267 0 -0.077073)
(-0.0352803 0 -0.0826555)
(-0.0330147 0 -0.0804113)
(-0.0374534 0 -0.085785)
(-0.034996 0 -0.0835752)
(-0.0398498 0 -0.0886916)
(-0.0371857 0 -0.0865307)
(-0.0424848 0 -0.091333)
(-0.0396006 0 -0.0892389)
(-0.0453736 0 -0.0936591)
(-0.0422568 0 -0.0916541)
(-0.0485314 0 -0.0956093)
(-0.0451682 0 -0.0937215)
(-0.0519717 0 -0.0971115)
(-0.0483475 0 -0.0953754)
(-0.0557056 0 -0.098081)
(-0.0518084 0 -0.0965387)
(-0.0597396 0 -0.0984177)
(-0.0555634 0 -0.097121)
(-0.0640747 0 -0.0980055)
(-0.059618 0 -0.0970157)
(-0.0687037 0 -0.0967136)
(-0.0639675 0 -0.0961014)
(-0.073606 0 -0.0943997)
(-0.0686084 0 -0.0942448)
(-0.0787473 0 -0.0909146)
(-0.0735093 0 -0.0913018)
(-0.0786437 0 -0.0871285)
(-0.0194701 0 -0.00360299)
(-0.0188972 0 -0.00227667)
(-0.0194742 0 -0.00586972)
(-0.0189425 0 -0.00498349)
(-0.0194778 0 -0.00751737)
(-0.0189255 0 -0.0067875)
(-0.0194803 0 -0.00891386)
(-0.0189242 0 -0.00827434)
(-0.0194814 0 -0.0101646)
(-0.0189276 0 -0.00958042)
(-0.0194816 0 -0.0113238)
(-0.0189274 0 -0.010777)
(-0.0194814 0 -0.0124241)
(-0.0189264 0 -0.0118994)
(-0.0194819 0 -0.0134938)
(-0.0189252 0 -0.0129767)
(-0.0194841 0 -0.0145592)
(-0.0189248 0 -0.0140363)
(-0.0194894 0 -0.0156439)
(-0.0189265 0 -0.0151033)
(-0.019499 0 -0.0167682)
(-0.0189315 0 -0.0162)
(-0.0195142 0 -0.0179482)
(-0.0189409 0 -0.0173447)
(-0.0195362 0 -0.0191962)
(-0.018956 0 -0.0185517)
(-0.0195665 0 -0.0205216)
(-0.018978 0 -0.0198314)
(-0.0196065 0 -0.0219315)
(-0.0190085 0 -0.021192)
(-0.019658 0 -0.0234315)
(-0.0190487 0 -0.0226396)
(-0.0197227 0 -0.0250265)
(-0.0191004 0 -0.0241794)
(-0.019803 0 -0.0267214)
(-0.0191655 0 -0.0258159)
(-0.0199013 0 -0.0285208)
(-0.0192462 0 -0.027554)
(-0.0200206 0 -0.0304292)
(-0.0193449 0 -0.0293979)
(-0.0201641 0 -0.0324513)
(-0.0194647 0 -0.0313524)
(-0.0203358 0 -0.0345916)
(-0.0196092 0 -0.0334219)
(-0.0205404 0 -0.0368547)
(-0.0197824 0 -0.0356108)
(-0.020783 0 -0.0392446)
(-0.0199891 0 -0.0379232)
(-0.02107 0 -0.0417649)
(-0.0202346 0 -0.040363)
(-0.0214086 0 -0.0444184)
(-0.0205253 0 -0.0429332)
(-0.0218076 0 -0.0472068)
(-0.0208687 0 -0.0456358)