/*--------------------------------*- C++ -*----------------------------------*\
  =========                 |
  \\      /  F ield         | OpenFOAM: The Open Source CFD Toolbox
   \\    /   O peration     | Website:  https://openfoam.org
    \\  /    A nd           | Version:  9
     \\/     M anipulation  |
\*---------------------------------------------------------------------------*/
FoamFile
{
    format      ascii;
    class       volScalarField;
    location    "0.11";
    object      alpha.water;
}
// * * * * * * * * * * * * * * * * * * * * * * * * * * * * * * * * * * * * * //

dimensions      [0 0 0 0 0 0 0];

internalField   nonuniform List<scalar> 
5000
(
4.29264e-319
4.09986e-319
3.91537e-319
3.73889e-319
3.57012e-319
3.40866e-319
3.25451e-319
3.10708e-319
2.96617e-319
2.83159e-319
2.70313e-319
2.58041e-319
2.46321e-319
2.35136e-319
2.24454e-319
2.14266e-319
2.04553e-319
1.95294e-319
1.8645e-319
1.78022e-319
1.69988e-319
1.6231e-319
1.54959e-319
1.47923e-319
1.41174e-319
1.34702e-319
1.28516e-319
1.22627e-319
1.17034e-319
1.11718e-319
9.15998e-320
9.16986e-320
9.17974e-320
9.18567e-320
9.1916e-320
9.19555e-320
9.20148e-320
9.20938e-320
9.21926e-320
9.23112e-320
9.24298e-320
9.25484e-320
9.2667e-320
9.27756e-320
9.28646e-320
9.29436e-320
9.30029e-320
9.30622e-320
9.32104e-320
9.36452e-320
4.29264e-319
4.09976e-319
3.91537e-319
3.73889e-319
3.57012e-319
3.40866e-319
3.25441e-319
3.10698e-319
2.96617e-319
2.83159e-319
2.70303e-319
2.58031e-319
2.46311e-319
2.35126e-319
2.24454e-319
2.14266e-319
2.04553e-319
1.95284e-319
1.8645e-319
1.78022e-319
1.69988e-319
1.6231e-319
1.54959e-319
1.47923e-319
1.41174e-319
1.34702e-319
1.28516e-319
1.22627e-319
1.17034e-319
1.11718e-319
9.15998e-320
9.16986e-320
9.17974e-320
9.18567e-320
9.1916e-320
9.19555e-320
9.20148e-320
9.20938e-320
9.21926e-320
9.23112e-320
9.24298e-320
9.25484e-320
9.2667e-320
9.27855e-320
9.28745e-320
9.29436e-320
9.30128e-320
9.31017e-320
9.32796e-320
9.37737e-320
4.29254e-319
4.09976e-319
3.91527e-319
3.73879e-319
3.57002e-319
3.40866e-319
3.25431e-319
3.10688e-319
2.96607e-319
2.83159e-319
2.70293e-319
2.58021e-319
2.46302e-319
2.35126e-319
2.24444e-319
2.14266e-319
2.04543e-319
1.95284e-319
1.8645e-319
1.78022e-319
1.69988e-319
1.6231e-319
1.54959e-319
1.47923e-319
1.41164e-319
1.34702e-319
1.28516e-319
1.22627e-319
1.17034e-319
1.11718e-319
9.15998e-320
9.16986e-320
9.17974e-320
9.18567e-320
9.1916e-320
9.19555e-320
9.20148e-320
9.20938e-320
9.21926e-320
9.23112e-320
9.24298e-320
9.25484e-320
9.26768e-320
9.27855e-320
9.28843e-320
9.29634e-320
9.30424e-320
9.31413e-320
9.33586e-320
9.3912e-320
4.29244e-319
4.09956e-319
3.91517e-319
3.73869e-319
3.56992e-319
3.40846e-319
3.25431e-319
3.10688e-319
2.96597e-319
2.83139e-319
2.70293e-319
2.58021e-319
2.46302e-319
2.35116e-319
2.24444e-319
2.14257e-319
2.04543e-319
1.95275e-319
1.86441e-319
1.78022e-319
1.69978e-319
1.6231e-319
1.54959e-319
1.47923e-319
1.41164e-319
1.34702e-319
1.28516e-319
1.22627e-319
1.17034e-319
1.11718e-319
9.15998e-320
9.16986e-320
9.17974e-320
9.18567e-320
9.1916e-320
9.19555e-320
9.20148e-320
9.21037e-320
9.22025e-320
9.23112e-320
9.24298e-320
9.25583e-320
9.26867e-320
9.27954e-320
9.28942e-320
9.29832e-320
9.30622e-320
9.31907e-320
9.34377e-320
9.40405e-320
4.29224e-319
4.09936e-319
3.91498e-319
3.7385e-319
3.56972e-319
3.40846e-319
3.25411e-319
3.10668e-319
2.96588e-319
2.83139e-319
2.70284e-319
2.58011e-319
2.46292e-319
2.35116e-319
2.24434e-319
2.14247e-319
2.04543e-319
1.95275e-319
1.86441e-319
1.78022e-319
1.69978e-319
1.6231e-319
1.54959e-319
1.47923e-319
1.41164e-319
1.34702e-319
1.28516e-319
1.22627e-319
1.17034e-319
1.11718e-319
9.15998e-320
9.16986e-320
9.17974e-320
9.18567e-320
9.1916e-320
9.19555e-320
9.20247e-320
9.21037e-320
9.22025e-320
9.23112e-320
9.24397e-320
9.25681e-320
9.26867e-320
9.28053e-320
9.29041e-320
9.30029e-320
9.31017e-320
9.32401e-320
9.35167e-320
9.41689e-320
4.29195e-319
4.09916e-319
3.91478e-319
3.7383e-319
3.56953e-319
3.40826e-319
3.25392e-319
3.10659e-319
2.96578e-319
2.83119e-319
2.70274e-319
2.58001e-319
2.46282e-319
2.35096e-319
2.24424e-319
2.14247e-319
2.04533e-319
1.95275e-319
1.86441e-319
1.78022e-319
1.69978e-319
1.62301e-319
1.54959e-319
1.47923e-319
1.41164e-319
1.34702e-319
1.28516e-319
1.22627e-319
1.17034e-319
1.11718e-319
9.15998e-320
9.16986e-320
9.17974e-320
9.18567e-320
9.1916e-320
9.19555e-320
9.20247e-320
9.21136e-320
9.22124e-320
9.23211e-320
9.24496e-320
9.25681e-320
9.26966e-320
9.28152e-320
9.29239e-320
9.30227e-320
9.31314e-320
9.32994e-320
9.35958e-320
9.42677e-320
4.29165e-319
4.09887e-319
3.91448e-319
3.7381e-319
3.56933e-319
3.40806e-319
3.25382e-319
3.10639e-319
2.96558e-319
2.831e-319
2.70254e-319
2.57981e-319
2.46272e-319
2.35096e-319
2.24424e-319
2.14237e-319
2.04523e-319
1.95265e-319
1.86431e-319
1.78012e-319
1.69978e-319
1.62301e-319
1.54959e-319
1.47913e-319
1.41164e-319
1.34702e-319
1.28516e-319
1.22627e-319
1.17034e-319
1.11718e-319
9.15998e-320
9.16986e-320
9.17974e-320
9.18567e-320
9.1916e-320
9.19654e-320
9.20345e-320
9.21136e-320
9.22124e-320
9.2331e-320
9.24496e-320
9.2578e-320
9.27065e-320
9.28251e-320
9.29337e-320
9.30424e-320
9.3161e-320
9.33389e-320
9.36748e-320
9.43665e-320
4.29126e-319
4.09857e-319
3.91419e-319
3.7378e-319
3.56913e-319
3.40777e-319
3.25352e-319
3.10619e-319
2.96538e-319
2.8309e-319
2.70234e-319
2.57971e-319
2.46262e-319
2.35076e-319
2.24405e-319
2.14227e-319
2.04523e-319
1.95255e-319
1.86421e-319
1.78002e-319
1.69968e-319
1.62291e-319
1.54949e-319
1.47903e-319
1.41164e-319
1.34692e-319
1.28516e-319
1.22627e-319
1.17034e-319
1.11718e-319
9.15998e-320
9.16986e-320
9.17974e-320
9.18567e-320
9.1916e-320
9.19654e-320
9.20345e-320
9.21136e-320
9.22124e-320
9.2331e-320
9.24496e-320
9.25879e-320
9.27065e-320
9.28349e-320
9.29436e-320
9.30622e-320
9.32005e-320
9.33883e-320
9.37341e-320
9.44357e-320
4.29086e-319
4.09818e-319
3.91379e-319
3.73751e-319
3.56873e-319
3.40747e-319
3.25332e-319
3.10599e-319
2.96518e-319
2.8307e-319
2.70224e-319
2.57962e-319
2.46242e-319
2.35067e-319
2.24395e-319
2.14217e-319
2.04504e-319
1.95255e-319
1.86421e-319
1.78002e-319
1.69959e-319
1.62291e-319
1.54939e-319
1.47903e-319
1.41155e-319
1.34692e-319
1.28516e-319
1.22627e-319
1.17034e-319
1.11718e-319
9.15998e-320
9.16986e-320
9.17974e-320
9.18567e-320
9.1916e-320
9.19654e-320
9.20345e-320
9.21136e-320
9.22124e-320
9.2331e-320
9.24594e-320
9.25879e-320
9.27164e-320
9.28448e-320
9.29634e-320
9.3082e-320
9.32203e-320
9.34377e-320
9.37934e-320
9.45049e-320
4.29027e-319
4.09768e-319
3.9134e-319
3.73711e-319
3.56854e-319
3.40727e-319
3.25303e-319
3.1057e-319
2.96499e-319
2.8304e-319
2.70205e-319
2.57942e-319
2.46223e-319
2.35057e-319
2.24385e-319
2.14207e-319
2.04504e-319
1.95235e-319
1.86411e-319
1.77992e-319
1.69959e-319
1.62281e-319
1.54939e-319
1.47903e-319
1.41145e-319
1.34682e-319
1.28506e-319
1.22627e-319
1.17034e-319
1.11718e-319
9.15998e-320
9.16986e-320
9.17974e-320
9.18567e-320
9.1916e-320
9.19654e-320
9.20345e-320
9.21136e-320
9.22223e-320
9.2331e-320
9.24693e-320
9.25879e-320
9.27262e-320
9.28547e-320
9.29832e-320
9.31017e-320
9.32598e-320
9.34673e-320
9.38527e-320
9.45444e-320
4.28977e-319
4.09719e-319
3.913e-319
3.73672e-319
3.56814e-319
3.40688e-319
3.25273e-319
3.1055e-319
2.96469e-319
2.83021e-319
2.70175e-319
2.57922e-319
2.46203e-319
2.35037e-319
2.24365e-319
2.14187e-319
2.04484e-319
1.95235e-319
1.86401e-319
1.77982e-319
1.69959e-319
1.62271e-319
1.54939e-319
1.47894e-319
1.41145e-319
1.34682e-319
1.28506e-319
1.22627e-319
1.17034e-319
1.11718e-319
9.15998e-320
9.16986e-320
9.17974e-320
9.18567e-320
9.1916e-320
9.19654e-320
9.20345e-320
9.21136e-320
9.22223e-320
9.23409e-320
9.24693e-320
9.25978e-320
9.27262e-320
9.28646e-320
9.29832e-320
9.31215e-320
9.32796e-320
9.3497e-320
9.38922e-320
9.45839e-320
4.28918e-319
4.09659e-319
3.91241e-319
3.73632e-319
3.56775e-319
3.40648e-319
3.25234e-319
3.1051e-319
2.96439e-319
2.83001e-319
2.70155e-319
2.57892e-319
2.46183e-319
2.35017e-319
2.24345e-319
2.14177e-319
2.04464e-319
1.95215e-319
1.86391e-319
1.77982e-319
1.69939e-319
1.62271e-319
1.54919e-319
1.47884e-319
1.41145e-319
1.34682e-319
1.28497e-319
1.22617e-319
1.17024e-319
1.11718e-319
9.15899e-320
9.16986e-320
9.17974e-320
9.18567e-320
9.1916e-320
9.19654e-320
9.20345e-320
9.21235e-320
9.22322e-320
9.23508e-320
9.24693e-320
9.26077e-320
9.27361e-320
9.28646e-320
9.30029e-320
9.31413e-320
9.32994e-320
9.35365e-320
9.39318e-320
9.46037e-320
4.28859e-319
4.0961e-319
3.91201e-319
3.73573e-319
3.56725e-319
3.40609e-319
3.25204e-319
3.10471e-319
2.9641e-319
2.82961e-319
2.70135e-319
2.57873e-319
2.46163e-319
2.34997e-319
2.24326e-319
2.14158e-319
2.04464e-319
1.95205e-319
1.86381e-319
1.77962e-319
1.69939e-319
1.62261e-319
1.54919e-319
1.47884e-319
1.41135e-319
1.34672e-319
1.28497e-319
1.22607e-319
1.17024e-319
1.11718e-319
9.15899e-320
9.16986e-320
9.17875e-320
9.18567e-320
9.1916e-320
9.19654e-320
9.20345e-320
9.21235e-320
9.22322e-320
9.23508e-320
9.24693e-320
9.26077e-320
9.2746e-320
9.28843e-320
9.30128e-320
9.31511e-320
9.33191e-320
9.35563e-320
9.39515e-320
9.46235e-320
4.2879e-319
4.09541e-319
3.91142e-319
3.73524e-319
3.56676e-319
3.40569e-319
3.25154e-319
3.10441e-319
2.9638e-319
2.82942e-319
2.70096e-319
2.57843e-319
2.46144e-319
2.34978e-319
2.24306e-319
2.14148e-319
2.04444e-319
1.95195e-319
1.86362e-319
1.77953e-319
1.69919e-319
1.62251e-319
1.54909e-319
1.47874e-319
1.41125e-319
1.34663e-319
1.28497e-319
1.22607e-319
1.17015e-319
1.11708e-319
9.15899e-320
9.16986e-320
9.17875e-320
9.18567e-320
9.1916e-320
9.19654e-320
9.20345e-320
9.21235e-320
9.22322e-320
9.23508e-320
9.24792e-320
9.26077e-320
9.2746e-320
9.28843e-320
9.30227e-320
9.3161e-320
9.33389e-320
9.3576e-320
9.39812e-320
9.46432e-320
4.28711e-319
4.09482e-319
3.91073e-319
3.73464e-319
3.56617e-319
3.4051e-319
3.25115e-319
3.10402e-319
2.96341e-319
2.82902e-319
2.70076e-319
2.57813e-319
2.46124e-319
2.34948e-319
2.24286e-319
2.14128e-319
2.04425e-319
1.95176e-319
1.86362e-319
1.77943e-319
1.69919e-319
1.62241e-319
1.54899e-319
1.47864e-319
1.41125e-319
1.34663e-319
1.28487e-319
1.22607e-319
1.17015e-319
1.11708e-319
9.158e-320
9.16986e-320
9.17875e-320
9.18567e-320
9.1916e-320
9.19654e-320
9.20345e-320
9.21235e-320
9.22322e-320
9.23508e-320
9.24792e-320
9.26175e-320
9.2746e-320
9.28843e-320
9.30227e-320
9.31709e-320
9.33488e-320
9.35958e-320
9.40009e-320
9.46432e-320
4.28632e-319
4.09403e-319
3.91004e-319
3.73405e-319
3.56567e-319
3.40471e-319
3.25075e-319
3.10352e-319
2.96301e-319
2.82862e-319
2.70037e-319
2.57784e-319
2.46084e-319
2.34918e-319
2.24266e-319
2.14108e-319
2.04405e-319
1.95156e-319
1.86342e-319
1.77933e-319
1.69899e-319
1.62231e-319
1.5489e-319
1.47854e-319
1.41105e-319
1.34653e-319
1.28477e-319
1.22607e-319
1.17015e-319
1.11698e-319
9.158e-320
9.16986e-320
9.17776e-320
9.18567e-320
9.1916e-320
9.19654e-320
9.20345e-320
9.21235e-320
9.22322e-320
9.23508e-320
9.24891e-320
9.26175e-320
9.27559e-320
9.28942e-320
9.30326e-320
9.31808e-320
9.33586e-320
9.36156e-320
9.40108e-320
9.46432e-320
4.28553e-319
4.09324e-319
3.90934e-319
3.73336e-319
3.56508e-319
3.40411e-319
3.25016e-319
3.10313e-319
2.96262e-319
2.82823e-319
2.69997e-319
2.57754e-319
2.46064e-319
2.34899e-319
2.24247e-319
2.14089e-319
2.04385e-319
1.95136e-319
1.86322e-319
1.77923e-319
1.69889e-319
1.62222e-319
1.5488e-319
1.47844e-319
1.41105e-319
1.34643e-319
1.28477e-319
1.22597e-319
1.17015e-319
1.11698e-319
9.158e-320
9.16887e-320
9.17776e-320
9.18567e-320
9.19061e-320
9.19654e-320
9.20345e-320
9.21235e-320
9.22322e-320
9.23508e-320
9.24891e-320
9.26175e-320
9.27559e-320
9.28942e-320
9.30424e-320
9.31907e-320
9.33784e-320
9.36353e-320
9.40306e-320
9.46432e-320
4.28454e-319
4.09244e-319
3.90865e-319
3.73276e-319
3.56439e-319
3.40352e-319
3.24967e-319
3.10263e-319
2.96212e-319
2.82783e-319
2.69957e-319
2.57724e-319
2.46025e-319
2.34869e-319
2.24227e-319
2.14059e-319
2.04365e-319
1.95126e-319
1.86312e-319
1.77903e-319
1.6988e-319
1.62212e-319
1.5487e-319
1.47844e-319
1.41095e-319
1.34643e-319
1.28467e-319
1.22588e-319
1.17005e-319
1.11698e-319
9.158e-320
9.16887e-320
9.17776e-320
9.18468e-320
9.19061e-320
9.19654e-320
9.20345e-320
9.21235e-320
9.22322e-320
9.23508e-320
9.24891e-320
9.26274e-320
9.27658e-320
9.29041e-320
9.30424e-320
9.32005e-320
9.33784e-320
9.36353e-320
9.40405e-320
9.46432e-320
4.28365e-319
4.09156e-319
3.90786e-319
3.73197e-319
3.56379e-319
3.40293e-319
3.24917e-319
3.10214e-319
2.96163e-319
2.82744e-319
2.69918e-319
2.57685e-319
2.45995e-319
2.34839e-319
2.24187e-319
2.14029e-319
2.04346e-319
1.95107e-319
1.86292e-319
1.77883e-319
1.6986e-319
1.62192e-319
1.5486e-319
1.47824e-319
1.41085e-319
1.34623e-319
1.28457e-319
1.22588e-319
1.16995e-319
1.11688e-319
9.158e-320
9.16788e-320
9.17776e-320
9.18468e-320
9.18962e-320
9.19555e-320
9.20345e-320
9.21235e-320
9.22322e-320
9.23508e-320
9.24891e-320
9.26274e-320
9.27658e-320
9.29041e-320
9.30424e-320
9.32005e-320
9.33883e-320
9.36551e-320
9.40503e-320
9.46235e-320
4.28266e-319
4.09067e-319
3.90697e-319
3.73118e-319
3.563e-319
3.40233e-319
3.24858e-319
3.10155e-319
2.96113e-319
2.82704e-319
2.69878e-319
2.57645e-319
2.45966e-319
2.3481e-319
2.24167e-319
2.14009e-319
2.04326e-319
1.95087e-319
1.86273e-319
1.77864e-319
1.6985e-319
1.62182e-319
1.5484e-319
1.47815e-319
1.41076e-319
1.34623e-319
1.28457e-319
1.22578e-319
1.16995e-319
1.11679e-319
9.158e-320
9.16788e-320
9.17776e-320
9.18369e-320
9.18962e-320
9.19555e-320
9.20345e-320
9.21235e-320
9.22322e-320
9.23508e-320
9.24891e-320
9.26274e-320
9.27658e-320
9.29041e-320
9.30424e-320
9.32005e-320
9.33982e-320
9.36551e-320
9.40503e-320
9.46235e-320
4.28157e-319
4.08968e-319
3.90608e-319
3.73039e-319
3.56231e-319
3.40154e-319
3.24789e-319
3.10095e-319
2.96064e-319
2.82645e-319
2.69839e-319
2.57606e-319
2.45926e-319
2.3478e-319
2.24128e-319
2.1399e-319
2.04306e-319
1.95057e-319
1.86263e-319
1.77854e-319
1.6984e-319
1.62172e-319
1.5484e-319
1.47805e-319
1.41066e-319
1.34603e-319
1.28437e-319
1.22568e-319
1.16985e-319
1.11679e-319
9.15701e-320
9.16788e-320
9.17678e-320
9.18369e-320
9.18962e-320
9.19555e-320
9.20345e-320
9.21235e-320
9.22322e-320
9.23508e-320
9.24891e-320
9.26274e-320
9.27658e-320
9.29041e-320
9.30424e-320
9.32005e-320
9.33982e-320
9.3665e-320
9.40503e-320
9.46037e-320
4.28058e-319
4.08869e-319
3.90509e-319
3.7296e-319
3.56162e-319
3.40095e-319
3.2472e-319
3.10036e-319
2.96005e-319
2.82606e-319
2.69799e-319
2.57566e-319
2.45887e-319
2.3474e-319
2.24108e-319
2.1395e-319
2.04267e-319
1.95037e-319
1.86243e-319
1.77834e-319
1.6982e-319
1.62152e-319
1.5482e-319
1.47785e-319
1.41046e-319
1.34603e-319
1.28437e-319
1.22568e-319
1.16975e-319
1.11679e-319
9.15602e-320
9.16788e-320
9.17579e-320
9.18369e-320
9.18962e-320
9.19555e-320
9.20345e-320
9.21136e-320
9.22322e-320
9.23508e-320
9.24891e-320
9.26175e-320
9.27658e-320
9.29041e-320
9.30424e-320
9.32104e-320
9.33982e-320
9.36748e-320
9.40503e-320
9.46037e-320
4.2794e-319
4.0877e-319
3.90421e-319
3.72861e-319
3.56073e-319
3.40016e-319
3.2466e-319
3.09977e-319
2.95945e-319
2.82546e-319
2.6974e-319
2.57527e-319
2.45847e-319
2.34701e-319
2.24069e-319
2.1393e-319
2.04247e-319
1.95018e-319
1.86213e-319
1.77824e-319
1.698e-319
1.62133e-319
1.54801e-319
1.47775e-319
1.41046e-319
1.34583e-319
1.28427e-319
1.22548e-319
1.16975e-319
1.11669e-319
9.15602e-320
9.16689e-320
9.17579e-320
9.18369e-320
9.18962e-320
9.19555e-320
9.20247e-320
9.21136e-320
9.22322e-320
9.23508e-320
9.24792e-320
9.26175e-320
9.27658e-320
9.29041e-320
9.30523e-320
9.32104e-320
9.34081e-320
9.36748e-320
9.40602e-320
9.45839e-320
4.27821e-319
4.08652e-319
3.90322e-319
3.72782e-319
3.55984e-319
3.39937e-319
3.24581e-319
3.09917e-319
2.95886e-319
2.82497e-319
2.69701e-319
2.57477e-319
2.45808e-319
2.34661e-319
2.24039e-319
2.13891e-319
2.04227e-319
1.94998e-319
1.86194e-319
1.77804e-319
1.69781e-319
1.62123e-319
1.54791e-319
1.47765e-319
1.41026e-319
1.34583e-319
1.28418e-319
1.22548e-319
1.16965e-319
1.11659e-319
9.15602e-320
9.16591e-320
9.17579e-320
9.1827e-320
9.18863e-320
9.19456e-320
9.20247e-320
9.21136e-320
9.22223e-320
9.23508e-320
9.24792e-320
9.26175e-320
9.27559e-320
9.29041e-320
9.30523e-320
9.32203e-320
9.34179e-320
9.36748e-320
9.40602e-320
9.45642e-320
4.27703e-319
4.08543e-319
3.90213e-319
3.72684e-319
3.55905e-319
3.39858e-319
3.24522e-319
3.09848e-319
2.95827e-319
2.82438e-319
2.69641e-319
2.57428e-319
2.45768e-319
2.34632e-319
2.24009e-319
2.13871e-319
2.04187e-319
1.94968e-319
1.86164e-319
1.77775e-319
1.69761e-319
1.62103e-319
1.54781e-319
1.47745e-319
1.41016e-319
1.34564e-319
1.28398e-319
1.22528e-319
1.16955e-319
1.11659e-319
9.15602e-320
9.16591e-320
9.1748e-320
9.18172e-320
9.18764e-320
9.19456e-320
9.20148e-320
9.21136e-320
9.22223e-320
9.23508e-320
9.24792e-320
9.26077e-320
9.27559e-320
9.29041e-320
9.30523e-320
9.32203e-320
9.34179e-320
9.36847e-320
9.40602e-320
9.45642e-320
4.27564e-319
4.08424e-319
3.90114e-319
3.72585e-319
3.55806e-319
3.39779e-319
3.24443e-319
3.09779e-319
2.95767e-319
2.82388e-319
2.69592e-319
2.57388e-319
2.45728e-319
2.34592e-319
2.2397e-319
2.13832e-319
2.04168e-319
1.94939e-319
1.86144e-319
1.77755e-319
1.69741e-319
1.62093e-319
1.54761e-319
1.47736e-319
1.41006e-319
1.34554e-319
1.28398e-319
1.22528e-319
1.16945e-319
1.11649e-319
9.15504e-320
9.16591e-320
9.17381e-320
9.18172e-320
9.18764e-320
9.19357e-320
9.20148e-320
9.21136e-320
9.22124e-320
9.23409e-320
9.24693e-320
9.26077e-320
9.27559e-320
9.29041e-320
9.30424e-320
9.32203e-320
9.34179e-320
9.36847e-320
9.40503e-320
9.45444e-320
4.27436e-319
4.08296e-319
3.89996e-319
3.72476e-319
3.55717e-319
3.3969e-319
3.24364e-319
3.097e-319
2.95708e-319
2.82319e-319
2.69542e-319
2.57329e-319
2.45669e-319
2.34543e-319
2.2393e-319
2.13792e-319
2.04128e-319
1.94919e-319
1.86124e-319
1.77735e-319
1.69721e-319
1.62073e-319
1.54741e-319
1.47716e-319
1.40987e-319
1.34544e-319
1.28378e-319
1.22509e-319
1.16935e-319
1.11639e-319
9.15405e-320
9.16492e-320
9.17381e-320
9.18172e-320
9.18764e-320
9.19357e-320
9.20148e-320
9.21037e-320
9.22124e-320
9.23409e-320
9.24693e-320
9.26077e-320
9.2746e-320
9.29041e-320
9.30424e-320
9.32203e-320
9.34179e-320
9.36946e-320
9.40503e-320
9.45246e-320
4.27307e-319
4.08177e-319
3.89877e-319
3.72367e-319
3.55628e-319
3.39601e-319
3.24285e-319
3.09631e-319
2.95629e-319
2.8226e-319
2.69483e-319
2.5728e-319
2.4563e-319
2.34503e-319
2.23891e-319
2.13762e-319
2.04099e-319
1.94879e-319
1.86095e-319
1.77706e-319
1.69702e-319
1.62054e-319
1.54722e-319
1.47706e-319
1.40967e-319
1.34524e-319
1.28368e-319
1.22509e-319
1.16935e-319
1.11629e-319
9.15405e-320
9.16393e-320
9.17381e-320
9.18073e-320
9.18666e-320
9.19357e-320
9.20049e-320
9.21037e-320
9.22124e-320
9.2331e-320
9.24693e-320
9.26077e-320
9.2746e-320
9.28942e-320
9.30424e-320
9.32203e-320
9.34179e-320
9.36946e-320
9.40503e-320
9.45148e-320
4.27159e-319
4.08049e-319
3.89759e-319
3.72269e-319
3.5552e-319
3.39502e-319
3.24196e-319
3.09562e-319
2.9557e-319
2.82191e-319
2.69424e-319
2.5723e-319
2.4558e-319
2.34464e-319
2.23851e-319
2.13733e-319
2.04069e-319
1.94859e-319
1.86065e-319
1.77686e-319
1.69682e-319
1.62034e-319
1.54702e-319
1.47686e-319
1.40957e-319
1.34514e-319
1.28358e-319
1.22489e-319
1.16916e-319
1.11619e-319
9.15306e-320
9.16393e-320
9.17282e-320
9.17974e-320
9.18567e-320
9.19259e-320
9.20049e-320
9.20938e-320
9.22124e-320
9.2331e-320
9.24693e-320
9.26077e-320
9.2746e-320
9.28942e-320
9.30424e-320
9.32203e-320
9.34179e-320
9.36946e-320
9.40503e-320
9.45049e-320
4.27011e-319
4.0792e-319
3.8964e-319
3.7215e-319
3.55411e-319
3.39413e-319
3.24107e-319
3.09483e-319
2.95491e-319
2.82131e-319
2.69365e-319
2.57171e-319
2.45531e-319
2.34414e-319
2.23812e-319
2.13693e-319
2.04029e-319
1.9482e-319
1.86045e-319
1.77666e-319
1.69662e-319
1.62014e-319
1.54682e-319
1.47666e-319
1.40937e-319
1.34504e-319
1.28338e-319
1.22489e-319
1.16906e-319
1.11619e-319
9.15207e-320
9.16294e-320
9.17183e-320
9.17974e-320
9.18567e-320
9.1916e-320
9.1995e-320
9.20938e-320
9.22025e-320
9.2331e-320
9.24594e-320
9.25978e-320
9.2746e-320
9.28843e-320
9.30424e-320
9.32203e-320
9.34179e-320
9.36946e-320
9.40503e-320
9.44851e-320
4.26863e-319
4.07782e-319
3.89511e-319
3.72031e-319
3.55312e-319
3.39314e-319
3.24018e-319
3.09394e-319
2.95412e-319
2.82062e-319
2.69305e-319
2.57112e-319
2.45472e-319
2.34365e-319
2.23772e-319
2.13654e-319
2.04e-319
1.948e-319
1.86016e-319
1.77636e-319
1.69642e-319
1.61994e-319
1.54662e-319
1.47647e-319
1.40927e-319
1.34485e-319
1.28329e-319
1.22469e-319
1.16896e-319
1.116e-319
9.15207e-320
9.16195e-320
9.17183e-320
9.17875e-320
9.18468e-320
9.1916e-320
9.1995e-320
9.20938e-320
9.21926e-320
9.23211e-320
9.24496e-320
9.25978e-320
9.2746e-320
9.28843e-320
9.30424e-320
9.32203e-320
9.34179e-320
9.36946e-320
9.40503e-320
9.44752e-320
4.26715e-319
4.07634e-319
3.89383e-319
3.71913e-319
3.55204e-319
3.39216e-319
3.23929e-319
3.09305e-319
2.95343e-319
2.81993e-319
2.69236e-319
2.57052e-319
2.45422e-319
2.34325e-319
2.23723e-319
2.13614e-319
2.0397e-319
1.94761e-319
1.85986e-319
1.77607e-319
1.69613e-319
1.61965e-319
1.54643e-319
1.47627e-319
1.40908e-319
1.34465e-319
1.28319e-319
1.22459e-319
1.16886e-319
1.1159e-319
9.15108e-320
9.16195e-320
9.17085e-320
9.17776e-320
9.18369e-320
9.19061e-320
9.19851e-320
9.2084e-320
9.21926e-320
9.23112e-320
9.24496e-320
9.25879e-320
9.27361e-320
9.28843e-320
9.30424e-320
9.32203e-320
9.34179e-320
9.36946e-320
9.40405e-320
9.44654e-320
4.26557e-319
4.07486e-319
3.89245e-319
3.71794e-319
3.55095e-319
3.39107e-319
3.2383e-319
3.09226e-319
2.95264e-319
2.81914e-319
2.69167e-319
2.56993e-319
2.45373e-319
2.34266e-319
2.23673e-319
2.13575e-319
2.03931e-319
1.94731e-319
1.85956e-319
1.77587e-319
1.69583e-319
1.61945e-319
1.54623e-319
1.47607e-319
1.40888e-319
1.34445e-319
1.28299e-319
1.22449e-319
1.16876e-319
1.1158e-319
9.1501e-320
9.16097e-320
9.16986e-320
9.17776e-320
9.18369e-320
9.18962e-320
9.19753e-320
9.20741e-320
9.21926e-320
9.23112e-320
9.24496e-320
9.25879e-320
9.27262e-320
9.28843e-320
9.30424e-320
9.32203e-320
9.34278e-320
9.36946e-320
9.40306e-320
9.44456e-320
4.26398e-319
4.07337e-319
3.89106e-319
3.71666e-319
3.54976e-319
3.39008e-319
3.23732e-319
3.09137e-319
2.95175e-319
2.81845e-319
2.69108e-319
2.56934e-319
2.45313e-319
2.34227e-319
2.23634e-319
2.13525e-319
2.03891e-319
1.94701e-319
1.85927e-319
1.77557e-319
1.69563e-319
1.61915e-319
1.54603e-319
1.47587e-319
1.40868e-319
1.34425e-319
1.28279e-319
1.22429e-319
1.16856e-319
1.1157e-319
9.1501e-320
9.15998e-320
9.16986e-320
9.17579e-320
9.1827e-320
9.18962e-320
9.19753e-320
9.20741e-320
9.21828e-320
9.23112e-320
9.24397e-320
9.25879e-320
9.27262e-320
9.28843e-320
9.30424e-320
9.32203e-320
9.34278e-320
9.36946e-320
9.40306e-320
9.44357e-320
4.26221e-319
4.07189e-319
3.88968e-319
3.71537e-319
3.54858e-319
3.38899e-319
3.23633e-319
3.09048e-319
2.95096e-319
2.81776e-319
2.69029e-319
2.56875e-319
2.45254e-319
2.34167e-319
2.23584e-319
2.13486e-319
2.03851e-319
1.94662e-319
1.85887e-319
1.77528e-319
1.69534e-319
1.61895e-319
1.54583e-319
1.47568e-319
1.40848e-319
1.34415e-319
1.28269e-319
1.2241e-319
1.16847e-319
1.1156e-319
9.14911e-320
9.15998e-320
9.16788e-320
9.17579e-320
9.18172e-320
9.18863e-320
9.19654e-320
9.20642e-320
9.21729e-320
9.23013e-320
9.24298e-320
9.2578e-320
9.27262e-320
9.28745e-320
9.30326e-320
9.32104e-320
9.34179e-320
9.36946e-320
9.40306e-320
9.44258e-320
4.26062e-319
4.07031e-319
3.8883e-319
3.71399e-319
3.54739e-319
3.38791e-319
3.23534e-319
3.08949e-319
2.95016e-319
2.81696e-319
2.68969e-319
2.56805e-319
2.45195e-319
2.34108e-319
2.23535e-319
2.13436e-319
2.03812e-319
1.94622e-319
1.85867e-319
1.77498e-319
1.69504e-319
1.61876e-319
1.54554e-319
1.47548e-319
1.40828e-319
1.34396e-319
1.28259e-319
1.224e-319
1.16837e-319
1.1154e-319
9.14812e-320
9.158e-320
9.16788e-320
9.1748e-320
9.18172e-320
9.18764e-320
9.19555e-320
9.20543e-320
9.21729e-320
9.22915e-320
9.24298e-320
9.25681e-320
9.27164e-320
9.28646e-320
9.30326e-320
9.32104e-320
9.34179e-320
9.36946e-320
9.40306e-320
9.44159e-320
4.25885e-319
4.06873e-319
3.88681e-319
3.71271e-319
3.54621e-319
3.38672e-319
3.23435e-319
3.0886e-319
2.94928e-319
2.81617e-319
2.6889e-319
2.56736e-319
2.45136e-319
2.34059e-319
2.23486e-319
2.13397e-319
2.03772e-319
1.94583e-319
1.85828e-319
1.77468e-319
1.69484e-319
1.61846e-319
1.54534e-319
1.47528e-319
1.40809e-319
1.34376e-319
1.2824e-319
1.2239e-319
1.16817e-319
1.1154e-319
9.14812e-320
9.158e-320
9.16591e-320
9.17381e-320
9.17974e-320
9.18764e-320
9.19555e-320
9.20543e-320
9.2163e-320
9.22915e-320
9.24298e-320
9.25681e-320
9.27065e-320
9.28646e-320
9.30227e-320
9.32104e-320
9.34179e-320
9.36946e-320
9.40207e-320
9.44061e-320
4.25707e-319
4.06715e-319
3.88533e-319
3.71142e-319
3.54482e-319
3.38563e-319
3.23336e-319
3.08761e-319
2.94839e-319
2.81538e-319
2.68811e-319
2.56677e-319
2.45076e-319
2.34009e-319
2.23436e-319
2.13347e-319
2.03733e-319
1.94543e-319
1.85788e-319
1.77429e-319
1.69445e-319
1.61816e-319
1.54504e-319
1.47508e-319
1.40789e-319
1.34356e-319
1.2822e-319
1.2237e-319
1.16807e-319
1.1152e-319
9.14614e-320
9.15602e-320
9.16591e-320
9.17282e-320
9.17974e-320
9.18567e-320
9.19357e-320
9.20345e-320
9.21531e-320
9.22816e-320
9.241e-320
9.25583e-320
9.27065e-320
9.28646e-320
9.30227e-320
9.32005e-320
9.34179e-320
9.36946e-320
9.40108e-320
9.43863e-320
4.25529e-319
4.06547e-319
3.88375e-319
3.70994e-319
3.54364e-319
3.38445e-319
3.23218e-319
3.08672e-319
2.9475e-319
2.81449e-319
2.68742e-319
2.56598e-319
2.45017e-319
2.3395e-319
2.23377e-319
2.13298e-319
2.03684e-319
1.94504e-319
1.85759e-319
1.77409e-319
1.69425e-319
1.61797e-319
1.54484e-319
1.47479e-319
1.40769e-319
1.34336e-319
1.282e-319
1.2235e-319
1.16797e-319
1.11501e-319
9.14614e-320
9.15602e-320
9.16492e-320
9.17183e-320
9.17776e-320
9.18567e-320
9.19357e-320
9.20345e-320
9.21531e-320
9.22717e-320
9.241e-320
9.25484e-320
9.27065e-320
9.28547e-320
9.30227e-320
9.32005e-320
9.34179e-320
9.36946e-320
9.40108e-320
9.43863e-320
4.25351e-319
4.06379e-319
3.88227e-319
3.70856e-319
3.54225e-319
3.38326e-319
3.23119e-319
3.08564e-319
2.94661e-319
2.81361e-319
2.68673e-319
2.56539e-319
2.44948e-319
2.33891e-319
2.23328e-319
2.13258e-319
2.03634e-319
1.94464e-319
1.85729e-319
1.7737e-319
1.69395e-319
1.61757e-319
1.54455e-319
1.47449e-319
1.4074e-319
1.34317e-319
1.2818e-319
1.22331e-319
1.16777e-319
1.11491e-319
9.14417e-320
9.15504e-320
9.16393e-320
9.17085e-320
9.17776e-320
9.18369e-320
9.19259e-320
9.20247e-320
9.21334e-320
9.22717e-320
9.24002e-320
9.25484e-320
9.26867e-320
9.28448e-320
9.30128e-320
9.32005e-320
9.34179e-320
9.36847e-320
9.40108e-320
9.43665e-320
4.25173e-319
4.06211e-319
3.88069e-319
3.70707e-319
3.54097e-319
3.38198e-319
3.23e-319
3.08465e-319
2.94562e-319
2.81281e-319
2.68594e-319
2.5646e-319
2.44879e-319
2.33831e-319
2.23278e-319
2.13199e-319
2.03595e-319
1.94425e-319
1.8569e-319
1.7734e-319
1.69366e-319
1.61737e-319
1.54425e-319
1.47429e-319
1.4072e-319
1.34297e-319
1.28161e-319
1.22311e-319
1.16758e-319
1.11481e-319
9.14417e-320
9.15405e-320
9.16195e-320
9.16986e-320
9.17579e-320
9.18369e-320
9.1916e-320
9.20148e-320
9.21334e-320
9.22519e-320
9.23903e-320
9.25385e-320
9.26867e-320
9.28448e-320
9.30029e-320
9.32005e-320
9.34179e-320
9.36847e-320
9.40009e-320
9.43567e-320
4.24976e-319
4.06043e-319
3.87911e-319
3.70569e-319
3.53968e-319
3.38079e-319
3.22882e-319
3.08356e-319
2.94463e-319
2.81193e-319
2.68515e-319
2.5639e-319
2.44819e-319
2.33772e-319
2.23219e-319
2.1316e-319
2.03555e-319
1.94385e-319
1.8565e-319
1.7731e-319
1.69326e-319
1.61708e-319
1.54405e-319
1.47409e-319
1.4069e-319
1.34267e-319
1.28141e-319
1.22301e-319
1.16738e-319
1.11461e-319
9.14219e-320
9.15207e-320
9.16195e-320
9.16887e-320
9.17579e-320
9.18172e-320
9.19061e-320
9.20049e-320
9.21136e-320
9.22519e-320
9.23903e-320
9.25286e-320
9.26768e-320
9.28349e-320
9.30029e-320
9.31907e-320
9.34179e-320
9.36748e-320
9.3991e-320
9.43468e-320
4.24788e-319
4.05865e-319
3.87743e-319
3.70411e-319
3.5383e-319
3.37961e-319
3.22773e-319
3.08257e-319
2.94374e-319
2.81104e-319
2.68426e-319
2.56321e-319
2.4475e-319
2.33713e-319
2.2316e-319
2.131e-319
2.03506e-319
1.94346e-319
1.85611e-319
1.77271e-319
1.69306e-319
1.61678e-319
1.54376e-319
1.4737e-319
1.4067e-319
1.34248e-319
1.28121e-319
1.22281e-319
1.16728e-319
1.11441e-319
9.14219e-320
9.15207e-320
9.15998e-320
9.16788e-320
9.17381e-320
9.18172e-320
9.18962e-320
9.1995e-320
9.21136e-320
9.22322e-320
9.23705e-320
9.25187e-320
9.2667e-320
9.28251e-320
9.30029e-320
9.31808e-320
9.34081e-320
9.36748e-320
9.3991e-320
9.4327e-320
4.246e-319
4.05687e-319
3.87585e-319
3.70263e-319
3.53692e-319
3.37822e-319
3.22655e-319
3.08149e-319
2.94275e-319
2.81015e-319
2.68347e-319
2.56242e-319
2.44681e-319
2.33644e-319
2.231e-319
2.13051e-319
2.03456e-319
1.94306e-319
1.85571e-319
1.77231e-319
1.69267e-319
1.61639e-319
1.54346e-319
1.4735e-319
1.40651e-319
1.34228e-319
1.28101e-319
1.22261e-319
1.16708e-319
1.11432e-319
9.14021e-320
9.1501e-320
9.15899e-320
9.16591e-320
9.17282e-320
9.17974e-320
9.18764e-320
9.19753e-320
9.20938e-320
9.22322e-320
9.23705e-320
9.25089e-320
9.2667e-320
9.28251e-320
9.29832e-320
9.31808e-320
9.33982e-320
9.36748e-320
9.39812e-320
9.4327e-320
4.24402e-319
4.05509e-319
3.87417e-319
3.70114e-319
3.53553e-319
3.37704e-319
3.22536e-319
3.0804e-319
2.94177e-319
2.80926e-319
2.68258e-319
2.56163e-319
2.44612e-319
2.33574e-319
2.23051e-319
2.13002e-319
2.03417e-319
1.94267e-319
1.85532e-319
1.77192e-319
1.69227e-319
1.61619e-319
1.54316e-319
1.4732e-319
1.40621e-319
1.34208e-319
1.28082e-319
1.22242e-319
1.16698e-319
1.11422e-319
9.13923e-320
9.14911e-320
9.158e-320
9.16492e-320
9.17183e-320
9.17875e-320
9.18764e-320
9.19753e-320
9.20938e-320
9.22124e-320
9.23508e-320
9.2499e-320
9.26472e-320
9.28053e-320
9.29832e-320
9.31808e-320
9.33982e-320
9.3665e-320
9.39713e-320
9.43073e-320
4.24205e-319
4.05322e-319
3.87249e-319
3.69956e-319
3.53405e-319
3.37565e-319
3.22417e-319
3.07921e-319
2.94068e-319
2.80827e-319
2.68179e-319
2.56084e-319
2.44543e-319
2.33515e-319
2.22992e-319
2.12942e-319
2.03357e-319
1.94217e-319
1.85492e-319
1.77162e-319
1.69198e-319
1.61579e-319