/*--------------------------------*- C++ -*----------------------------------*\
  =========                 |
  \\      /  F ield         | OpenFOAM: The Open Source CFD Toolbox
   \\    /   O peration     | Website:  https://openfoam.org
    \\  /    A nd           | Version:  9
     \\/     M anipulation  |
\*---------------------------------------------------------------------------*/
FoamFile
{
    format      ascii;
    class       volScalarField;
    location    "0.11";
    object      p;
}
// * * * * * * * * * * * * * * * * * * * * * * * * * * * * * * * * * * * * * //

dimensions      [1 -1 -2 0 0 0 0];

internalField   nonuniform List<scalar> 
5000
(
2.04151
2.04148
2.04147
2.04147
2.04147
2.04147
2.04148
2.0415
2.04152
2.04154
2.04158
2.04162
2.04168
2.04175
2.04184
2.04194
2.04204
2.04216
2.04227
2.04236
2.04243
2.04246
2.04246
2.04245
2.04246
2.04248
2.04253
2.04258
2.04258
2.04249
2.04228
2.04192
2.04153
2.04119
2.04091
2.04061
2.0402
2.03962
2.03882
2.0378
2.03657
2.03515
2.03359
2.03194
2.03021
2.02836
2.02608
2.02257
2.01578
2.00053
2.03956
2.03956
2.03958
2.03961
2.03965
2.03971
2.03978
2.03986
2.03995
2.04004
2.04015
2.04027
2.0404
2.04054
2.04069
2.04085
2.04101
2.04118
2.04135
2.0415
2.04163
2.04173
2.04181
2.04188
2.04196
2.04207
2.0422
2.04234
2.04246
2.04252
2.04248
2.04232
2.04211
2.0419
2.04171
2.04149
2.04118
2.04072
2.04007
2.03921
2.03814
2.03685
2.03534
2.03357
2.03147
2.02878
2.025
2.01903
2.00873
1.99028
2.03765
2.0377
2.03776
2.03782
2.0379
2.03798
2.03808
2.03818
2.0383
2.03842
2.03856
2.03871
2.03887
2.03904
2.03922
2.03941
2.03961
2.03981
2.04001
2.04021
2.0404
2.04058
2.04074
2.0409
2.04107
2.04125
2.04145
2.04164
2.04182
2.04196
2.04205
2.04205
2.04199
2.04191
2.04182
2.04168
2.04145
2.04108
2.04053
2.03979
2.03884
2.03766
2.03621
2.03444
2.0322
2.02922
2.02497
2.01852
2.00833
1.99214
2.03571
2.0358
2.03589
2.03599
2.0361
2.03622
2.03634
2.03648
2.03662
2.03678
2.03694
2.03712
2.03731
2.03752
2.03773
2.03795
2.03819
2.03843
2.03868
2.03893
2.03918
2.03942
2.03966
2.0399
2.04015
2.0404
2.04066
2.04092
2.04117
2.0414
2.04159
2.04173
2.04182
2.04187
2.04188
2.04184
2.04171
2.04144
2.04101
2.04039
2.03957
2.03851
2.03716
2.03546
2.03326
2.03031
2.02619
2.02022
2.01148
1.99859
2.03377
2.03389
2.03402
2.03415
2.0343
2.03445
2.03461
2.03478
2.03496
2.03515
2.03535
2.03557
2.0358
2.03604
2.03629
2.03655
2.03683
2.03712
2.03741
2.03772
2.03802
2.03833
2.03865
2.03897
2.03929
2.03962
2.03996
2.0403
2.04064
2.04095
2.04127
2.04155
2.04177
2.04196
2.04209
2.04217
2.04214
2.042
2.0417
2.04123
2.04055
2.03964
2.03844
2.03689
2.03484
2.03209
2.02832
2.02307
2.01577
2.00567
2.03182
2.03197
2.03213
2.0323
2.03248
2.03267
2.03286
2.03307
2.03329
2.03352
2.03376
2.03402
2.03429
2.03457
2.03487
2.03517
2.0355
2.03583
2.03618
2.03654
2.03691
2.03728
2.03767
2.03806
2.03847
2.03888
2.0393
2.03973
2.04016
2.04058
2.04101
2.04143
2.0418
2.04212
2.04239
2.04259
2.0427
2.04269
2.04254
2.04222
2.04171
2.04098
2.03997
2.03862
2.03681
2.03438
2.0311
2.02667
2.02079
2.01322
2.02987
2.03005
2.03024
2.03045
2.03066
2.03088
2.03111
2.03135
2.03161
2.03188
2.03216
2.03246
2.03277
2.03309
2.03343
2.03379
2.03416
2.03455
2.03495
2.03536
2.03579
2.03624
2.03669
2.03716
2.03764
2.03814
2.03865
2.03917
2.03969
2.04021
2.04076
2.04132
2.04183
2.04229
2.0427
2.04304
2.04328
2.04342
2.04343
2.04329
2.04297
2.04243
2.04165
2.04055
2.03905
2.03704
2.03437
2.03087
2.02648
2.02124
2.02792
2.02813
2.02835
2.02858
2.02883
2.02908
2.02935
2.02963
2.02992
2.03023
2.03055
2.03088
2.03124
2.03161
2.03199
2.0324
2.03282
2.03326
2.03371
2.03419
2.03468
2.03519
2.03572
2.03626
2.03682
2.0374
2.03799
2.0386
2.03922
2.03985
2.04053
2.04122
2.04187
2.04247
2.04302
2.0435
2.0439
2.0442
2.04437
2.04441
2.04429
2.04398
2.04345
2.04265
2.04152
2.03999
2.03799
2.03548
2.0325
2.02923
2.02597
2.02621
2.02646
2.02672
2.027
2.02728
2.02758
2.0279
2.02823
2.02857
2.02893
2.02931
2.02971
2.03012
2.03056
2.03101
2.03148
2.03197
2.03249
2.03302
2.03358
2.03415
2.03475
2.03537
2.03601
2.03667
2.03735
2.03805
2.03877
2.0395
2.0403
2.04114
2.04193
2.04268
2.04337
2.044
2.04455
2.04502
2.04537
2.04561
2.0457
2.04563
2.04537
2.04489
2.04416
2.04315
2.04184
2.04025
2.03851
2.0368
2.02403
2.02429
2.02457
2.02486
2.02516
2.02548
2.02582
2.02617
2.02654
2.02692
2.02732
2.02774
2.02818
2.02864
2.02912
2.02962
2.03015
2.0307
2.03127
2.03186
2.03248
2.03312
2.03379
2.03448
2.0352
2.03595
2.03672
2.03751
2.03833
2.03917
2.0401
2.04107
2.04201
2.0429
2.04374
2.04453
2.04525
2.04589
2.04643
2.04686
2.04718
2.04736
2.04739
2.04725
2.04693
2.04643
2.04577
2.04502
2.04432
2.04386
2.02208
2.02237
2.02267
2.02299
2.02333
2.02368
2.02405
2.02444
2.02484
2.02527
2.02571
2.02617
2.02665
2.02716
2.02769
2.02824
2.02882
2.02942
2.03005
2.03071
2.03139
2.0321
2.03284
2.03361
2.0344
2.03523
2.03609
2.03698
2.0379
2.03885
2.03991
2.04103
2.04211
2.04315
2.04415
2.04509
2.04598
2.0468
2.04753
2.04818
2.04872
2.04916
2.04949
2.04969
2.04978
2.04977
2.04972
2.0497
2.04988
2.05042
2.02013
2.02044
2.02078
2.02113
2.0215
2.02188
2.02229
2.02271
2.02315
2.02361
2.02409
2.0246
2.02513
2.02568
2.02626
2.02686
2.02749
2.02815
2.02884
2.02955
2.0303
2.03108
2.03189
2.03274
2.03361
2.03453
2.03548
2.03647
2.03749
2.03855
2.03973
2.04099
2.04222
2.04341
2.04457
2.04568
2.04674
2.04774
2.04867
2.04953
2.0503
2.051
2.05162
2.05217
2.05265
2.05311
2.05361
2.05425
2.05515
2.05648
2.01818
2.01852
2.01889
2.01927
2.01967
2.02008
2.02052
2.02098
2.02146
2.02196
2.02248
2.02303
2.0236
2.0242
2.02483
2.02548
2.02617
2.02688
2.02763
2.0284
2.02922
2.03006
2.03095
2.03187
2.03283
2.03383
2.03487
2.03595
2.03708
2.03825
2.03956
2.04097
2.04235
2.04369
2.045
2.04628
2.04751
2.0487
2.04983
2.0509
2.05192
2.05288
2.05379
2.05466
2.05551
2.05641
2.05741
2.0586
2.06012
2.06207
2.01623
2.0166
2.01699
2.0174
2.01783
2.01828
2.01875
2.01925
2.01976
2.0203
2.02087
2.02146
2.02208
2.02272
2.0234
2.0241
2.02484
2.02561
2.02642
2.02726
2.02813
2.02905
2.03001
2.031
2.03204
2.03313
2.03426
2.03545
2.03668
2.03796
2.03939
2.04095
2.04248
2.04398
2.04545
2.04689
2.0483
2.04968
2.05101
2.0523
2.05354
2.05476
2.05595
2.05714
2.05835
2.05964
2.06108
2.06276
2.06477
2.0672
2.01428
2.01468
2.0151
2.01554
2.016
2.01648
2.01699
2.01752
2.01807
2.01865
2.01925
2.01989
2.02055
2.02124
2.02197
2.02272
2.02352
2.02434
2.02521
2.02611
2.02705
2.02804
2.02907
2.03014
2.03126
2.03244
2.03366
2.03494
2.03628
2.03767
2.03924
2.04094
2.04261
2.04427
2.0459
2.04751
2.0491
2.05066
2.05219
2.0537
2.05517
2.05664
2.0581
2.05959
2.06113
2.06278
2.06461
2.06669
2.06911
2.07192
2.01233
2.01275
2.0132
2.01367
2.01417
2.01468
2.01522
2.01578
2.01638
2.01699
2.01764
2.01832
2.01902
2.01976
2.02054
2.02135
2.02219
2.02307
2.024
2.02496
2.02597
2.02702
2.02813
2.02928
2.03048
2.03174
2.03306
2.03444
2.03588
2.03738
2.03908
2.04092
2.04275
2.04456
2.04636
2.04814
2.0499
2.05165
2.05338
2.05509
2.05679
2.0585
2.06023
2.06199
2.06383
2.06581
2.06798
2.07041
2.07316
2.07627
2.01038
2.01083
2.01131
2.01181
2.01233
2.01288
2.01345
2.01405
2.01468
2.01534
2.01603
2.01675
2.0175
2.01829
2.01911
2.01997
2.02087
2.02181
2.02279
2.02382
2.02489
2.02601
2.02719
2.02841
2.0297
2.03105
2.03246
2.03394
2.03548
2.03709
2.03892
2.04091
2.04289
2.04485
2.04681
2.04876
2.0507
2.05263
2.05455
2.05647
2.0584
2.06034
2.06231
2.06434
2.06646
2.06873
2.0712
2.07393
2.07695
2.08028
2.00843
2.00891
2.00941
2.00994
2.0105
2.01108
2.01169
2.01232
2.01299
2.01368
2.01441
2.01517
2.01597
2.01681
2.01768
2.01859
2.01954
2.02054
2.02158
2.02267
2.0238
2.025
2.02624
2.02755
2.02892
2.03035
2.03185
2.03343
2.03508
2.0368
2.03876
2.04089
2.04302
2.04514
2.04725
2.04937
2.05149
2.0536
2.05572
2.05784
2.05997
2.06214
2.06435
2.06662
2.06899
2.07152
2.07426
2.07724
2.08048
2.084
2.00648
2.00699
2.00752
2.00808
2.00866
2.00928
2.00992
2.01059
2.01129
2.01203
2.0128
2.0136
2.01444
2.01532
2.01624
2.01721
2.01821
2.01926
2.02036
2.02151
2.02272
2.02398
2.0253
2.02668
2.02813
2.02965
2.03124
2.03292
2.03467
2.0365
2.03859
2.04087
2.04314
2.04542
2.04769
2.04997
2.05226
2.05456
2.05686
2.05918
2.06152
2.0639
2.06633
2.06883
2.07143
2.0742
2.07717
2.08036
2.08379
2.08745
2.00453
2.00506
2.00563
2.00621
2.00683
2.00747
2.00815
2.00886
2.0096
2.01037
2.01118
2.01203
2.01291
2.01384
2.01481
2.01582
2.01688
2.01799
2.01915
2.02036
2.02163
2.02296
2.02435
2.02581
2.02734
2.02894
2.03063
2.0324
2.03425
2.0362
2.03841
2.04083
2.04326
2.04568
2.04811
2.05056
2.05302
2.05549
2.05798
2.06048
2.06302
2.0656
2.06825
2.07096
2.07378
2.07676
2.07992
2.0833
2.0869
2.09067
2.00258
2.00314
2.00373
2.00435
2.00499
2.00567
2.00638
2.00712
2.0079
2.00871
2.00956
2.01045
2.01138
2.01235
2.01337
2.01443
2.01555
2.01671
2.01793
2.0192
2.02053
2.02193
2.02339
2.02493
2.02654
2.02823
2.03
2.03187
2.03383
2.03588
2.03822
2.04079
2.04335
2.04593
2.04852
2.05113
2.05376
2.0564
2.05906
2.06175
2.06448
2.06726
2.0701
2.07301
2.07603
2.0792
2.08254
2.08608
2.08981
2.09368
2.00063
2.00122
2.00183
2.00248
2.00316
2.00387
2.00461
2.00539
2.0062
2.00705
2.00794
2.00887
2.00984
2.01086
2.01193
2.01304
2.01421
2.01543
2.0167
2.01803
2.01943
2.02089
2.02243
2.02404
2.02573
2.0275
2.02937
2.03133
2.03339
2.03555
2.03801
2.04072
2.04344
2.04616
2.0489
2.05167
2.05446
2.05728
2.06012
2.06298
2.06589
2.06885
2.07188
2.07499
2.07819
2.08153
2.08503
2.08871
2.09255
2.0965
1.99868
1.99929
1.99994
2.00061
2.00132
2.00206
2.00283
2.00365
2.0045
2.00538
2.00631
2.00729
2.0083
2.00937
2.01048
2.01165
2.01286
2.01414
2.01547
2.01686
2.01832
2.01985
2.02146
2.02314
2.02491
2.02677
2.02872
2.03078
2.03294
2.0352
2.03779
2.04064
2.0435
2.04637
2.04926
2.05218
2.05514
2.05812
2.06113
2.06417
2.06725
2.07039
2.0736
2.07688
2.08026
2.08375
2.0874
2.0912
2.09513
2.09916
1.99673
1.99737
1.99804
1.99874
1.99948
2.00025
2.00106
2.00191
2.00279
2.00372
2.00469
2.0057
2.00676
2.00787
2.00903
2.01024
2.01151
2.01284
2.01423
2.01568
2.01721
2.0188
2.02047
2.02223
2.02407
2.02602
2.02806
2.03021
2.03246
2.03484
2.03755
2.04054
2.04353
2.04655
2.04959
2.05267
2.05578
2.05892
2.0621
2.0653
2.06855
2.07186
2.07524
2.0787
2.08224
2.08588
2.08966
2.09357
2.09759
2.10167
1.99478
1.99544
1.99614
1.99687
1.99764
1.99844
1.99928
2.00016
2.00108
2.00205
2.00305
2.00411
2.00521
2.00637
2.00757
2.00884
2.01016
2.01154
2.01298
2.0145
2.01608
2.01774
2.01948
2.02131
2.02323
2.02525
2.02738
2.02962
2.03198
2.03445
2.03728
2.04041
2.04354
2.0467
2.04989
2.05311
2.05638
2.05968
2.06302
2.06639
2.0698
2.07328
2.07682
2.08043
2.08413
2.08792
2.09182
2.09583
2.09993
2.10407
1.99283
1.99352
1.99424
1.995
1.9958
1.99663
1.9975
1.99841
1.99937
2.00037
2.00142
2.00251
2.00366
2.00486
2.00611
2.00742
2.00879
2.01023
2.01173
2.0133
2.01494
2.01667
2.01847
2.02037
2.02237
2.02447
2.02668
2.02901
2.03146
2.03405
2.03699
2.04025
2.04352
2.04682
2.05015
2.05352
2.05694
2.0604
2.06389
2.06742
2.071
2.07463
2.07833
2.0821
2.08594
2.08987
2.09389
2.098
2.10218
2.10636
1.99088
1.99159
1.99234
1.99313
1.99395
1.99481
1.99572
1.99666
1.99765
1.99869
1.99977
2.00091
2.0021
2.00334
2.00464
2.006
2.00742
2.00891
2.01046
2.01209
2.01379
2.01558
2.01745
2.01942
2.02149
2.02367
2.02596
2.02838
2.03093
2.03361
2.03667
2.04006
2.04347
2.0469
2.05038
2.05389
2.05746
2.06107
2.06472
2.0684
2.07213
2.07592
2.07977
2.08369
2.08768
2.09174
2.09588
2.10009
2.10434
2.10858
1.98893
1.98967
1.99044
1.99125
1.9921
1.993
1.99393
1.99491
1.99593
1.997
1.99813
1.9993
2.00053
2.00182
2.00316
2.00457
2.00604
2.00758
2.00919
2.01087
2.01263
2.01448
2.01641
2.01845
2.02059
2.02284
2.02522
2.02773
2.03037
2.03315
2.03633
2.03984
2.04338
2.04695
2.05056
2.05422
2.05792
2.06168
2.06548
2.06933
2.07321
2.07715
2.08115
2.08521
2.08934
2.09353
2.09779
2.1021
2.10643
2.11073
1.98698
1.98774
1.98854
1.98938
1.99025
1.99117
1.99214
1.99315
1.9942
1.99531
1.99647
1.99768
1.99895
2.00028
2.00168
2.00313
2.00465
2.00624
2.0079
2.00964
2.01146
2.01336
2.01536
2.01746
2.01967
2.022
2.02446
2.02705
2.02978
2.03266
2.03594
2.03958
2.04325
2.04695
2.0507
2.05449
2.05834
2.06225
2.0662
2.07019
2.07423
2.07832
2.08247
2.08667
2.09094
2.09526
2.09964
2.10405
2.10847
2.11283
1.98503
1.98581
1.98663
1.9875
1.9884
1.98935
1.99034
1.99138
1.99247
1.99361
1.99481
1.99606
1.99737
1.99874
2.00018
2.00168
2.00325
2.00489
2.0066
2.00839
2.01026
2.01222
2.01428
2.01645
2.01872
2.02113
2.02366
2.02634
2.02916
2.03213
2.03552
2.03929
2.04308
2.04691
2.05079
2.05472
2.05871
2.06276
2.06686
2.071
2.07519
2.07943
2.08373
2.08808
2.09248
2.09694
2.10143
2.10595
2.11045
2.11489
1.98308
1.98388
1.98473
1.98561
1.98654
1.98752
1.98854
1.98961
1.99073
1.99191
1.99314
1.99443
1.99578
1.99719
1.99867
2.00021
2.00183
2.00352
2.00528
2.00712
2.00905
2.01107
2.01319
2.01541
2.01776
2.02023
2.02284
2.0256
2.0285
2.03156
2.03507
2.03895
2.04286
2.04682
2.05083
2.0549
2.05903
2.06321
2.06746
2.07175
2.0761
2.08049
2.08493
2.08942
2.09397
2.09856
2.10318
2.10781
2.11241
2.11692
1.98113
1.98195
1.98282
1.98373
1.98469
1.98569
1.98674
1.98784
1.98899
1.9902
1.99146
1.99279
1.99418
1.99563
1.99715
1.99874
2.0004
2.00213
2.00394
2.00584
2.00782
2.00989
2.01207
2.01435
2.01676
2.0193
2.02199
2.02482
2.02781
2.03096
2.03457
2.03856
2.0426
2.04668
2.05082
2.05502
2.05929
2.06362
2.068
2.07245
2.07694
2.08149
2.08608
2.09072
2.09541
2.10014
2.10489
2.10964
2.11434
2.11894
1.97917
1.98002
1.98091
1.98184
1.98282
1.98385
1.98493
1.98606
1.98724
1.98848
1.98978
1.99114
1.99256
1.99405
1.99561
1.99725
1.99895
2.00073
2.00259
2.00454
2.00657
2.0087
2.01093
2.01327
2.01574
2.01835
2.0211
2.02401
2.02708
2.03032
2.03402
2.03813
2.04228
2.04649
2.05076
2.05509
2.05949
2.06396
2.06849
2.07308
2.07773
2.08243
2.08718
2.09198
2.09681
2.10169
2.10657
2.11144
2.11626
2.12096
1.97722
1.97809
1.979
1.97996
1.98096
1.98201
1.98311
1.98427
1.98548
1.98675
1.98808
1.98948
1.99094
1.99247
1.99407
1.99574
1.99749
1.99931
2.00122
2.00321
2.00529
2.00747
2.00976
2.01216
2.01469
2.01735
2.02018
2.02316
2.02631
2.02963
2.03343
2.03765
2.04192
2.04624
2.05063
2.0551
2.05964
2.06425
2.06892
2.07366
2.07846
2.08332
2.08823
2.09318
2.09818
2.1032
2.10823
2.11324
2.11817
2.12298
1.97527
1.97615
1.97709
1.97806
1.97909
1.98016
1.98129
1.98247
1.98371
1.98501
1.98638
1.9878
1.9893
1.99086
1.9925
1.99421
1.996
1.99787
1.99982
2.00186
2.00399
2.00622
2.00856
2.01101
2.0136
2.01633
2.01921
2.02226
2.02549
2.02889
2.03279
2.03711
2.04149
2.04594
2.05045
2.05505
2.05972
2.06447
2.06929
2.07419
2.07914
2.08416
2.08923
2.09435
2.0995
2.10469
2.10987
2.11502
2.12008
2.12502
1.97332
1.97422
1.97517
1.97617
1.97722
1.97831
1.97947
1.98067
1.98194
1.98327
1.98466
1.98612
1.98765
1.98925
1.99092
1.99267
1.9945
1.99641
1.99841
2.00049
2.00267
2.00495
2.00733
2.00984
2.01248
2.01526
2.01821
2.02133
2.02462
2.0281
2.03209
2.03653
2.04102
2.04558
2.05021
2.05494
2.05975
2.06464
2.06961
2.07465
2.07977
2.08495
2.09019
2.09547
2.1008
2.10615
2.11149
2.11679
2.122
2.12707
1.97136
1.97228
1.97325
1.97427
1.97534
1.97646
1.97763
1.97886
1.98016
1.98151
1.98293
1.98442
1.98598
1.98761
1.98932
1.99111
1.99298
1.99493
1.99696
1.99909
2.00131
2.00364
2.00607
2.00863
2.01132
2.01416
2.01716
2.02034
2.02371
2.02726
2.03134
2.03588
2.04048
2.04515
2.04991
2.05476
2.05971
2.06474
2.06987
2.07507
2.08035
2.08569
2.0911
2.09656
2.10206
2.10759
2.1131
2.11856
2.12393
2.12914
1.96941
1.97034
1.97133
1.97237
1.97346
1.9746
1.97579
1.97705
1.97837
1.97975
1.98119
1.98271
1.9843
1.98596
1.9877
1.98953
1.99143
1.99342
1.9955
1.99766
1.99993
2.0023
2.00478
2.00738
2.01012
2.01301
2.01607
2.01931
2.02274
2.02637
2.03053
2.03517
2.03988
2.04466
2.04954
2.05452
2.05961
2.06479
2.07006
2.07543
2.08087
2.08639
2.09198
2.09762
2.1033
2.109
2.11469
2.12033
2.12586
2.13124
1.96745
1.96841
1.96941
1.97047
1.97157
1.97273
1.97395
1.97523
1.97656
1.97797
1.97944
1.98098
1.9826
1.98429
1.98607
1.98792
1.98986
1.99188
1.994
1.99621
1.99851
2.00092
2.00345
2.00609
2.00888
2.01182
2.01493
2.01823
2.02172
2.02542
2.02967
2.0344
2.03921
2.04411
2.04911
2.05422
2.05944
2.06477
2.0702
2.07573
2.08134
2.08704
2.09281
2.09864
2.10451
2.1104
2.11628
2.1221
2.12781
2.13335
1.9655
1.96647
1.96749
1.96856
1.96968
1.97086
1.9721
1.97339
1.97475
1.97618
1.97767
1.97924
1.98088
1.98261
1.98441
1.98629
1.98826
1.99032
1.99247
1.99472
1.99706
1.99951
2.00208
2.00476
2.00759
2.01058
2.01374
2.01709
2.02064
2.02441
2.02874
2.03357
2.03848
2.04349
2.04861
2.05385
2.05921
2.06469
2.07028
2.07597
2.08176
2.08764
2.0936
2.09962
2.10568
2.11177
2.11784
2.12386
2.12976
2.13549
1.96354
1.96452
1.96556
1.96665
1.96779
1.96898
1.97024
1.97155
1.97293
1.97438
1.97589
1.97748
1.97915
1.9809
1.98272
1.98464
1.98664
1.98873
1.99091
1.99319
1.99557
1.99806
2.00066
2.00339
2.00626
2.00929
2.0125
2.0159
2.01951
2.02334
2.02775
2.03267
2.03768
2.0428
2.04804
2.05341
2.05891
2.06454
2.07029
2.07616
2.08213
2.08819
2.09434
2.10055
2.10682
2.11311
2.11939
2.12561
2.13171
2.13764
1.96159
1.96258
1.96363
1.96473
1.96589
1.9671
1.96837
1.9697
1.97109
1.97256
1.9741
1.97571
1.9774
1.97917
1.98102
1.98296
1.98499
1.98711
1.98932
1.99163
1.99405
1.99657
1.99921
2.00197
2.00488
2.00795
2.01121
2.01466
2.01832
2.0222
2.02669
2.0317
2.03682
2.04204
2.04741
2.05291
2.05855
2.06433
2.07024
2.07628
2.08243
2.08868
2.09503
2.10145
2.10792
2.11442
2.12091
2.12735
2.13367
2.13981
1.95963
1.96064
1.9617
1.96281
1.96398
1.9652
1.96649
1.96783
1.96925
1.97073
1.97229
1.97392
1.97562
1.97741
1.97929
1.98125
1.98331
1.98545
1.98769
1.99003
1.99248
1.99503
1.9977
2.0005
2.00345
2.00656
2.00986
2.01335
2.01706
2.021
2.02556
2.03066
2.03587
2.04121
2.04669
2.05233
2.05812
2.06405
2.07013
2.07634
2.08267
2.08912
2.09566
2.10229
2.10898
2.1157
2.12241
2.12907
2.13562
2.14199
1.95767
1.95869
1.95976
1.96089
1.96207
1.9633
1.9646
1.96596
1.96739
1.96889
1.97046
1.97211
1.97383
1.97564
1.97753
1.97952
1.98159
1.98376
1.98603
1.98839
1.99087
1.99345
1.99615
1.99898
2.00196
2.00511
2.00844
2.01198
2.01574
2.01974
2.02436
2.02955
2.03486
2.04031
2.04591
2.05167
2.05761
2.0637
2.06994
2.07633
2.08285
2.08949
2.09624
2.10307
2.10998
2.11692
2.12387
2.13077
2.13755
2.14417
1.95572
1.95674
1.95782
1.95896
1.96015
1.96139
1.9627
1.96408
1.96552
1.96703
1.96861
1.97027
1.97202
1.97384
1.97575
1.97775
1.97985
1.98204
1.98433
1.98671
1.98921
1.99182
1.99455
1.99741
2.00042
2.0036
2.00697
2.01055
2.01435
2.0184
2.02309
2.02836
2.03377
2.03932
2.04504
2.05094
2.05702
2.06327
2.06968
2.07624
2.08295
2.08979
2.09674
2.10379
2.11092
2.1181
2.12529
2.13243
2.13947
2.14635
1.95376
1.95479
1.95588
1.95702
1.95822
1.95948
1.96079
1.96218
1.96363
1.96515
1.96675
1.96842
1.97018
1.97202
1.97394
1.97596
1.97807
1.98028
1.98258
1.98499
1.9875
1.99013
1.99289
1.99578
1.99882
2.00203
2.00544
2.00905
2.0129
2.017
2.02175
2.0271
2.0326
2.03826
2.0441
2.05013
2.05635
2.06275
2.06933
2.07607
2.08297
2.09
2.09716
2.10444
2.1118
2.11922
2.12666
2.13406
2.14137
2.14853
1.9518
1.95283
1.95393
1.95508
1.95629
1.95755
1.95888
1.96027
1.96173
1.96326
1.96487
1.96655
1.96832
1.97017
1.9721
1.97413
1.97626
1.97848
1.9808
1.98322
1.98575
1.9884
1.99117
1.99409
1.99715
2.0004
2.00383
2.00749
2.01137
2.01552
2.02034
2.02577
2.03135
2.03712
2.04307
2.04923
2.05559
2.06215
2.06889
2.07581
2.08289
2.09013
2.0975
2.105
2.1126
2.12027
2.12797
2.13564
2.14324
2.1507
1.94984
1.95088
1.95198
1.95314
1.95435
1.95562
1.95695
1.95835
1.95981
1.96135
1.96297
1.96466
1.96643
1.96829
1.97023
1.97227
1.9744
1.97664
1.97897
1.9814
1.98395
1.98661
1.9894
1.99234
1.99543
1.99869
2.00216
2.00585
2.00978
2.01397
2.01884
2.02435
2.03003
2.03589
2.04196
2.04825
2.05475
2.06145
2.06836
2.07545
2.08272
2.09016
2.09774
2.10547
2.11331
2.12124
2.12921
2.13718
2.14508
2.15285
1.94788
1.94892
1.95003
1.95118
1.9524
1.95367
1.95501
1.95641
1.95788
1.95943
1.96105
1.96274
1.96452
1.96638
1.96833
1.97038
1.97252
1.97475
1.97709
1.97954
1.98209
1.98477
1.98757
1.99052
1.99363
1.99692
2.00042
2.00414
2.0081
2.01234
2.01728
2.02286
2.02862
2.03458
2.04076
2.04717
2.0538
2.06065
2.06772
2.07498
2.08244
2.09007
2.09788
2.10583
2.11392
2.12212
2.13037
2.13865
2.14687
2.15499
1.94592
1.94696
1.94807
1.94923
1.95044
1.95172
1.95306
1.95446
1.95594
1.95748
1.9591
1.9608
1.96258
1.96445
1.9664
1.96845
1.97059
1.97283
1.97517
1.97762
1.98018
1.98287
1.98568
1.98864
1.99177
1.99508
1.9986
2.00235
2.00635
2.01063
2.01562
2.02128
2.02712
2.03318
2.03946
2.04598
2.05275
2.05974
2.06696
2.0744
2.08204
2.08987
2.09789
2.10608
2.11443
2.1229
2.13145
2.14004
2.14861
2.15709
1.94395
1.945
1.9461
1.94726
1.94848
1.94976
1.9511
1.9525
1.95397
1.95552
1.95714
1.95884
1.96062
1.96248
1.96444
1.96648
1.96862
1.97086
1.97321
1.97566
1.97822
1.98091
1.98373
1.9867
1.98984
1.99317
1.99671
2.00048
2.00452
2.00884
2.01389
2.01961
2.02554
2.03168
2.03806
2.0447
2.05158
2.05871
2.06608
2.07368
2.0815
2.08954
2.09777
2.1062
2.11481
2.12357
2.13243
2.14136
2.15028
2.15915
1.94199
1.94303
1.94414
1.9453
1.94651
1.94778
1.94912
1.95052
1.95199
1.95354
1.95515
1.95685
1.95863
1.96049
1.96244
1.96448
1.96662
1.96885
1.97119
1.97364
1.9762
1.97889
1.98171
1.98469
1.98784
1.99118
1.99474
1.99854
2.0026
2.00697
2.01207
2.01786
2.02385
2.03008
2.03656
2.0433
2.0503
2.05756
2.06507
2.07283
2.08083
2.08906
2.09751
2.10619
2.11506
2.12411
2.1333
2.14258
2.15188
2.16114
1.94003
1.94107
1.94217
1.94332
1.94453
1.9458
1.94713
1.94853
1.95
1.95153
1.95315
1.95484
1.95661
1.95846
1.9604
1.96244
1.96457
1.96679
1.96913
1.97157
1.97412
1.97681
1.97963
1.98261
1.98576
1.98911
1.99269
1.99651
2.00061
2.00501
2.01015
2.016
2.02207
2.02838
2.03494
2.04178
2.04889
2.05627
2.06392
2.07183
2.08
2.08842
2.0971
2.10602
2.11516
2.12452
2.13404
2.14368
2.15338
2.16306
1.93806
1.9391
1.94019
1.94134
1.94254
1.94381
1.94513
1.94653
1.94798
1.94951
1.95111
1.95279
1.95456
1.9564
1.95833
1.96036
1.96248
1.96469
1.96701
1.96944
1.97199
1.97466
1.97748
1.98046
1.98361
1.98697
1.99055
1.9944
1.99852
2.00295
2.00814
2.01405
2.02018
2.02656
2.0332
2.04013
2.04735
2.05484
2.06262
2.07068
2.07901
2.08763
2.09652
2.10568
2.11511
2.12478
2.13464
2.14466
2.15476
2.16488
1.9361
1.93712
1.93821
1.93935
1.94055
1.9418
1.94312
1.9445
1.94595
1.94747
1.94906
1.95073
1.95248
1.95431
1.95623
1.95824
1.96034
1.96254
1.96485
1.96726
1.9698
1.97246
1.97527
1.97823
1.98139
1.98475
1.98834
1.9922
1.99634
2.00081
2.00603
2.01199
2.01818
2.02462
2.03134
2.03835
2.04566
2.05326
2.06116
2.06935
2.07785
2.08666
2.09577
2.10518
2.11489
2.12487
2.13508
2.14548
2.156
2.16657
1.93413
1.93515
1.93623
1.93736
1.93854
1.93979
1.94109
1.94246
1.9439
1.9454
1.94698
1.94863
1.95037
1.95218
1.95408
1.95608
1.95816
1.96034
1.96263
1.96503
1.96754
1.97019
1.97298
1.97594
1.97909
1.98244
1.98604
1.98991
1.99407
1.99856
2.00382
2.00981
2.01605
2.02255
2.02934
2.03642
2.04381
2.05151
2.05952
2.06786
2.07651
2.0855
2.09482
2.10448
2.11447
2.12477
2.13534
2.14612
2.15707
2.16811
1.93216
1.93317
1.93424
1.93535
1.93653
1.93776
1.93905
1.94041
1.94183
1.94332
1.94488
1.94651
1.94823
1.95002
1.9519
1.95387
1.95594
1.9581
1.96036
1.96274
1.96523
1.96786
1.97063
1.97357
1.97671
1.98006
1.98366
1.98753
1.9917
1.99621
2.00149
2.00752
2.0138
2.02035
2.02719
2.03434
2.0418
2.04959
2.05771
2.06617
2.07498
2.08414
2.09368
2.10359
2.11385
2.12447
2.13539
2.14657
2.15795
2.16947
1.93019
1.93119
1.93224
1.93335
1.9345
1.93572
1.937
1.93833
1.93974
1.94121
1.94275
1.94436
1.94605
1.94783
1.94968
1.95163
1.95367
1.9558
1.95804
1.96039
1.96286
1.96546
1.96821
1.97114
1.97426
1.9776
1.98119
1.98506
1.98924
1.99375
1.99905
2.00511
2.01142
2.018
2.02489
2.03209
2.03962
2.04749
2.0557
2.06428
2.07323
2.08258
2.09232
2.10246
2.11301
2.12393
2.13521
2.14678
2.1586
2.17061
1.92822
1.92921
1.93024
1.93133
1.93247
1.93367
1.93492
1.93624
1.93762
1.93907
1.94059
1.94218
1.94385
1.9456
1.94743
1.94934
1.95135
1.95346
1.95566
1.95798
1.96042
1.963
1.96573
1.96863
1.97173
1.97505
1.97863
1.9825
1.98667
1.99119
1.99649
2.00257
2.0089
2.01551
2.02243
2.02967
2.03725
2.04519
2.05349
2.06218
2.07127
2.08078
2.09072
2.1011
2.11191
2.12314
2.13476
2.14673
2.159
2.17151
1.92625
1.92722
1.92824
1.92931
1.93043
1.93161
1.93284
1.93413
1.93549
1.93692
1.93841
1.93998
1.94162
1.94333
1.94513
1.94702
1.94899
1.95106
1.95324
1.95552
1.95793
1.96047
1.96317
1.96604
1.96912
1.97242
1.97599
1.97984
1.984
1.98851
1.99382
1.99989
2.00623
2.01285
2.01979
2.02706
2.03469
2.04268
2.05107
2.05986
2.06908
2.07874
2.08887
2.09947
2.11053
2.12206
2.13403
2.14639
2.15911
2.17214
1.92428
1.92523
1.92623
1.92728
1.92838
1.92953
1.93074
1.93201
1.93334
1.93474
1.9362
1.93774
1.93935
1.94103
1.9428
1.94465
1.94659
1.94862
1.95075
1.953
1.95537
1.95788
1.96055
1.96339
1.96643
1.96971
1.97325
1.97708
1.98123
1.98572
1.99101
1.99707
2.0034
2.01003
2.01697
2.02426
2.03192
2.03996
2.04841
2.0573
2.06663
2.07644
2.08674
2.09754
2.10886
2.12067
2.13298
2.14573
2.15891
2.17247
1.92231
1.92324
1.92421
1.92524
1.92631
1.92744
1.92863
1.92987
1.93117
1.93254
1.93397
1.93547
1.93705
1.9387
1.94042
1.94224
1.94413
1.94613
1.94822
1.95043
1.95276
1.95523
1.95785
1.96066
1.96367
1.96692
1.97043
1.97423
1.97835
1.98282
1.98808
1.99412
2.00043
2.00704
2.01397
2.02127
2.02894
2.03702
2.04552
2.05448
2.06391
2.07385
2.08431
2.0953
2.10685
2.11894
2.13157
2.14472
2.15835
2.17245
1.92034
1.92124
1.92219
1.92319
1.92424
1.92534
1.9265
1.92771
1.92898
1.93032
1.93171
1.93318
1.93472
1.93633
1.93801
1.93978
1.94164
1.94359
1.94564
1.9478
1.95008
1.95251
1.95509
1.95786
1.96083
1.96404
1.96751
1.97127
1.97536
1.97979
1.98502
1.99101
1.99729
2.00386
2.01078
2.01806
2.02574
2.03384
2.04238
2.0514
2.06091
2.07096
2.08155
2.09272
2.10448
2.11684
2.12979
2.14333
2.15742
2.17207
1.91836
1.91924
1.92017
1.92114
1.92216
1.92323
1.92435
1.92553
1.92677
1.92807
1.92943
1.93086
1.93235
1.93392
1.93556
1.93729
1.9391
1.941
1.943
1.94511
1.94735
1.94973
1.95226
1.95498
1.95791
1.96107
1.9645
1.96822
1.97226
1.97665
1.98182
1.98776
1.99398
2.00051
2.00739
2.01465
2.02231
2.03041
2.03897
2.04803
2.05761
2.06774
2.07845
2.08977
2.10172
2.11433
2.1276
2.14151
2.15607
2.17127
1.91639
1.91724
1.91814
1.91908
1.92007
1.9211
1.9222
1.92334
1.92454
1.9258
1.92712
1.92851
1.92996
1.93148
1.93308
1.93475
1.93651
1.93836
1.94031
1.94237
1.94456
1.94688
1.94937
1.95203
1.95491
1.95802
1.96139
1.96506
1.96905
1.97338
1.97848
1.98435
1.9905
1.99697
2.0038
2.01101
2.01864
2.02673
2.03529
2.04436
2.05398
2.06417
2.07497
2.08642
2.09856
2.1114
2.12496
2.13925
2.15427
2.17002
1.91441
1.91523
1.9161
1.91701
1.91796
1.91897
1.92002
1.92113
1.92229
1.92351
1.92479
1.92613
1.92753
1.92901
1.93055
1.93217
1.93388
1.93568
1.93757
1.93958
1.94171
1.94397
1.9464
1.94901
1.95183
1.95488
1.9582
1.9618
1.96572
1.96998
1.975
1.98078
1.98685
1.99325
2
2.00715
2.01473
2.02278
2.03132
2.04038
2.05001
2.06023
2.07111
2.08266
2.09495
2.10801
2.12186
2.13651
2.15197
2.16826
1.91244
1.91323
1.91406
1.91493
1.91585
1.91682
1.91784
1.91891
1.92003
1.9212
1.92243
1.92372
1.92508
1.9265
1.92799
1.92956
1.93121
1.93295
1.93478
1.93673
1.9388
1.941
1.94337
1.94592
1.94867
1.95166
1.95491
1.95844
1.96228
1.96646
1.97138
1.97706
1.98303
1.98933
1.99599
2.00306
2.01057
2.01856
2.02704
2.03607
2.04568
2.05592
2.06683
2.07847
2.09089
2.10413
2.11824
2.13324
2.14913
2.16595
1.91046
1.91122
1.91201
1.91285
1.91373
1.91466
1.91564
1.91666
1.91774
1.91887
1.92005
1.92129
1.92259
1.92396
1.92539
1.9269
1.92849
1.93017
1.93195
1.93383
1.93583
1.93797
1.94027
1.94275
1.94544
1.94835
1.95152
1.95497
1.95872
1.9628
1.96762
1.97318
1.97903
1.98522
1.99177
1.99874
2.00616
2.01405
2.02246
2.03142
2.04098
2.0512
2.06212
2.07381
2.08633
2.09974
2.11409
2.1294
2.14569
2.16301
1.90848
1.9092
1.90996
1.91076
1.91161
1.91249
1.91343
1.91441
1.91543
1.91651
1.91764
1.91883
1.92008
1.92139
1.92276
1.92421
1.92574
1.92735
1.92906
1.93088
1.93281
1.93488
1.93711
1.93952
1.94212
1.94496
1.94804
1.9514
1.95505
1.95903
1.96372
1.96914
1.97486
1.98091
1.98734
1.99418
2.00148
2.00925
2.01755
2.02642
2.03591
2.04606
2.05696
2.06867
2.08127
2.09481
2.10936
2.12494
2.1416
2.15937
1.9065
1.90719
1.90791
1.90867
1.90947
1.91031
1.9112
1.91213
1.91311
1.91414
1.91522
1.91635
1.91754
1.91879
1.9201
1.92148
1.92294
1.92449
1.92613
1.92787
1.92974
1.93173
1.93388
1.93621
1.93874
1.94148
1.94447
1.94773
1.95127
1.95512
1.95968
1.96495
1.97052
1.97641
1.98269
1.98938
1.99653
2.00416
2.01232
2.02106
2.03043
2.0405
2.05134
2.06304
2.07567
2.0893
2.104
2.11981
2.13677
2.15495
1.90452
1.90517
1.90585
1.90657
1.90733
1.90812
1.90896
1.90984
1.91077
1.91174
1.91276
1.91384
1.91497
1.91615
1.9174
1.91872
1.92011
1.92159
1.92315
1.92482
1.92661
1.92852
1.93059
1.93284
1.93527
1.93792
1.94081
1.94395
1.94737
1.95109
1.9555
1.9606
1.96599
1.97172
1.97783
1.98434
1.99131
1.99877
2.00676
2.01534
2.02456
2.03451
2.04526
2.0569
2.06951
2.08319
2.09798
2.11395
2.13116
2.14968
1.90254
1.90315
1.90379
1.90447
1.90518
1.90593
1.90671
1.90754
1.90841
1.90933
1.91029
1.91131
1.91237
1.91349
1.91467
1.91592
1.91724
1.91864
1.92013
1.92172
1.92343
1.92526
1.92724
1.92939
1.93173
1.93428
1.93705
1.94007
1.94336
1.94694
1.95118
1.9561
1.9613
1.96684
1.97274
1.97906
1.98583
1.99308
2.00087
2.00925
2.01829
2.02807
2.03868
2.05022
2.06277
2.07643
2.09125
2.1073
2.12468
2.14349
1.90056
1.90113
1.90172
1.90235
1.90302
1.90372
1.90445
1.90523
1.90604
1.9069
1.9078
1.90875
1.90975
1.9108
1.91192
1.91309
1.91434
1.91566
1.91707
1.91858
1.9202
1.92194
1.92383
1.92589
1.92812
1.93055
1.9332
1.93609
1.93923
1.94266
1.94673
1.95144
1.95644
1.96176
1.96745
1.97354
1.98007
1.98709
1.99464
2.00278
2.0116
2.02118
2.03161
2.043
2.05543
2.06898
2.08375
2.09982
2.11728
2.13629
1.89858
1.8991
1.89965
1.90024
1.90085
1.9015
1.90218
1.9029
1.90366
1.90445
1.90529
1.90617
1.90711
1.90809
1.90913
1.91023
1.9114
1.91264
1.91397
1.91539
1.91692
1.91857
1.92037
1.92231
1.92444
1.92675
1.92927
1.93201
1.935
1.93827
1.94214
1.94663
1.9514
1.95649
1.96193
1.96777
1.97404
1.98079
1.98807
1.99595
2.00451
2.01384
2.02404
2.03521
2.04744
2.06082
2.07545
2.09144
2.1089
2.12803
1.89659
1.89708
1.89758
1.89811
1.89868
1.89927
1.8999
1.90056
1.90126
1.90199
1.90276
1.90358
1.90444
1.90535
1.90631
1.90734
1.90842
1.90958
1.91082
1.91216