/*--------------------------------*- C++ -*----------------------------------*\
  =========                 |
  \\      /  F ield         | OpenFOAM: The Open Source CFD Toolbox
   \\    /   O peration     | Website:  https://openfoam.org
    \\  /    A nd           | Version:  9
     \\/     M anipulation  |
\*---------------------------------------------------------------------------*/
FoamFile
{
    format      ascii;
    class       volVectorField;
    location    "0.11";
    object      U;
}
// * * * * * * * * * * * * * * * * * * * * * * * * * * * * * * * * * * * * * //

dimensions      [0 1 -1 0 0 0 0];

internalField   nonuniform List<vector> 
5000
(
(1.49342e-05 0 0.00296554)
(3.80053e-06 0 0.00643784)
(4.35563e-06 0 0.00987231)
(5.61415e-06 0 0.0131481)
(6.57497e-06 0 0.0162302)
(6.86543e-06 0 0.0190783)
(6.26332e-06 0 0.0216469)
(4.66129e-06 0 0.0238924)
(2.05162e-06 0 0.0257748)
(-1.48189e-06 0 0.0272586)
(-5.7772e-06 0 0.028311)
(-1.06058e-05 0 0.0288974)
(-1.56913e-05 0 0.0289764)
(-2.07088e-05 0 0.0284949)
(-2.52527e-05 0 0.0273841)
(-2.88016e-05 0 0.0255583)
(-3.06954e-05 0 0.022918)
(-3.01852e-05 0 0.0193649)
(-2.66482e-05 0 0.0148368)
(-2.00467e-05 0 0.0093714)
(-1.15341e-05 0 0.00319647)
(-3.58414e-06 0 -0.00319175)
(8.02627e-07 0 -0.00904999)
(1.08369e-07 0 -0.0136104)
(-3.65994e-06 0 -0.0164666)
(-6.26674e-06 0 -0.0179181)
(-4.28095e-06 0 -0.0189795)
(4.05715e-06 0 -0.020993)
(1.86829e-05 0 -0.0250869)
(3.77763e-05 0 -0.0317383)
(5.69068e-05 0 -0.0412541)
(6.70984e-05 0 -0.0519955)
(6.35685e-05 0 -0.0610034)
(5.43903e-05 0 -0.0674194)
(5.27625e-05 0 -0.0720645)
(6.57114e-05 0 -0.0766256)
(9.19263e-05 0 -0.0824931)
(0.000126468 0 -0.0902302)
(0.000164563 0 -0.0997183)
(0.000202509 0 -0.110512)
(0.000237171 0 -0.122077)
(0.000265489 0 -0.133858)
(0.000284977 0 -0.145264)
(0.000296168 0 -0.155656)
(0.000308035 0 -0.164423)
(0.000348268 0 -0.171209)
(0.000484612 0 -0.176386)
(0.000882027 0 -0.18204)
(0.00197651 0 -0.19455)
(0.00498724 0 -0.232379)
(-9.49371e-06 0 0.00308667)
(-3.17841e-05 0 0.0064651)
(-3.20114e-05 0 0.00987692)
(-2.99632e-05 0 0.0131492)
(-2.87123e-05 0 0.0162296)
(-2.8477e-05 0 0.0190761)
(-2.97748e-05 0 0.0216434)
(-3.29939e-05 0 0.0238875)
(-3.82987e-05 0 0.0257681)
(-4.56449e-05 0 0.0272497)
(-5.47673e-05 0 0.0282991)
(-6.51824e-05 0 0.0288816)
(-7.62168e-05 0 0.0289558)
(-8.70196e-05 0 0.0284684)
(-9.65328e-05 0 0.0273508)
(-0.000103461 0 0.025517)
(-0.000106291 0 0.0228675)
(-0.000103482 0 0.0193047)
(-9.39968e-05 0 0.0147677)
(-7.82649e-05 0 0.00929644)
(-5.92617e-05 0 0.00312134)
(-4.25814e-05 0 -0.00326019)
(-3.44222e-05 0 -0.00910789)
(-3.70176e-05 0 -0.0136602)
(-4.50756e-05 0 -0.0165171)
(-4.86305e-05 0 -0.0179795)
(-3.94889e-05 0 -0.0190578)
(-1.43993e-05 0 -0.0210891)
(2.54281e-05 0 -0.0251984)
(7.47458e-05 0 -0.031859)
(0.000123371 0 -0.041373)
(0.00015108 0 -0.0521052)
(0.000148053 0 -0.0611055)
(0.000134598 0 -0.0675271)
(0.000141001 0 -0.0721896)
(0.000182921 0 -0.0767712)
(0.000257331 0 -0.0826559)
(0.000353237 0 -0.0904055)
(0.000460059 0 -0.0999022)
(0.000569785 0 -0.110701)
(0.000676412 0 -0.122268)
(0.000775894 0 -0.134047)
(0.000869002 0 -0.145447)
(0.000969461 0 -0.155832)
(0.00112051 0 -0.164601)
(0.00142565 0 -0.171422)
(0.00210873 0 -0.176727)
(0.00364827 0 -0.182761)
(0.00706592 0 -0.196335)
(0.0144728 0 -0.236846)
(-8.68805e-05 0 0.00313559)
(-0.000102992 0 0.00647288)
(-0.000102949 0 0.00986739)
(-0.000100743 0 0.0131386)
(-9.9027e-05 0 0.0162232)
(-9.85533e-05 0 0.019076)
(-0.000100218 0 0.0216506)
(-0.000104505 0 0.0239019)
(-0.000111572 0 0.0257893)
(-0.000121349 0 0.0272766)
(-0.000133482 0 0.0283303)
(-0.00014732 0 0.0289153)
(-0.000161939 0 0.0289901)
(-0.000176154 0 0.0285013)
(-0.000188502 0 0.0273799)
(-0.000197228 0 0.02554)
(-0.000200348 0 0.0228823)
(-0.000195939 0 0.0193097)
(-0.00018283 0 0.0147631)
(-0.00016181 0 0.00928548)
(-0.000136964 0 0.00311084)
(-0.000115575 0 -0.00326198)
(-0.000105152 0 -0.00909646)
(-0.000107761 0 -0.0136388)
(-0.000116017 0 -0.0164961)
(-0.00011652 0 -0.0179694)
(-9.82972e-05 0 -0.0190632)
(-5.77758e-05 0 -0.0211082)
(2.40946e-06 0 -0.0252257)
(7.47702e-05 0 -0.0318855)
(0.000146605 0 -0.0413839)
(0.000190402 0 -0.0520903)
(0.000193432 0 -0.0610724)
(0.000185509 0 -0.0674989)
(0.000207854 0 -0.0721855)
(0.00028097 0 -0.076795)
(0.000400546 0 -0.0827007)
(0.000552173 0 -0.0904622)
(0.000722305 0 -0.0999633)
(0.000901191 0 -0.110761)
(0.00108271 0 -0.122324)
(0.00126546 0 -0.134099)
(0.0014584 0 -0.145502)
(0.00169421 0 -0.155917)
(0.00205474 0 -0.164783)
(0.00271556 0 -0.171843)
(0.00402351 0 -0.177678)
(0.00664875 0 -0.18485)
(0.0118484 0 -0.200833)
(0.0217835 0 -0.245818)
(-0.0001865 0 0.00316668)
(-0.000198616 0 0.0064921)
(-0.000202503 0 0.00987199)
(-0.000202903 0 0.0131376)
(-0.000202358 0 0.0162241)
(-0.000202719 0 0.019083)
(-0.000205382 0 0.0216652)
(-0.000210954 0 0.0239244)
(-0.000219633 0 0.0258193)
(-0.000231347 0 0.0273129)
(-0.000245693 0 0.0283712)
(-0.000261924 0 0.0289588)
(-0.00027897 0 0.0290336)
(-0.000295447 0 0.0285423)
(-0.000309638 0 0.0274156)
(-0.000319493 0 0.0255673)
(-0.00032271 0 0.0228986)
(-0.000317079 0 0.0193133)
(-0.000301268 0 0.0147546)
(-0.000276166 0 0.00926929)
(-0.000246384 0 0.00309533)
(-0.000220185 0 -0.00326669)
(-0.000205961 0 -0.00908462)
(-0.000205993 0 -0.013614)
(-0.000212019 0 -0.0164706)
(-0.000208643 0 -0.0179563)
(-0.000182879 0 -0.0190687)
(-0.000130291 0 -0.0211311)
(-5.40748e-05 0 -0.0252594)
(3.70776e-05 0 -0.031918)
(0.000129709 0 -0.0413968)
(0.000190799 0 -0.0520708)
(0.000204844 0 -0.06103)
(0.000208278 0 -0.0674622)
(0.000249769 0 -0.0721787)
(0.000353639 0 -0.0768247)
(0.000515494 0 -0.0827597)
(0.000719216 0 -0.0905398)
(0.000949749 0 -0.10005)
(0.00119692 0 -0.110852)
(0.00145595 0 -0.122415)
(0.00172975 0 -0.134195)
(0.00203679 0 -0.145623)
(0.0024281 0 -0.156111)
(0.00301777 0 -0.165156)
(0.00403257 0 -0.172605)
(0.00588918 0 -0.179227)
(0.00933475 0 -0.187925)
(0.0156745 0 -0.206756)
(0.0268896 0 -0.256147)
(-0.000320808 0 0.00319013)
(-0.000330352 0 0.00651687)
(-0.000337559 0 0.00988505)
(-0.000340771 0 0.0131416)
(-0.000342153 0 0.0162265)
(-0.000344047 0 0.0190891)
(-0.00034808 0 0.0216772)
(-0.000354985 0 0.0239431)
(-0.000365047 0 0.0258442)
(-0.000378231 0 0.0273431)
(-0.000394135 0 0.028405)
(-0.000411975 0 0.0289939)
(-0.000430596 0 0.0290676)
(-0.00044848 0 0.0285723)
(-0.000463733 0 0.0274385)
(-0.00047409 0 0.0255802)
(-0.000477016 0 0.0228985)
(-0.000470091 0 0.0192988)
(-0.00045186 0 0.0147266)
(-0.000423246 0 0.00923275)
(-0.000389101 0 0.00305952)
(-0.000358181 0 -0.00329113)
(-0.000339406 0 -0.00909197)
(-0.000335368 0 -0.0136087)
(-0.000337633 0 -0.0164664)
(-0.000329879 0 -0.0179681)
(-0.000297739 0 -0.019104)
(-0.000235591 0 -0.0211887)
(-0.000146437 0 -0.0253316)
(-3.96707e-05 0 -0.031991)
(7.13644e-05 0 -0.0414508)
(0.000150247 0 -0.0520924)
(0.000179228 0 -0.0610305)
(0.000198493 0 -0.0674725)
(0.000261251 0 -0.0722253)
(0.000395039 0 -0.0769151)
(0.000596479 0 -0.0828869)
(0.000849056 0 -0.0906927)
(0.00113717 0 -0.10022)
(0.00145097 0 -0.111033)
(0.00178773 0 -0.122609)
(0.00215507 0 -0.13441)
(0.00258039 0 -0.145886)
(0.00312974 0 -0.156485)
(0.00394009 0 -0.165768)
(0.00526871 0 -0.173691)
(0.00756315 0 -0.1812)
(0.0115834 0 -0.191494)
(0.0185937 0 -0.21304)
(0.0302667 0 -0.266041)
(-0.000499126 0 0.00320873)
(-0.000505734 0 0.00654077)
(-0.000513425 0 0.00990201)
(-0.000517714 0 0.0131502)
(-0.000520303 0 0.0162323)
(-0.000523339 0 0.0190973)
(-0.000528382 0 0.0216906)
(-0.000536231 0 0.0239625)
(-0.000547226 0 0.0258693)
(-0.000561349 0 0.0273728)
(-0.000578201 0 0.0284377)
(-0.000596974 0 0.0290273)
(-0.000616459 0 0.0290991)
(-0.000635045 0 0.0285988)
(-0.000650711 0 0.0274569)
(-0.000661044 0 0.0255872)
(-0.000663361 0 0.0228913)
(-0.00065513 0 0.0192758)
(-0.000634866 0 0.014689)
(-0.000603557 0 0.00918572)
(-0.000566165 0 0.00301271)
(-0.000531553 0 -0.0033269)
(-0.000508696 0 -0.00911093)
(-0.000500209 0 -0.0136155)
(-0.000497708 0 -0.0164752)
(-0.000484669 0 -0.0179945)
(-0.000446053 0 -0.0191565)
(-0.000375369 0 -0.0212666)
(-0.000275272 0 -0.0254266)
(-0.000155608 0 -0.0320887)
(-2.89902e-05 0 -0.0415305)
(6.68255e-05 0 -0.0521404)
(0.000112868 0 -0.061059)
(0.000151122 0 -0.0675138)
(0.000236984 0 -0.0723074)
(0.000400235 0 -0.0770465)
(0.0006389 0 -0.0830611)
(0.000936928 0 -0.0908989)
(0.00127893 0 -0.10045)
(0.00165595 0 -0.111283)
(0.00206747 0 -0.12288)
(0.00252557 0 -0.134717)
(0.00306505 0 -0.146264)
(0.00376304 0 -0.157006)
(0.0047709 0 -0.16657)
(0.0063608 0 -0.175015)
(0.00898619 0 -0.183451)
(0.0133803 0 -0.195322)
(0.0206995 0 -0.219369)
(0.0322171 0 -0.275225)
(-0.000718639 0 0.00322177)
(-0.000722433 0 0.00655933)
(-0.000728935 0 0.00991754)
(-0.000732856 0 0.0131604)
(-0.000735689 0 0.0162406)
(-0.000739139 0 0.0191084)
(-0.000744599 0 0.0217069)
(-0.000752888 0 0.0239848)
(-0.000764363 0 0.0258975)
(-0.000778997 0 0.0274058)
(-0.00079637 0 0.0284736)
(-0.000815643 0 0.0290639)
(-0.000835554 0 0.0291336)
(-0.00085442 0 0.028628)
(-0.000870137 0 0.0274774)
(-0.000880198 0 0.0255956)
(-0.000881845 0 0.0228847)
(-0.000872508 0 0.0192526)
(-0.000850728 0 0.0146504)
(-0.000817567 0 0.00913716)
(-0.000778018 0 0.00296379)
(-0.000740809 0 -0.00336542)
(-0.000714611 0 -0.00913335)
(-0.000701795 0 -0.0136262)
(-0.000694034 0 -0.0164883)
(-0.000674983 0 -0.0180254)
(-0.000629498 0 -0.0192142)
(-0.000550699 0 -0.0213506)
(-0.000441029 0 -0.025529)
(-0.000310596 0 -0.0321944)
(-0.000170852 0 -0.0416191)
(-5.94428e-05 0 -0.0521981)
(4.25076e-06 0 -0.0610983)
(6.29755e-05 0 -0.0675676)
(0.000172854 0 -0.0724049)
(0.00036492 0 -0.0771973)
(0.000638474 0 -0.0832594)
(0.000978325 0 -0.0911344)
(0.00136979 0 -0.100714)
(0.00180506 0 -0.111574)
(0.00228575 0 -0.123203)
(0.00282754 0 -0.135089)
(0.00347065 0 -0.146723)
(0.00429931 0 -0.157633)
(0.00547193 0 -0.167508)
(0.007263 0 -0.176507)
(0.0101131 0 -0.185886)
(0.0147024 0 -0.199293)
(0.0220389 0 -0.225618)
(0.0329837 0 -0.283626)
(-0.000973547 0 0.00323061)
(-0.000975465 0 0.00657237)
(-0.000980762 0 0.00992957)
(-0.000984034 0 0.0131696)
(-0.000986748 0 0.0162494)
(-0.000990255 0 0.0191202)
(-0.000995795 0 0.0217243)
(-0.0010042 0 0.0240085)
(-0.00101586 0 0.0259273)
(-0.00103073 0 0.0274406)
(-0.00104838 0 0.0285116)
(-0.00106792 0 0.0291027)
(-0.00108805 0 0.0291701)
(-0.00110702 0 0.0286591)
(-0.00112266 0 0.0274996)
(-0.00113242 0 0.0256053)
(-0.00113348 0 0.022879)
(-0.00112327 0 0.01923)
(-0.00110038 0 0.0146121)
(-0.00106591 0 0.00908867)
(-0.00102482 0 0.00291459)
(-0.000985612 0 -0.00340488)
(-0.00095653 0 -0.00915767)
(-0.000939611 0 -0.0136398)
(-0.000926576 0 -0.0165046)
(-0.0009014 0 -0.0180598)
(-0.00084911 0 -0.0192753)
(-0.000762729 0 -0.0214383)
(-0.000644601 0 -0.0256352)
(-0.00050493 0 -0.0323043)
(-0.000353777 0 -0.0417124)
(-0.000227988 0 -0.0522616)
(-0.000146962 0 -0.0611451)
(-6.77169e-05 0 -0.0676308)
(6.58468e-05 0 -0.0725138)
(0.000285367 0 -0.0773625)
(0.000591129 0 -0.083476)
(0.000968899 0 -0.0913924)
(0.00140488 0 -0.101007)
(0.00189237 0 -0.111899)
(0.00243472 0 -0.123567)
(0.00305008 0 -0.135512)
(0.00378191 0 -0.147248)
(0.00471768 0 -0.158343)
(0.00601656 0 -0.168547)
(0.0079456 0 -0.178111)
(0.0109194 0 -0.188419)
(0.0155512 0 -0.203281)
(0.0226922 0 -0.231616)
(0.0328333 0 -0.291095)
(-0.00126137 0 0.00323724)
(-0.00126234 0 0.00658218)
(-0.00126712 0 0.00993916)
(-0.00127012 0 0.0131777)
(-0.00127287 0 0.0162579)
(-0.00127649 0 0.0191319)
(-0.00128211 0 0.0217415)
(-0.00129057 0 0.0240321)
(-0.0013023 0 0.0259571)
(-0.00131729 0 0.0274755)
(-0.00133507 0 0.0285497)
(-0.00135476 0 0.0291415)
(-0.00137499 0 0.0292066)
(-0.00139398 0 0.02869)
(-0.00140952 0 0.0275213)
(-0.00141898 0 0.0256143)
(-0.00141953 0 0.0228724)
(-0.0014086 0 0.0192062)
(-0.00138478 0 0.0145726)
(-0.00134922 0 0.0090389)
(-0.00130682 0 0.00286385)
(-0.0012658 0 -0.00344654)
(-0.00123406 0 -0.00918522)
(-0.00121332 0 -0.0136577)
(-0.00119537 0 -0.0165261)
(-0.00116448 0 -0.0180997)
(-0.00110593 0 -0.0193423)
(-0.00101272 0 -0.021532)
(-0.0008871 0 -0.0257476)
(-0.000739291 0 -0.0324204)
(-0.000577929 0 -0.0418128)
(-0.000438858 0 -0.0523339)
(-0.000341384 0 -0.0612029)
(-0.000242454 0 -0.0677069)
(-8.65299e-05 0 -0.0726376)
(0.000158327 0 -0.0775451)
(0.000493217 0 -0.0837129)
(0.000904662 0 -0.0916746)
(0.00137975 0 -0.101327)
(0.00191266 0 -0.112257)
(0.00250785 0 -0.123971)
(0.0031848 0 -0.135982)
(0.0039881 0 -0.147831)
(0.00500515 0 -0.159119)
(0.0063909 0 -0.169657)
(0.00839838 0 -0.179777)
(0.0114093 0 -0.190972)
(0.0159676 0 -0.20717)
(0.0227741 0 -0.237216)
(0.0320046 0 -0.297562)
(-0.00158232 0 0.00324318)
(-0.00158293 0 0.00659102)
(-0.0015878 0 0.0099482)
(-0.00159099 0 0.013186)
(-0.0015941 0 0.0162668)
(-0.00159809 0 0.0191439)
(-0.00160397 0 0.0217587)
(-0.0016126 0 0.0240557)
(-0.00162447 0 0.0259869)
(-0.00163957 0 0.0275103)
(-0.00165747 0 0.0285877)
(-0.00167725 0 0.02918)
(-0.00169754 0 0.0292427)
(-0.00171651 0 0.0287202)
(-0.00173191 0 0.0275421)
(-0.00174108 0 0.0256222)
(-0.00174116 0 0.0228643)
(-0.00172955 0 0.0191808)
(-0.00170486 0 0.0145313)
(-0.00166825 0 0.00898704)
(-0.00162454 0 0.00281067)
(-0.00158175 0 -0.00349133)
(-0.00154747 0 -0.00921686)
(-0.00152325 0 -0.0136808)
(-0.00150091 0 -0.0165536)
(-0.00146502 0 -0.018146)
(-0.00140103 0 -0.0194159)
(-0.00130187 0 -0.0216326)
(-0.0011697 0 -0.0258671)
(-0.00101467 0 -0.0325443)
(-0.000844085 0 -0.041922)
(-0.000692803 0 -0.0524168)
(-0.00058007 0 -0.0612734)
(-0.000462915 0 -0.0677978)
(-0.000286516 0 -0.0727781)
(-1.89566e-05 0 -0.0777461)
(0.000341504 0 -0.0839708)
(0.000782068 0 -0.0919808)
(0.00129047 0 -0.101676)
(0.00186144 0 -0.112647)
(0.00249994 0 -0.124411)
(0.00322564 0 -0.136494)
(0.00408252 0 -0.148459)
(0.00515538 0 -0.159943)
(0.00659172 0 -0.170809)
(0.00862672 0 -0.181461)
(0.011607 0 -0.193482)
(0.0160093 0 -0.210883)
(0.0223959 0 -0.242352)
(0.0306784 0 -0.303071)
(-0.00193713 0 0.00324928)
(-0.00193774 0 0.00660024)
(-0.00194312 0 0.0099581)
(-0.00194687 0 0.0131956)
(-0.00195067 0 0.0162771)
(-0.00195532 0 0.0191571)
(-0.00196172 0 0.0217768)
(-0.00197075 0 0.0240798)
(-0.00198289 0 0.026017)
(-0.0019982 0 0.0275454)
(-0.00201626 0 0.0286258)
(-0.00203616 0 0.0292187)
(-0.00205651 0 0.0292788)
(-0.00207547 0 0.0287503)
(-0.00209074 0 0.0275625)
(-0.00209962 0 0.0256293)
(-0.00209923 0 0.0228552)
(-0.00208695 0 0.0191541)
(-0.0020614 0 0.0144883)
(-0.00202372 0 0.00893338)
(-0.00197866 0 0.00275526)
(-0.00193409 0 -0.00353896)
(-0.00189738 0 -0.00925213)
(-0.00187 0 -0.0137082)
(-0.00184387 0 -0.0165859)
(-0.00180379 0 -0.0181974)
(-0.0017353 0 -0.0194949)
(-0.0016312 0 -0.021739)
(-0.00149345 0 -0.0259929)
(-0.00133208 0 -0.0326749)
(-0.00115324 0 -0.0420391)
(-0.00099084 0 -0.0525094)
(-0.000864195 0 -0.0613556)
(-0.000730624 0 -0.0679018)
(-0.000536049 0 -0.072933)
(-0.000248792 0 -0.0779631)
(0.000133363 0 -0.0842466)
(0.000598242 0 -0.092307)
(0.00113392 0 -0.102047)
(0.00173536 0 -0.113063)
(0.00240741 0 -0.124879)
(0.00316902 0 -0.137037)
(0.00406224 0 -0.149118)
(0.00516752 0 -0.160795)
(0.00662295 0 -0.171975)
(0.00864425 0 -0.183127)
(0.0115429 0 -0.195908)
(0.0157329 0 -0.214377)
(0.0216515 0 -0.24701)
(0.028993 0 -0.307708)
(-0.00232617 0 0.00325609)
(-0.00232706 0 0.00661076)
(-0.00233328 0 0.00996986)
(-0.00233795 0 0.0132075)
(-0.00234279 0 0.0162897)
(-0.00234844 0 0.0191723)
(-0.00235568 0 0.0217964)
(-0.00236533 0 0.024105)
(-0.00237795 0 0.0260478)
(-0.00239361 0 0.027581)
(-0.00241193 0 0.0286644)
(-0.00243201 0 0.0292576)
(-0.00245247 0 0.029315)
(-0.00247144 0 0.0287803)
(-0.00248659 0 0.0275826)
(-0.0024952 0 0.025636)
(-0.00249434 0 0.0228454)
(-0.00248139 0 0.0191263)
(-0.00245495 0 0.0144442)
(-0.00241616 0 0.00887822)
(-0.00236972 0 0.00269799)
(-0.00232334 0 -0.00358899)
(-0.00228433 0 -0.00929038)
(-0.00225412 0 -0.0137391)
(-0.00222481 0 -0.0166219)
(-0.00218139 0 -0.0182527)
(-0.00210941 0 -0.0195778)
(-0.00200142 0 -0.0218495)
(-0.0018591 0 -0.0261232)
(-0.00169233 0 -0.0328108)
(-0.00150621 0 -0.0421624)
(-0.00133383 0 -0.0526099)
(-0.00119472 0 -0.0614472)
(-0.00104673 0 -0.0680166)
(-0.000836589 0 -0.0730995)
(-0.000532877 0 -0.0781928)
(-0.000133024 0 -0.0845362)
(0.000351258 0 -0.0926486)
(0.000908191 0 -0.102434)
(0.00153259 0 -0.113497)
(0.00222874 0 -0.125367)
(0.00301408 0 -0.137599)
(0.00392783 0 -0.149794)
(0.00504504 0 -0.161655)
(0.00649338 0 -0.173131)
(0.0084688 0 -0.184746)
(0.0112491 0 -0.198219)
(0.0151913 0 -0.21763)
(0.0206226 0 -0.251195)
(0.0270626 0 -0.311558)
(-0.00274967 0 0.00326412)
(-0.00275108 0 0.00662348)
(-0.00275849 0 0.00998452)
(-0.00276444 0 0.0132227)
(-0.00277067 0 0.0163056)
(-0.00277766 0 0.0191902)
(-0.00278605 0 0.0218181)
(-0.0027966 0 0.0241317)
(-0.00280989 0 0.0260798)
(-0.00282607 0 0.0276174)
(-0.00284476 0 0.0287035)
(-0.00286511 0 0.0292969)
(-0.00288574 0 0.0293514)
(-0.00290476 0 0.0288103)
(-0.00291982 0 0.0276025)
(-0.00292818 0 0.0256421)
(-0.00292686 0 0.0228348)
(-0.00291322 0 0.0190976)
(-0.00288586 0 0.0143988)
(-0.00284591 0 0.00882149)
(-0.00279803 0 0.00263881)
(-0.00274987 0 -0.00364134)
(-0.00270868 0 -0.00933131)
(-0.002676 0 -0.0137729)
(-0.00264411 0 -0.0166608)
(-0.0025982 0 -0.0183107)
(-0.00252374 0 -0.0196636)
(-0.00241294 0 -0.0219631)
(-0.00226707 0 -0.0262571)
(-0.00209585 0 -0.032951)
(-0.00190345 0 -0.0422912)
(-0.00172228 0 -0.0527171)
(-0.00157227 0 -0.061547)
(-0.00141194 0 -0.0681403)
(-0.00118897 0 -0.0732754)
(-0.000872125 0 -0.0784323)
(-0.000458548 0 -0.0848364)
(4.03406e-05 0 -0.0930017)
(0.00061273 0 -0.102835)
(0.00125302 0 -0.113943)
(0.00196449 0 -0.125867)
(0.00276257 0 -0.138171)
(0.00368302 0 -0.150475)
(0.00479501 0 -0.162509)
(0.0062155 0 -0.174261)
(0.0081214 0 -0.186301)
(0.0107595 0 -0.200398)
(0.014436 0 -0.220632)
(0.0193835 0 -0.254923)
(0.0249833 0 -0.314704)
(-0.00320813 0 0.00327385)
(-0.00321022 0 0.00663922)
(-0.00321906 0 0.0100031)
(-0.00322659 0 0.0132421)
(-0.00323451 0 0.0163256)
(-0.00324312 0 0.0192117)
(-0.0032529 0 0.0218427)
(-0.00326458 0 0.0241606)
(-0.00327874 0 0.0261133)
(-0.00329557 0 0.0276549)
(-0.00331477 0 0.0287433)
(-0.00333548 0 0.0293367)
(-0.00335635 0 0.029388)
(-0.00337548 0 0.0288403)
(-0.0033905 0 0.0276222)
(-0.00339863 0 0.0256477)
(-0.00339686 0 0.0228233)
(-0.00338253 0 0.0190676)
(-0.00335422 0 0.0143519)
(-0.00331307 0 0.008763)
(-0.00326374 0 0.00257758)
(-0.00321384 0 -0.00369601)
(-0.00317065 0 -0.00937477)
(-0.00313586 0 -0.0138092)
(-0.003102 0 -0.0167019)
(-0.00305441 0 -0.0183706)
(-0.00297842 0 -0.0197513)
(-0.00286581 0 -0.0220791)
(-0.00271738 0 -0.026394)
(-0.00254263 0 -0.0330949)
(-0.002345 0 -0.0424247)
(-0.00215632 0 -0.0528305)
(-0.00199702 0 -0.0616538)
(-0.0018265 0 -0.0682714)
(-0.00159335 0 -0.0734588)
(-0.00126659 0 -0.0786794)
(-0.000843082 0 -0.0851446)
(-0.000334078 0 -0.0933631)
(0.000248424 0 -0.103243)
(0.000898219 0 -0.114397)
(0.00161724 0 -0.126373)
(0.00241859 0 -0.138746)
(0.00333429 0 -0.151152)
(0.00442748 0 -0.163346)
(0.00580481 0 -0.175351)
(0.0076256 0 -0.187778)
(0.0101088 0 -0.202435)
(0.0135165 0 -0.223383)
(0.0179999 0 -0.258222)
(0.022833 0 -0.317231)
(-0.00370231 0 0.00328549)
(-0.00370511 0 0.0066584)
(-0.00371545 0 0.0100262)
(-0.00372463 0 0.0132665)
(-0.00373434 0 0.0163503)
(-0.00374468 0 0.0192374)
(-0.00375598 0 0.0218706)
(-0.00376892 0 0.0241919)
(-0.00378408 0 0.0261487)
(-0.0038017 0 0.0276938)
(-0.0038215 0 0.0287842)
(-0.00384268 0 0.0293771)
(-0.00386387 0 0.029425)
(-0.00388319 0 0.0288704)
(-0.00389823 0 0.0276416)
(-0.00390618 0 0.0256527)
(-0.00390401 0 0.0228109)
(-0.00388902 0 0.0190365)
(-0.0038598 0 0.0143035)
(-0.0038175 0 0.00870274)
(-0.00376678 0 0.00251435)
(-0.00371529 0 -0.00375288)
(-0.00367036 0 -0.00942044)
(-0.00363385 0 -0.0138474)
(-0.00359854 0 -0.0167447)
(-0.00354995 0 -0.0184319)
(-0.00347322 0 -0.0198402)
(-0.00335966 0 -0.0221967)
(-0.00320958 0 -0.0265332)
(-0.00303225 0 -0.0332419)
(-0.00283051 0 -0.0425623)
(-0.00263568 0 -0.0529489)
(-0.00246878 0 -0.0617665)
(-0.00229011 0 -0.0684087)
(-0.00204927 0 -0.073648)
(-0.00171552 0 -0.0789322)
(-0.00128551 0 -0.0854583)
(-0.000770422 0 -0.0937299)
(-0.000182534 0 -0.103656)
(0.00047121 0 -0.114855)
(0.00119124 0 -0.12688)
(0.00198815 0 -0.139317)
(0.00289016 0 -0.151817)
(0.00395464 0 -0.164158)
(0.0052787 0 -0.176394)
(0.00700598 0 -0.189172)
(0.00933118 0 -0.20433)
(0.0124778 0 -0.225894)
(0.0165275 0 -0.261126)
(0.0206723 0 -0.31922)
(-0.00423267 0 0.00329896)
(-0.00423609 0 0.00668091)
(-0.00424782 0 0.0100536)
(-0.0042585 0 0.0132956)
(-0.00426986 0 0.0163798)
(-0.00428185 0 0.0192672)
(-0.00429466 0 0.021902)
(-0.00430889 0 0.0242261)
(-0.00432511 0 0.0261862)
(-0.00434359 0 0.0277342)
(-0.00436411 0 0.0288262)
(-0.00438585 0 0.0294184)
(-0.00440747 0 0.0294626)
(-0.00442707 0 0.0289008)
(-0.00444222 0 0.027661)
(-0.00445009 0 0.0256574)
(-0.00444761 0 0.0227979)
(-0.00443207 0 0.0190043)
(-0.00440206 0 0.0142537)
(-0.00435876 0 0.00864088)
(-0.00430688 0 0.00244934)
(-0.00425407 0 -0.0038116)
(-0.00420773 0 -0.00946792)
(-0.0041699 0 -0.0138872)
(-0.00413359 0 -0.0167884)
(-0.0040845 0 -0.0184936)
(-0.00400762 0 -0.0199295)
(-0.00389381 0 -0.022315)
(-0.00374291 0 -0.0266737)
(-0.00356394 0 -0.033391)
(-0.00335926 0 -0.0427031)
(-0.00315975 0 -0.0530715)
(-0.00298691 0 -0.0618839)
(-0.00280202 0 -0.0685505)
(-0.00255567 0 -0.0738413)
(-0.00221746 0 -0.0791885)
(-0.00178393 0 -0.0857752)
(-0.00126624 0 -0.0940991)
(-0.000676982 0 -0.104071)
(-2.39044e-05 0 -0.115313)
(0.000691882 0 -0.127385)
(0.00147847 0 -0.13988)
(0.0023604 0 -0.152466)
(0.00338969 0 -0.164941)
(0.00465501 0 -0.177386)
(0.00628638 0 -0.190481)
(0.00845754 0 -0.206087)
(0.0113585 0 -0.228181)
(0.0150103 0 -0.263675)
(0.0185445 0 -0.320747)
(-0.0047989 0 0.00331395)
(-0.00480281 0 0.00670619)
(-0.00481568 0 0.0100847)
(-0.00482761 0 0.013329)
(-0.00484038 0 0.0164134)
(-0.00485383 0 0.019301)
(-0.00486803 0 0.0219367)
(-0.0048835 0 0.0242629)
(-0.00490081 0 0.0262258)
(-0.00492022 0 0.0277764)
(-0.00494152 0 0.0288696)
(-0.00496393 0 0.0294608)
(-0.00498609 0 0.029501)
(-0.00500608 0 0.0289316)
(-0.00502148 0 0.0276805)
(-0.0050294 0 0.0256619)
(-0.00502676 0 0.0227842)
(-0.00501085 0 0.0189712)
(-0.00498027 0 0.0142028)
(-0.00493624 0 0.00857774)
(-0.00488351 0 0.00238294)
(-0.00482975 0 -0.00387177)
(-0.00478241 0 -0.00951675)
(-0.00474365 0 -0.0139281)
(-0.00470672 0 -0.0168327)
(-0.00465751 0 -0.0185555)
(-0.0045809 0 -0.0200187)
(-0.0044674 0 -0.0224334)
(-0.00431639 0 -0.0268149)
(-0.0041367 0 -0.0335415)
(-0.00393029 0 -0.042846)
(-0.00372758 0 -0.0531971)
(-0.00355043 0 -0.0620048)
(-0.00336108 0 -0.0686955)
(-0.00311113 0 -0.0740372)
(-0.00277062 0 -0.0794466)
(-0.00233603 0 -0.0860931)
(-0.00181861 0 -0.0944687)
(-0.00123127 0 -0.104485)
(-0.000582511 0 -0.115767)
(0.000125084 0 -0.127882)
(0.000897223 0 -0.140432)
(0.00175502 0 -0.153095)
(0.00274568 0 -0.165691)
(0.00395056 0 -0.178325)
(0.00548817 0 -0.191707)
(0.00751421 0 -0.207715)
(0.0101891 0 -0.230262)
(0.0134804 0 -0.265907)
(0.0164774 0 -0.321878)
(-0.00539991 0 0.00333018)
(-0.00540421 0 0.00673367)
(-0.005418 0 0.0101187)
(-0.00543095 0 0.0133656)
(-0.0054449 0 0.0164506)
(-0.00545963 0 0.0193382)
(-0.00547512 0 0.0219745)
(-0.00549181 0 0.0243024)
(-0.00551022 0 0.0262678)
(-0.00553062 0 0.0278205)
(-0.0055528 0 0.0289146)
(-0.00557597 0 0.0295044)
(-0.00559878 0 0.0295403)
(-0.00561931 0 0.0289631)
(-0.00563509 0 0.0277004)
(-0.00564322 0 0.0256664)
(-0.00564061 0 0.0227703)
(-0.00562455 0 0.0189376)
(-0.00559366 0 0.0141512)
(-0.00554921 0 0.00851375)
(-0.00549599 0 0.00231562)
(-0.00544168 0 -0.00393288)
(-0.00539375 0 -0.00956647)
(-0.00535446 0 -0.0139696)
(-0.00531727 0 -0.0168773)
(-0.00526826 0 -0.018617)
(-0.0051923 0 -0.0201074)
(-0.00507958 0 -0.0225515)
(-0.00492913 0 -0.0269561)
(-0.00474957 0 -0.0336926)
(-0.00454257 0 -0.0429901)
(-0.00433807 0 -0.0533248)
(-0.00415816 0 -0.0621281)
(-0.00396595 0 -0.0688427)
(-0.00371409 0 -0.0742344)
(-0.00337307 0 -0.0797052)
(-0.00293949 0 -0.0864106)
(-0.00242464 0 -0.0948367)
(-0.00184177 0 -0.104896)
(-0.00120005 0 -0.116217)
(-0.000503396 0 -0.128371)
(0.000251732 0 -0.140969)
(0.00108339 0 -0.153703)
(0.00203447 0 -0.166407)
(0.00318012 0 -0.179212)
(0.00462923 0 -0.192855)
(0.00652197 0 -0.209224)
(0.00899215 0 -0.232158)
(0.0119601 0 -0.267857)
(0.0144866 0 -0.322671)
(-0.00603429 0 0.00334748)
(-0.00603895 0 0.00676301)
(-0.00605357 0 0.0101551)
(-0.00606742 0 0.0134052)
(-0.00608247 0 0.0164909)
(-0.00609841 0 0.0193785)
(-0.00611517 0 0.0220154)
(-0.00613311 0 0.0243447)
(-0.00615269 0 0.0263121)
(-0.00617416 0 0.0278667)
(-0.0061973 0 0.0289613)
(-0.00622134 0 0.0295495)
(-0.00624492 0 0.0295809)
(-0.00626611 0 0.0289956)
(-0.00628242 0 0.0277209)
(-0.00629093 0 0.0256712)
(-0.00628854 0 0.0227565)
(-0.00627253 0 0.0189038)
(-0.00624158 0 0.0140992)
(-0.006197 0 0.00844935)
(-0.0061436 0 0.00224786)
(-0.00608909 0 -0.00399446)
(-0.00604095 0 -0.00961661)
(-0.0060015 0 -0.0140113)
(-0.00596444 0 -0.0169216)
(-0.00591602 0 -0.018678)
(-0.00584111 0 -0.0201952)
(-0.00572967 0 -0.0226686)
(-0.00558042 0 -0.0270967)
(-0.00540176 0 -0.0338434)
(-0.0051952 0 -0.0431347)
(-0.00499017 0 -0.0534535)
(-0.00480889 0 -0.0622528)
(-0.00461531 0 -0.0689909)
(-0.00436306 0 -0.0744318)
(-0.00402312 0 -0.0799631)
(-0.00359221 0 -0.0867264)
(-0.00308174 0 -0.0952018)
(-0.00250523 0 -0.105302)
(-0.00187246 0 -0.116659)
(-0.00118845 0 -0.128849)
(-0.000451548 0 -0.141491)
(0.000353609 0 -0.154288)
(0.00126612 0 -0.16709)
(0.0023558 0 -0.180052)
(0.00372361 0 -0.193932)
(0.00549626 0 -0.210627)
(0.00778329 0 -0.233889)
(0.0104631 0 -0.269561)
(0.0125796 0 -0.323179)
(-0.00670093 0 0.00336583)
(-0.00670599 0 0.00679417)
(-0.00672146 0 0.0101939)
(-0.00673628 0 0.0134475)
(-0.00675246 0 0.0165343)
(-0.00676969 0 0.0194221)
(-0.00678779 0 0.0220594)
(-0.00680706 0 0.02439)
(-0.0068279 0 0.0263591)
(-0.00685054 0 0.0279152)
(-0.00687475 0 0.0290101)
(-0.00689977 0 0.0295964)
(-0.00692423 0 0.0296229)
(-0.0069462 0 0.0290292)
(-0.00696317 0 0.0277423)
(-0.0069722 0 0.0256767)
(-0.00697017 0 0.0227429)
(-0.00695439 0 0.0188701)
(-0.00692356 0 0.0140472)
(-0.00687904 0 0.00838488)
(-0.0068257 0 0.00218002)
(-0.00677126 0 -0.0040561)
(-0.00672321 0 -0.00966675)
(-0.006684 0 -0.0140528)
(-0.00664748 0 -0.0169654)
(-0.00660013 0 -0.0187379)
(-0.00652679 0 -0.0202816)
(-0.00641719 0 -0.0227844)
(-0.00626976 0 -0.027236)
(-0.0060927 0 -0.0339934)
(-0.00588745 0 -0.0432789)
(-0.00568299 0 -0.0535824)
(-0.00550161 0 -0.0623779)
(-0.00530803 0 -0.0691392)
(-0.00505678 0 -0.0746284)
(-0.00471934 0 -0.0802191)
(-0.00429251 0 -0.0870393)
(-0.00378779 0 -0.0955629)
(-0.00321899 0 -0.105702)
(-0.00259637 0 -0.117093)
(-0.00192584 0 -0.129317)
(-0.00120735 0 -0.141999)
(-0.000427692 0 -0.154852)
(0.00044869 0 -0.167743)
(0.00148701 0 -0.180848)
(0.00278182 0 -0.194945)
(0.00444802 0 -0.211933)
(0.00657286 0 -0.235472)
(0.00899802 0 -0.27105)
(0.0107597 0 -0.323452)
(-0.00739943 0 0.00338535)
(-0.00740495 0 0.00682737)
(-0.00742137 0 0.0102354)
(-0.00743725 0 0.013493)
(-0.00745469 0 0.0165811)
(-0.00747331 0 0.0194692)
(-0.00749287 0 0.0221068)
(-0.00751359 0 0.0244384)
(-0.00753582 0 0.0264089)
(-0.00755973 0 0.0279661)
(-0.00758511 0 0.029061)
(-0.0076112 0 0.0296451)
(-0.00763664 0 0.0296665)
(-0.00765948 0 0.0290642)
(-0.0076772 0 0.0277648)
(-0.00768686 0 0.0256829)
(-0.00768531 0 0.0227299)
(-0.00766987 0 0.0188367)
(-0.00763928 0 0.0139955)
(-0.00759495 0 0.00832057)
(-0.00754181 0 0.00211236)
(-0.00748763 0 -0.00411749)
(-0.00743995 0 -0.0097165)
(-0.00740133 0 -0.0140937)
(-0.00736584 0 -0.017008)
(-0.0073201 0 -0.0187962)
(-0.00724894 0 -0.0203662)
(-0.00714183 0 -0.0228982)
(-0.00699684 0 -0.0273736)
(-0.00682204 0 -0.034142)
(-0.00661886 0 -0.0434222)
(-0.00641593 0 -0.0537109)
(-0.00623555 0 -0.0625028)
(-0.00604323 0 -0.0692867)
(-0.00579431 0 -0.0748234)
(-0.00546063 0 -0.0804724)
(-0.00503903 0 -0.0873485)
(-0.00454112 0 -0.0959191)
(-0.00398093 0 -0.106097)
(-0.00336909 0 -0.11752)
(-0.00271219 0 -0.129774)
(-0.00201139 0 -0.142491)
(-0.00125551 0 -0.155396)
(-0.000411725 0 -0.168369)
(0.000581028 0 -0.181605)
(0.00181154 0 -0.195902)
(0.00338485 0 -0.213154)
(0.00536759 0 -0.236925)
(0.00756946 0 -0.27235)
(0.00902698 0 -0.32353)
(-0.00812998 0 0.00340616)
(-0.008136 0 0.00686282)
(-0.00815343 0 0.0102799)
(-0.00817046 0 0.0135419)
(-0.00818924 0 0.0166317)
(-0.00820934 0 0.0195201)
(-0.00823045 0 0.022158)
(-0.00825271 0 0.0244902)
(-0.00827641 0 0.0264618)
(-0.00830169 0 0.0280198)
(-0.00832832 0 0.0291143)
(-0.00835556 0 0.0296959)
(-0.00838206 0 0.0297118)
(-0.00840586 0 0.0291006)
(-0.00842442 0 0.0277884)
(-0.00843478 0 0.02569)
(-0.00843379 0 0.0227176)
(-0.00841878 0 0.0188038)
(-0.00838851 0 0.013944)
(-0.00834446 0 0.00825656)
(-0.00829164 0 0.00204506)
(-0.00823788 0 -0.00417839)
(-0.00819082 0 -0.00976551)
(-0.00815317 0 -0.0141333)
(-0.00811918 0 -0.0170489)
(-0.00807564 0 -0.0188522)
(-0.00800729 0 -0.0204482)
(-0.00790331 0 -0.0230095)
(-0.00776143 0 -0.027509)
(-0.00758952 0 -0.0342886)
(-0.00738913 0 -0.043564)
(-0.0071886 0 -0.0538383)
(-0.00701024 0 -0.0626265)
(-0.00682031 0 -0.0694327)
(-0.0065749 0 -0.0750159)
(-0.0062461 0 -0.0807223)
(-0.00583072 0 -0.0876533)
(-0.00534037 0 -0.09627)
(-0.00478931 0 -0.106484)
(-0.00418847 0 -0.117938)
(-0.00354485 0 -0.13022)
(-0.00286046 0 -0.142971)
(-0.00212584 0 -0.155922)
(-0.00131053 0 -0.16897)
(-0.000357014 0 -0.182328)
(0.000818376 0 -0.196809)
(0.00231193 0 -0.214302)
(0.00417165 0 -0.238263)
(0.00617951 0 -0.273488)
(0.00737959 0 -0.323449)
(-0.00889289 0 0.00342832)
(-0.00889941 0 0.00690064)
(-0.00891787 0 0.0103275)
(-0.00893605 0 0.0135945)
(-0.00895618 0 0.0166862)
(-0.00897778 0 0.0195751)
(-0.00900046 0 0.0222131)
(-0.0090243 0 0.0245457)
(-0.00904951 0 0.0265179)
(-0.00907622 0 0.0280763)
(-0.00910418 0 0.0291701)
(-0.00913265 0 0.0297489)
(-0.00916029 0 0.0297591)
(-0.00918511 0 0.0291387)
(-0.0092046 0 0.0278134)
(-0.00921573 0 0.0256982)
(-0.00921538 0 0.022706)