/*--------------------------------*- C++ -*----------------------------------*\
  =========                 |
  \\      /  F ield         | OpenFOAM: The Open Source CFD Toolbox
   \\    /   O peration     | Website:  https://openfoam.org
    \\  /    A nd           | Version:  9
     \\/     M anipulation  |
\*---------------------------------------------------------------------------*/
FoamFile
{
    format      ascii;
    class       surfaceVectorField;
    location    "0.11";
    object      Uf;
}
// * * * * * * * * * * * * * * * * * * * * * * * * * * * * * * * * * * * * * //

dimensions      [0 1 -1 0 0 0 0];

internalField   nonuniform List<vector> 
9850
(
(5.9357e-06 0 0.0046602)
(2.72023e-06 0 0.00302471)
(3.61869e-06 0 0.00811404)
(-1.39918e-05 0 0.00645016)
(4.85865e-06 0 0.011471)
(-1.38279e-05 0 0.00987371)
(6.09573e-06 0 0.0146523)
(-1.21745e-05 0 0.0131485)
(6.77956e-06 0 0.0176202)
(-1.10686e-05 0 0.0162306)
(6.66509e-06 0 0.0203319)
(-1.08058e-05 0 0.0190787)
(5.5896e-06 0 0.0227428)
(-1.17557e-05 0 0.0216474)
(3.49417e-06 0 0.0248111)
(-1.41663e-05 0 0.0238927)
(4.16781e-07 0 0.026499)
(-1.81235e-05 0 0.0257747)
(-3.5163e-06 0 0.0277723)
(-2.35634e-05 0 0.0272577)
(-8.10658e-06 0 0.0285972)
(-3.02723e-05 0 0.0283089)
(-1.3105e-05 0 0.0289359)
(-3.78941e-05 0 0.0288935)
(-1.82125e-05 0 0.0287414)
(-4.5954e-05 0 0.0289703)
(-2.30679e-05 0 0.0279528)
(-5.38642e-05 0 0.028486)
(-2.72135e-05 0 0.0264931)
(-6.08928e-05 0 0.027372)
(-3.00591e-05 0 0.0242697)
(-6.61313e-05 0 0.0255423)
(-3.08832e-05 0 0.0211839)
(-6.84931e-05 0 0.0228974)
(-2.89487e-05 0 0.0171549)
(-6.68335e-05 0 0.0193394)
(-2.38299e-05 0 0.0121694)
(-6.03225e-05 0 0.0148065)
(-1.59773e-05 0 0.00635772)
(-4.91558e-05 0 0.00933778)
(-7.25808e-06 0 7.86861e-05)
(-3.53979e-05 0 0.00316238)
(-7.67091e-07 0 -0.00605087)
(-2.30828e-05 0 -0.00322251)
(1.06601e-06 0 -0.0112757)
(-1.68098e-05 0 -0.00907505)
(-1.54595e-06 0 -0.0150043)
(-1.84546e-05 0 -0.0136307)
(-5.42713e-06 0 -0.017175)
(-2.43678e-05 0 -0.0164862)
(-6.15246e-06 0 -0.0184361)
(-2.74486e-05 0 -0.0179422)
(-1.00109e-06 0 -0.0199622)
(-2.18849e-05 0 -0.0190111)
(1.03563e-05 0 -0.022991)
(-5.17105e-06 0 -0.0210327)
(2.7583e-05 0 -0.0283331)
(2.20555e-05 0 -0.0251341)
(4.75329e-05 0 -0.0360174)
(5.62611e-05 0 -0.03179)
(6.43811e-05 0 -0.0466248)
(9.01389e-05 0 -0.0413042)
(6.74271e-05 0 -0.0564995)
(0.000109089 0 -0.0520399)
(5.87579e-05 0 -0.0642114)
(0.000105811 0 -0.0610425)
(5.14135e-05 0 -0.0697419)
(9.4494e-05 0 -0.0674602)
(5.67339e-05 0 -0.0743451)
(9.68817e-05 0 -0.0721135)
(7.69877e-05 0 -0.0795594)
(0.000124316 0 -0.0766847)
(0.000108245 0 -0.0863617)
(0.000174628 0 -0.0825605)
(0.000145278 0 -0.0949743)
(0.000239852 0 -0.0903033)
(0.000183837 0 -0.105115)
(0.000312311 0 -0.0997949)
(0.000220614 0 -0.116294)
(0.000386147 0 -0.11059)
(0.000252535 0 -0.127967)
(0.000456792 0 -0.122155)
(0.000276599 0 -0.139561)
(0.000520692 0 -0.133933)
(0.000291197 0 -0.15046)
(0.000576989 0 -0.145333)
(0.000299841 0 -0.160039)
(0.000632814 0 -0.155718)
(0.000318842 0 -0.167816)
(0.000714271 0 -0.164481)
(0.000391953 0 -0.173797)
(0.000886962 0 -0.171278)
(0.000624276 0 -0.179213)
(0.00129667 0 -0.17651)
(0.00128388 0 -0.188295)
(0.00226515 0 -0.182344)
(0.0031116 0 -0.213465)
(0.00452121 0 -0.195411)
(0.00973001 0 -0.234807)
(-2.58629e-05 0 0.00473552)
(-4.81871e-05 0 0.00310994)
(-3.15887e-05 0 0.00813024)
(-6.73881e-05 0 0.00646797)
(-3.09327e-05 0 0.011474)
(-6.74804e-05 0 0.00987177)
(-2.95178e-05 0 0.0146526)
(-6.5353e-05 0 0.0131445)
(-2.86879e-05 0 0.0176188)
(-6.38696e-05 0 0.0162284)
(-2.91317e-05 0 0.0203291)
(-6.35151e-05 0 0.0190798)
(-3.13196e-05 0 0.0227386)
(-6.49966e-05 0 0.0216527)
(-3.55197e-05 0 0.0248053)
(-6.87493e-05 0 0.0239025)
(-4.18044e-05 0 0.0264912)
(-7.49355e-05 0 0.0257887)
(-5.0027e-05 0 0.0277618)
(-8.34971e-05 0 0.0272752)
(-5.98161e-05 0 0.0285834)
(-9.41248e-05 0 0.0283287)
(-7.05955e-05 0 0.0289178)
(-0.000106251 0 0.0289143)
(-8.16034e-05 0 0.0287179)
(-0.000119078 0 0.0289905)
(-9.18844e-05 0 0.027923)
(-0.000131587 0 0.0285041)
(-0.000100259 0 0.0264558)
(-0.000142518 0 0.027386)
(-0.00010531 0 0.0242239)
(-0.000150344 0 0.0255503)
(-0.000105475 0 0.0211287)
(-0.000153319 0 0.0228977)
(-9.93966e-05 0 0.0170904)
(-0.00014971 0 0.0193306)
(-8.6668e-05 0 0.0120974)
(-0.000138413 0 0.014789)
(-6.89037e-05 0 0.00628267)
(-0.000120038 0 0.0093144)
(-5.04418e-05 0 6.82438e-06)
(-9.8113e-05 0 0.00313922)
(-3.75419e-05 0 -0.00611417)
(-7.90782e-05 0 -0.00323794)
(-3.48106e-05 0 -0.0113297)
(-6.97868e-05 0 -0.00907816)
(-4.08902e-05 0 -0.0150545)
(-7.23891e-05 0 -0.0136241)
(-4.78162e-05 0 -0.0172308)
(-8.05461e-05 0 -0.016479)
(-4.57858e-05 0 -0.0185058)
(-8.25753e-05 0 -0.0179442)
(-2.87752e-05 0 -0.0200492)
(-6.8893e-05 0 -0.0190271)
(4.0902e-06 0 -0.0230946)
(-3.60875e-05 0 -0.0210622)
(4.91404e-05 0 -0.0284491)
(1.39188e-05 0 -0.0251726)
(9.82844e-05 0 -0.0361373)
(7.4758e-05 0 -0.0318301)
(0.000140615 0 -0.0467391)
(0.000134988 0 -0.0413324)
(0.000152126 0 -0.0566054)
(0.000170741 0 -0.0520476)
(0.000140546 0 -0.0643163)
(0.000170743 0 -0.0610347)
(0.000134412 0 -0.0698583)
(0.000160053 0 -0.0674561)
(0.000158018 0 -0.0744804)
(0.000174428 0 -0.0721293)
(0.000216947 0 -0.0797135)
(0.000231946 0 -0.076724)
(0.000303226 0 -0.0865307)
(0.000328939 0 -0.082618)
(0.00040554 0 -0.0951539)
(0.000452705 0 -0.0903715)
(0.000514438 0 -0.105302)
(0.000591182 0 -0.0998675)
(0.000622842 0 -0.116485)
(0.000735488 0 -0.110663)
(0.000725432 0 -0.128158)
(0.00087956 0 -0.122223)
(0.000819806 0 -0.139747)
(0.00102068 0 -0.133996)
(0.000911731 0 -0.150639)
(0.0011637 0 -0.145395)
(0.00102717 0 -0.160216)
(0.00133183 0 -0.155795)
(0.00123539 0 -0.168011)
(0.00158762 0 -0.16462)
(0.00169286 0 -0.174075)
(0.00207061 0 -0.171583)
(0.00273655 0 -0.179744)
(0.00306612 0 -0.177205)
(0.0051114 0 -0.189548)
(0.00514851 0 -0.183928)
(0.0104664 0 -0.21659)
(0.00945716 0 -0.198981)
(0.0181281 0 -0.242262)
(-9.7142e-05 0 0.00476436)
(-0.00013669 0 0.00315172)
(-0.000102131 0 0.00812958)
(-0.000150804 0 0.0064835)
(-0.000101813 0 0.0114639)
(-0.000152726 0 0.00987083)
(-0.0001 0 0.014644)
(-0.000151823 0 0.0131394)
(-9.8793e-05 0 0.0176155)
(-0.000150693 0 0.0162251)
(-9.93523e-05 0 0.0203325)
(-0.000150636 0 0.0190813)
(-0.000102302 0 0.0227493)
(-0.0001528 0 0.02166)
(-0.000107942 0 0.024823)
(-0.000157729 0 0.0239157)
(-0.000116333 0 0.0265152)
(-0.000165603 0 0.0258074)
(-0.00012727 0 0.0277909)
(-0.000176348 0 0.0272984)
(-0.000140254 0 0.0286158)
(-0.000189587 0 0.0283549)
(-0.000154505 0 0.0289518)
(-0.000204622 0 0.0289418)
(-0.000168972 0 0.0287515)
(-0.000220455 0 0.0290171)
(-0.000182334 0 0.027954)
(-0.000235801 0 0.0285275)
(-0.000192982 0 0.0264819)
(-0.00024907 0 0.0274038)
(-0.000199038 0 0.0242429)
(-0.00025836 0 0.02556)
(-0.000198532 0 0.0211387)
(-0.000261529 0 0.0228969)
(-0.000189879 0 0.0170907)
(-0.000256509 0 0.0193181)
(-0.000172823 0 0.0120897)
(-0.000242049 0 0.0147654)
(-0.000149688 0 0.00627194)
(-0.000218988 0 0.00928395)
(-0.000126207 0 5.75082e-07)
(-0.000191674 0 0.00310975)
(-0.000110012 0 -0.00610951)
(-0.00016788 0 -0.00325731)
(-0.000105959 0 -0.0113134)
(-0.000155556 0 -0.00908278)
(-0.000111753 0 -0.0150333)
(-0.000156877 0 -0.0136178)
(-0.000116869 0 -0.0172152)
(-0.000164018 0 -0.0164737)
(-0.000108657 0 -0.0185033)
(-0.000162582 0 -0.0179523)
(-7.9569e-05 0 -0.0200613)
(-0.000140588 0 -0.0190545)
(-2.91597e-05 0 -0.0231178)
(-9.40335e-05 0 -0.0211074)
(3.73079e-05 0 -0.028476)
(-2.58327e-05 0 -0.0252294)
(0.000107828 0 -0.0361567)
(5.59239e-05 0 -0.0318876)
(0.000170744 0 -0.0467371)
(0.000138157 0 -0.0413744)
(0.000193448 0 -0.0565813)
(0.000190601 0 -0.0520627)
(0.000188703 0 -0.0642856)
(0.000199138 0 -0.0610316)
(0.000194102 0 -0.0698422)
(0.000196893 0 -0.0674597)
(0.000241356 0 -0.0744902)
(0.000228811 0 -0.0721608)
(0.00033808 0 -0.0797479)
(0.000317304 0 -0.0767885)
(0.000474336 0 -0.0865815)
(0.00045802 0 -0.0827089)
(0.000635773 0 -0.0952128)
(0.000635694 0 -0.0904792)
(0.000810536 0 -0.105362)
(0.000836027 0 -0.0999841)
(0.00099049 0 -0.116543)
(0.00104905 0 -0.110783)
(0.00117151 0 -0.128211)
(0.00126933 0 -0.122344)
(0.00135667 0 -0.1398)
(0.0014976 0 -0.13412)
(0.00156556 0 -0.150709)
(0.0017476 0 -0.145534)
(0.00185347 0 -0.16035)
(0.00206115 0 -0.155987)
(0.00234637 0 -0.168313)
(0.00253626 0 -0.164949)
(0.00330293 0 -0.174761)
(0.00337406 0 -0.172221)
(0.00522858 0 -0.181264)
(0.00495634 0 -0.178489)
(0.00909799 0 -0.192841)
(0.00799175 0 -0.186507)
(0.016718 0 -0.223326)
(0.0137615 0 -0.204061)
(0.0243365 0 -0.251414)
(-0.000193517 0 0.00478966)
(-0.000253654 0 0.00317848)
(-0.000200239 0 0.00814166)
(-0.000264484 0 0.00650441)
(-0.000202744 0 0.0114658)
(-0.000270031 0 0.00987826)
(-0.000202666 0 0.014644)
(-0.000271837 0 0.0131392)
(-0.000202489 0 0.0176194)
(-0.000272255 0 0.0162247)
(-0.000203986 0 0.0203433)
(-0.000273383 0 0.0190851)
(-0.000208081 0 0.0227678)
(-0.000276731 0 0.02167)
(-0.000215175 0 0.0248492)
(-0.000282969 0 0.0239323)
(-0.000225345 0 0.0265483)
(-0.00029234 0 0.02583)
(-0.000238357 0 0.0278294)
(-0.000304789 0 0.027326)
(-0.00025364 0 0.028658)
(-0.000319914 0 0.0283859)
(-0.00027029 0 0.0289953)
(-0.00033695 0 0.0289739)
(-0.000287087 0 0.0287938)
(-0.000354783 0 0.029048)
(-0.000302484 0 0.0279924)
(-0.000371963 0 0.0285545)
(-0.0003146 0 0.0265135)
(-0.000386686 0 0.0274241)
(-0.000321258 0 0.0242648)
(-0.000396791 0 0.0255706)
(-0.000320192 0 0.0211488)
(-0.000399863 0 0.0228953)
(-0.000309608 0 0.0170885)
(-0.000393585 0 0.0193027)
(-0.00028924 0 0.0120775)
(-0.000376564 0 0.0147373)
(-0.00026175 0 0.00625608)
(-0.000349706 0 0.00924777)
(-0.000233531 0 -9.66283e-06)
(-0.000317743 0 0.00307435)
(-0.000213042 0 -0.00610614)
(-0.000289183 0 -0.00328182)
(-0.000205726 0 -0.0112952)
(-0.000272683 0 -0.00909112)
(-0.000208893 0 -0.0150082)
(-0.000270681 0 -0.0136143)
(-0.000210681 0 -0.0171957)
(-0.000274826 0 -0.0164718)
(-0.000196667 0 -0.0184992)
(-0.000269261 0 -0.0179661)
(-0.000157936 0 -0.0200753)
(-0.000240309 0 -0.0190909)
(-9.36561e-05 0 -0.0231459)
(-0.000182941 0 -0.021165)
(-1.00203e-05 0 -0.0285091)
(-0.000100256 0 -0.025301)
(7.89733e-05 0 -0.0361805)
(-1.29653e-06 0 -0.0319602)
(0.000161678 0 -0.0467338)
(0.000100536 0 -0.0414295)
(0.000198706 0 -0.0565504)
(0.000170523 0 -0.0520874)
(0.000205872 0 -0.0642461)
(0.000192036 0 -0.0610364)
(0.000226991 0 -0.0698204)
(0.000203385 0 -0.0674738)
(0.000299198 0 -0.0745017)
(0.00025551 0 -0.072209)
(0.000432191 0 -0.0797922)
(0.000374339 0 -0.0768773)
(0.000615357 0 -0.0866497)
(0.000555986 0 -0.082831)
(0.000832802 0 -0.095295)
(0.000784136 0 -0.0906242)
(0.00107168 0 -0.105451)
(0.00104346 0 -0.100143)
(0.00132429 0 -0.116634)
(0.00132395 0 -0.110951)
(0.00158937 0 -0.128305)
(0.00162184 0 -0.122521)
(0.0018771 0 -0.139909)
(0.00194241 0 -0.134311)
(0.00222144 0 -0.150867)
(0.00230859 0 -0.145763)
(0.00270383 0 -0.160634)
(0.00277892 0 -0.156308)
(0.00349351 0 -0.168881)
(0.00347893 0 -0.165475)
(0.00491298 0 -0.175916)
(0.00465064 0 -0.173167)
(0.00754444 0 -0.183576)
(0.00672616 0 -0.180243)
(0.0124132 0 -0.197341)
(0.0104591 0 -0.189753)
(0.0212376 0 -0.231452)
(0.0171341 0 -0.209944)
(0.0285781 0 -0.261107)
(-0.000326257 0 0.00481375)
(-0.000409967 0 0.00319941)
(-0.000334065 0 0.00816071)
(-0.000418043 0 0.0065287)
(-0.000339149 0 0.0114744)
(-0.000425492 0 0.00989334)
(-0.000341434 0 0.0146472)
(-0.000429242 0 0.0131457)
(-0.000343052 0 0.0176236)
(-0.000431228 0 0.016229)
(-0.000346004 0 0.0203522)
(-0.000433693 0 0.0190927)
(-0.000351442 0 0.0227831)
(-0.000438231 0 0.0216833)
(-0.000359889 0 0.024871)
(-0.000445608 0 0.023952)
(-0.000371479 0 0.0265758)
(-0.000456137 0 0.0258558)
(-0.000385999 0 0.0278614)
(-0.00046979 0 0.0273568)
(-0.00040286 0 0.0286924)
(-0.000486168 0 0.02842)
(-0.000421099 0 0.0290299)
(-0.000504475 0 0.0290091)
(-0.000439382 0 0.0288259)
(-0.000523528 0 0.0290817)
(-0.000456009 0 0.028019)
(-0.000541762 0 0.0285836)
(-0.000468902 0 0.0265316)
(-0.000557222 0 0.0274456)
(-0.000475662 0 0.0242714)
(-0.000567567 0 0.0255814)
(-0.000473802 0 0.0211417)
(-0.000570189 0 0.0228925)
(-0.000461365 0 0.0170673)
(-0.000562611 0 0.0192847)
(-0.000438055 0 0.0120453)
(-0.000543363 0 0.0147051)
(-0.000406696 0 0.0062199)
(-0.000513401 0 0.0092065)
(-0.000374021 0 -3.9925e-05)
(-0.000477633 0 0.00303335)
(-0.000348938 0 -0.00612224)
(-0.000444867 0 -0.00331182)
(-0.000337326 0 -0.0112964)
(-0.000424051 0 -0.00910435)
(-0.000336486 0 -0.0150034)
(-0.000417789 0 -0.0136152)
(-0.00033407 0 -0.0171993)
(-0.00041767 0 -0.0164743)
(-0.000314608 0 -0.0185225)
(-0.000407274 0 -0.0179852)
(-0.000267946 0 -0.0201215)
(-0.000371896 0 -0.0191348)
(-0.000192513 0 -0.0232106)
(-0.00030548 0 -0.0212327)
(-9.4699e-05 0 -0.0285817)
(-0.000210854 0 -0.0253846)
(1.02795e-05 0 -0.0362449)
(-9.76392e-05 0 -0.0320458)
(0.000111618 0 -0.0467716)
(2.11871e-05 0 -0.041497)
(0.000165097 0 -0.0565614)
(0.000108536 0 -0.052123)
(0.000188195 0 -0.0642515)
(0.000146048 0 -0.0610518)
(0.000228236 0 -0.0698489)
(0.000174807 0 -0.0675005)
(0.000326076 0 -0.0745702)
(0.000249117 0 -0.0722743)
(0.000493669 0 -0.079901)
(0.000397637 0 -0.076989)
(0.000720856 0 -0.0867898)
(0.000617689 0 -0.0829826)
(0.000991336 0 -0.0954564)
(0.000892992 0 -0.0908046)
(0.00129217 0 -0.105627)
(0.00120805 0 -0.100344)
(0.00161683 0 -0.116821)
(0.00155346 0 -0.111168)
(0.00196753 0 -0.128509)
(0.0019276 0 -0.122754)
(0.00236145 0 -0.140148)
(0.00234032 0 -0.134574)
(0.00284496 0 -0.151185)
(0.00282272 0 -0.146086)
(0.00351907 0 -0.161127)
(0.00344639 0 -0.156758)
(0.00458034 0 -0.169729)
(0.00435549 0 -0.166183)
(0.00638272 0 -0.177445)
(0.00581475 0 -0.174369)
(0.00953225 0 -0.186347)
(0.00827467 0 -0.182343)
(0.0150378 0 -0.202267)
(0.0124818 0 -0.193423)
(0.0244383 0 -0.239541)
(0.0196466 0 -0.216211)
(0.0312419 0 -0.270633)
(-0.000503048 0 0.00483494)
(-0.000608883 0 0.00321526)
(-0.000509927 0 0.00818123)
(-0.000614083 0 0.0065501)
(-0.000515499 0 0.0114873)
(-0.00062118 0 0.00990988)
(-0.000518955 0 0.0146544)
(-0.000625285 0 0.0131554)
(-0.000521781 0 0.0176306)
(-0.000627996 0 0.0162366)
(-0.000525804 0 0.020363)
(-0.000631239 0 0.0191031)
(-0.000532217 0 0.0227994)
(-0.00063649 0 0.0216991)
(-0.000541603 0 0.0248931)
(-0.00064456 0 0.023974)
(-0.000554127 0 0.0266031)
(-0.000655794 0 0.0258837)
(-0.000569586 0 0.0278925)
(-0.000670173 0 0.0273897)
(-0.000587384 0 0.0287254)
(-0.000687286 0 0.0284561)
(-0.000606517 0 0.0290624)
(-0.000706309 0 0.029046)
(-0.000625579 0 0.0288549)
(-0.000726007 0 0.0291167)
(-0.000642758 0 0.0280415)
(-0.000744733 0 0.0286138)
(-0.000655842 0 0.0265444)
(-0.000760424 0 0.0274675)
(-0.000662282 0 0.0242715)
(-0.000770621 0 0.0255916)
(-0.000659465 0 0.0211267)
(-0.000772603 0 0.0228882)
(-0.000645362 0 0.0170372)
(-0.000763819 0 0.0192643)
(-0.000619694 0 0.0120031)
(-0.000742797 0 0.0146697)
(-0.000585388 0 0.00617297)
(-0.000710562 0 0.00916135)
(-0.000549294 0 -8.13496e-05)
(-0.000672091 0 0.00298807)
(-0.000520373 0 -0.00614981)
(-0.000636181 0 -0.0033464)
(-0.00050452 0 -0.0113094)
(-0.000611653 0 -0.00912241)
(-0.000499041 0 -0.0150112)
(-0.000601002 0 -0.0136211)
(-0.000491544 0 -0.0172167)
(-0.000595871 0 -0.016482)
(-0.000466162 0 -0.0185616)
(-0.000579826 0 -0.0180102)
(-0.00041199 0 -0.0201863)
(-0.000537776 0 -0.0191857)
(-0.000326859 0 -0.0232969)
(-0.000463034 0 -0.021309)
(-0.000217175 0 -0.0286781)
(-0.00035815 0 -0.0254784)
(-9.87807e-05 0 -0.0363345)
(-0.000233102 0 -0.0321423)
(1.92591e-05 0 -0.0468355)
(-9.9921e-05 0 -0.0415757)
(8.98596e-05 0 -0.0565997)
(3.69137e-06 0 -0.0521701)
(0.000131346 0 -0.0642864)
(5.85592e-05 0 -0.0610794)
(0.000192698 0 -0.0699106)
(0.000107049 0 -0.0675415)
(0.00031688 0 -0.074677)
(0.000204919 0 -0.0723571)
(0.000517739 0 -0.0800538)
(0.000382577 0 -0.077123)
(0.000786134 0 -0.08698)
(0.000638687 0 -0.0831616)
(0.00110617 0 -0.0956743)
(0.000957626 0 -0.091018)
(0.00146546 0 -0.105866)
(0.00132436 0 -0.100584)
(0.00185908 0 -0.117082)
(0.0017305 0 -0.11143)
(0.00229264 0 -0.128799)
(0.00217661 0 -0.123044)
(0.00278943 0 -0.140491)
(0.00267655 0 -0.134905)
(0.00340536 0 -0.151635)
(0.00326785 0 -0.146496)
(0.00425456 0 -0.161788)
(0.00403117 0 -0.157324)
(0.00554847 0 -0.170792)
(0.00512142 0 -0.167045)
(0.00765167 0 -0.179233)
(0.0068119 0 -0.175771)
(0.0111624 0 -0.189387)
(0.00954966 0 -0.184684)
(0.0170238 0 -0.207346)
(0.0140413 0 -0.197331)
(0.026504 0 -0.247297)
(0.0213692 0 -0.222531)
(0.0326004 0 -0.279481)
(-0.000721106 0 0.00485067)
(-0.000846093 0 0.0032262)
(-0.000726179 0 0.00819831)
(-0.000848949 0 0.00656589)
(-0.000730814 0 0.0115002)
(-0.000854849 0 0.00992363)
(-0.000734221 0 0.0146637)
(-0.000858445 0 0.0131651)
(-0.000737381 0 0.0176402)
(-0.000861218 0 0.0162452)
(-0.000741814 0 0.0203766)
(-0.000864697 0 0.0191145)
(-0.000748655 0 0.0228186)
(-0.000870197 0 0.0217159)
(-0.0007585 0 0.0249183)
(-0.000878546 0 0.023997)
(-0.00077152 0 0.0266336)
(-0.000890111 0 0.0259128)
(-0.000787495 0 0.0279269)
(-0.000904865 0 0.0274236)
(-0.000805802 0 0.0287617)
(-0.000922374 0 0.0284931)
(-0.000825395 0 0.0290979)
(-0.000941781 0 0.0290839)
(-0.000844807 0 0.0288868)
(-0.000961799 0 0.0291524)
(-0.000862149 0 0.0280665)
(-0.000980718 0 0.0286442)
(-0.000875119 0 0.026559)
(-0.0009964 0 0.0274892)
(-0.000881087 0 0.0242725)
(-0.00100631 0 0.0256012)
(-0.000877384 0 0.021112)
(-0.00100766 0 0.0228826)
(-0.000861976 0 0.0170065)
(-0.000997891 0 0.019242)
(-0.000834632 0 0.0119596)
(-0.000975553 0 0.0146319)
(-0.000798333 0 0.00612424)
(-0.000941738 0 0.00911358)
(-0.000759886 0 -0.00012519)
(-0.00090142 0 0.00293984)
(-0.000728023 0 -0.00618047)
(-0.00086321 0 -0.0033845)
(-0.000708346 0 -0.0113261)
(-0.000835571 0 -0.00914482)
(-0.000698058 0 -0.015023)
(-0.000820703 0 -0.0136323)
(-0.000684901 0 -0.0172385)
(-0.000810305 0 -0.0164956)
(-0.000653066 0 -0.0186056)
(-0.000788191 0 -0.0180416)
(-0.000591412 0 -0.0202569)
(-0.000739304 0 -0.0192437)
(-0.000497474 0 -0.0233899)
(-0.000656714 0 -0.0213933)
(-0.000377667 0 -0.0287821)
(-0.000542815 0 -0.0255809)
(-0.000247984 0 -0.0364325)
(-0.000407763 0 -0.0322481)
(-0.000114957 0 -0.0469086)
(-0.000262314 0 -0.0416643)
(-2.77333e-05 0 -0.0566482)
(-0.000143716 0 -0.0522282)
(3.3047e-05 0 -0.064333)
(-7.13557e-05 0 -0.06112)
(0.00011678 0 -0.0699862)
(-2.3707e-06 0 -0.0675973)
(0.000267401 0 -0.0748011)
(0.000119351 0 -0.0724575)
(0.000500079 0 -0.0802284)
(0.000325144 0 -0.0772781)
(0.000806767 0 -0.0871969)
(0.000614801 0 -0.0833661)
(0.0011724 0 -0.0959244)
(0.000973612 0 -0.0912618)
(0.00158554 0 -0.106144)
(0.00138734 0 -0.100859)
(0.00204291 0 -0.117388)
(0.00184871 0 -0.111735)
(0.00255307 0 -0.129146)
(0.00236024 0 -0.123384)
(0.00314401 0 -0.140906)
(0.00293881 0 -0.135299)
(0.00387812 0 -0.152178)
(0.00362628 0 -0.146986)
(0.00487681 0 -0.162571)
(0.0045085 0 -0.15799)
(0.00635638 0 -0.172008)
(0.00574424 0 -0.168032)
(0.00867618 0 -0.181196)
(0.0076043 0 -0.177317)
(0.0124024 0 -0.192589)
(0.0105162 0 -0.187168)
(0.0183755 0 -0.212456)
(0.0151268 0 -0.201313)
(0.0275622 0 -0.254622)
(0.0223656 0 -0.228655)
(0.0329085 0 -0.287402)
(-0.000975054 0 0.00486156)
(-0.00111746 0 0.00323392)
(-0.000978711 0 0.00821085)
(-0.0011189 0 0.00657727)
(-0.000982326 0 0.0115109)
(-0.00112394 0 0.00993436)
(-0.000985346 0 0.0146727)
(-0.00112708 0 0.0131736)
(-0.000988474 0 0.0176505)
(-0.00112981 0 0.0162536)
(-0.000992972 0 0.0203911)
(-0.00113337 0 0.0191261)
(-0.000999912 0 0.0228391)
(-0.00113895 0 0.0217329)
(-0.00100991 0 0.024945)
(-0.00114739 0 0.0240204)
(-0.00102314 0 0.0266659)
(-0.00115908 0 0.0259422)
(-0.00103937 0 0.0279633)
(-0.00117401 0 0.0274581)
(-0.00105794 0 0.0288001)
(-0.00119173 0 0.0285307)
(-0.00107778 0 0.0291356)
(-0.00121134 0 0.0291221)
(-0.00109735 0 0.0289207)
(-0.00123152 0 0.0291884)
(-0.0011147 0 0.0280932)
(-0.0012505 0 0.0286746)
(-0.00112748 0 0.0265751)
(-0.00126609 0 0.0275105)
(-0.00113301 0 0.0242747)
(-0.0012757 0 0.02561)
(-0.00112858 0 0.0210981)
(-0.0012765 0 0.0228758)
(-0.00111219 0 0.0169762)
(-0.00126594 0 0.0192182)
(-0.00108364 0 0.0119164)
(-0.00124258 0 0.0145925)
(-0.00104592 0 0.0060754)
(-0.00120757 0 0.00906396)
(-0.00100572 0 -0.000169635)
(-0.00116582 0 0.00288942)
(-0.000971425 0 -0.00621254)
(-0.00112571 0 -0.00342549)
(-0.000948264 0 -0.0113452)
(-0.00109529 0 -0.00917119)
(-0.000933283 0 -0.015038)
(-0.00107647 0 -0.0136485)
(-0.000914415 0 -0.0172636)
(-0.00106097 0 -0.0165151)
(-0.000876115 0 -0.018653)
(-0.00103294 0 -0.0180794)
(-0.000807285 0 -0.020331)
(-0.00097752 0 -0.0193085)
(-0.000705362 0 -0.0234866)
(-0.000887722 0 -0.0214848)
(-0.000576734 0 -0.0288901)
(-0.00076585 0 -0.025691)
(-0.000437271 0 -0.0365349)
(-0.000622111 0 -0.0323619)
(-0.000290827 0 -0.046987)
(-0.000465853 0 -0.041762)
(-0.000187694 0 -0.0567034)
(-0.000333423 0 -0.052297)
(-0.000107867 0 -0.0643879)
(-0.000244173 0 -0.0611732)
(-1.78712e-06 0 -0.0700723)
(-0.000155086 0 -0.0676681)
(0.000174312 0 -0.0749381)
(-1.03415e-05 0 -0.072575)
(0.000436807 0 -0.0804192)
(0.000221847 0 -0.0774532)
(0.000778541 0 -0.0874342)
(0.000542173 0 -0.0835939)
(0.00118541 0 -0.0961996)
(0.00093678 0 -0.0915331)
(0.00164697 0 -0.106453)
(0.00139232 0 -0.101167)
(0.00216136 0 -0.117733)
(0.00190252 0 -0.112078)
(0.00273935 0 -0.129539)
(0.00247129 0 -0.123769)
(0.00341195 0 -0.14138)
(0.00311744 0 -0.135748)
(0.00424495 0 -0.152796)
(0.00388501 0 -0.147541)
(0.00536182 0 -0.163445)
(0.00486142 0 -0.158734)
(0.00697551 0 -0.173329)
(0.00620373 0 -0.169108)
(0.00942821 0 -0.183265)
(0.00817199 0 -0.178953)
(0.013239 0 -0.19585)
(0.0111643 0 -0.189708)
(0.0191344 0 -0.217449)
(0.0157594 0 -0.205243)
(0.0278032 0 -0.261356)
(0.0227331 0 -0.234435)
(0.032419 0 -0.294338)
(-0.00126242 0 0.00486974)
(-0.00142185 0 0.00324021)
(-0.00126541 0 0.00822056)
(-0.00142264 0 0.0065866)
(-0.00126855 0 0.0115197)
(-0.00142746 0 0.00994367)
(-0.00127145 0 0.014681)
(-0.00143055 0 0.0131818)
(-0.00127466 0 0.0176605)
(-0.00143349 0 0.0162623)
(-0.00127925 0 0.0204055)
(-0.00143729 0 0.0191379)
(-0.00128625 0 0.0228594)
(-0.00144304 0 0.0217501)
(-0.00129632 0 0.0249716)
(-0.00145159 0 0.0240439)
(-0.00130964 0 0.0266982)
(-0.00146339 0 0.0259719)
(-0.00132599 0 0.0279998)
(-0.00147843 0 0.0274929)
(-0.00134471 0 0.0288385)
(-0.00149627 0 0.0285686)
(-0.00136466 0 0.0291733)
(-0.001516 0 0.0291607)
(-0.0013843 0 0.0289545)
(-0.00153626 0 0.0292246)
(-0.00140161 0 0.0281196)
(-0.00155525 0 0.028705)
(-0.00141419 0 0.0265906)
(-0.00157072 0 0.0275316)
(-0.00141931 0 0.0242761)
(-0.00158003 0 0.0256181)
(-0.00141427 0 0.0210831)
(-0.00158034 0 0.0228682)
(-0.00139705 0 0.0169448)
(-0.00156907 0 0.0191933)
(-0.0013675 0 0.0118719)
(-0.00154482 0 0.0145517)
(-0.00132859 0 0.00602516)
(-0.00150874 0 0.00901278)
(-0.00128683 0 -0.000215947)
(-0.00146568 0 0.00283706)
(-0.00125031 0 -0.00624731)
(-0.00142378 0 -0.00346913)
(-0.00122392 0 -0.011368)
(-0.00139077 0 -0.00920124)
(-0.00120458 0 -0.0150577)
(-0.00136828 0 -0.0136695)
(-0.00118039 0 -0.0172941)
(-0.00134814 0 -0.0165401)
(-0.00113611 0 -0.0187062)
(-0.00131475 0 -0.0181231)
(-0.00106075 0 -0.020411)
(-0.00125348 0 -0.0193794)
(-0.000951692 0 -0.0235894)
(-0.00115729 0 -0.0215827)
(-0.000815258 0 -0.0290043)
(-0.0010284 0 -0.0258077)
(-0.000667073 0 -0.036644)
(-0.000876978 0 -0.0324828)
(-0.000508408 0 -0.0470733)
(-0.000711007 0 -0.0418678)
(-0.000390361 0 -0.0567684)
(-0.00056583 0 -0.0523757)
(-0.000292406 0 -0.0644549)
(-0.000460727 0 -0.0612386)
(-0.000165326 0 -0.0701723)
(-0.000352685 0 -0.0677528)
(3.49472e-05 0 -0.0750914)
(-0.000186523 0 -0.0727085)
(0.000324506 0 -0.080629)
(6.9685e-05 0 -0.0776462)
(0.000697641 0 -0.0876938)
(0.000417361 0 -0.0838427)
(0.00114096 0 -0.096501)
(0.000843365 0 -0.0918287)
(0.00164485 0 -0.106792)
(0.00133511 0 -0.101503)
(0.00220848 0 -0.118114)
(0.00188705 0 -0.112454)
(0.00284388 0 -0.129977)
(0.0025039 0 -0.124193)
(0.00358348 0 -0.141906)
(0.00320522 0 -0.136241)
(0.00449369 0 -0.153475)
(0.00403531 0 -0.148148)
(0.00569574 0 -0.164388)
(0.00508027 0 -0.159536)
(0.00739319 0 -0.174717)
(0.00649131 0 -0.170239)
(0.00990438 0 -0.185374)
(0.00851255 0 -0.180627)
(0.0136965 0 -0.199071)
(0.0115082 0 -0.192236)
(0.0193857 0 -0.222193)
(0.0159884 0 -0.209036)
(0.0274193 0 -0.267389)
(0.022585 0 -0.23979)
(0.0313415 0 -0.300315)
(-0.00158322 0 0.0048771)
(-0.00175973 0 0.00324623)
(-0.00158613 0 0.0082295)
(-0.00176033 0 0.00659563)
(-0.00158932 0 0.0115284)
(-0.00176546 0 0.00995315)
(-0.00159249 0 0.0146896)
(-0.00176893 0 0.0131908)
(-0.00159607 0 0.017671)
(-0.00177238 0 0.0162719)
(-0.00160098 0 0.0204201)
(-0.0017767 0 0.0191505)
(-0.0016082 0 0.0228798)
(-0.00178285 0 0.0217678)
(-0.00161842 0 0.0249982)
(-0.00179167 0 0.0240678)
(-0.00163187 0 0.0267304)
(-0.00180368 0 0.0260019)
(-0.00164833 0 0.0280361)
(-0.00181889 0 0.0275278)
(-0.00166715 0 0.0288768)
(-0.00183687 0 0.0286067)
(-0.00168718 0 0.0292106)
(-0.0018567 0 0.0291993)
(-0.00170684 0 0.0289877)
(-0.00187703 0 0.0292607)
(-0.00172407 0 0.0281453)
(-0.00189599 0 0.0287352)
(-0.00173644 0 0.0266051)
(-0.00191133 0 0.0275522)
(-0.00174118 0 0.0242762)
(-0.00192035 0 0.0256257)
(-0.00173556 0 0.0210666)
(-0.00192019 0 0.0228597)
(-0.00171757 0 0.0169116)
(-0.00190825 0 0.0191673)
(-0.00168706 0 0.0118254)
(-0.00188313 0 0.0145097)
(-0.00164697 0 0.00597265)
(-0.00184599 0 0.00896005)
(-0.00160368 0 -0.00026503)
(-0.0018016 0 0.00278279)
(-0.00156501 0 -0.00628568)
(-0.00175792 0 -0.00351533)
(-0.00153562 0 -0.0113955)
(-0.00172243 0 -0.0092347)
(-0.00151235 0 -0.0150828)
(-0.00169662 0 -0.0136947)
(-0.00148348 0 -0.0173307)
(-0.00167239 0 -0.01657)
(-0.00143398 0 -0.0187658)
(-0.00163441 0 -0.018172)
(-0.00135294 0 -0.0204978)
(-0.00156816 0 -0.0194557)
(-0.00123765 0 -0.0236993)
(-0.00146654 0 -0.0216862)
(-0.00109433 0 -0.029126)
(-0.00133157 0 -0.0259304)
(-0.000938308 0 -0.0367613)
(-0.00117337 0 -0.0326101)
(-0.000768491 0 -0.0471694)
(-0.000998664 0 -0.041981)
(-0.000636657 0 -0.0568451)
(-0.000841821 0 -0.0524636)
(-0.000521903 0 -0.0645356)
(-0.000722133 0 -0.0613151)
(-0.00037547 0 -0.0702879)
(-0.000596769 0 -0.0678504)
(-0.00015374 0 -0.0752621)
(-0.000411283 0 -0.0728563)
(0.000160136 0 -0.0808585)
(-0.000133875 0 -0.0778555)
(0.000560681 0 -0.0879758)
(0.000237434 0 -0.0841097)
(0.00103529 0 -0.0968282)
(0.000690155 0 -0.092145)
(0.00157494 0 -0.107161)
(0.0012122 0 -0.101862)
(0.00217934 0 -0.118529)
(0.0017984 0 -0.112857)
(0.00286095 0 -0.130453)
(0.00245368 0 -0.124647)
(0.00365211 0 -0.142477)
(0.00319733 0 -0.136768)
(0.00461765 0 -0.154201)
(0.00407238 0 -0.148792)
(0.00587356 0 -0.165376)
(0.00516145 0 -0.160373)
(0.00761051 0 -0.176135)
(0.00660734 0 -0.171397)
(0.0101201 0 -0.187472)
(0.00863548 0 -0.1823)
(0.0138178 0 -0.202183)
(0.011575 0 -0.194701)
(0.0192175 0 -0.226617)
(0.0158711 0 -0.212636)
(0.0265588 0 -0.272711)
(0.0220237 0 -0.244685)
(0.0298357 0 -0.305388)
(-0.00193809 0 0.00488472)
(-0.00213165 0 0.00325268)
(-0.00194126 0 0.00823905)
(-0.0021324 0 0.0066055)
(-0.00194491 0 0.0115382)
(-0.0021382 0 0.00996398)
(-0.00194871 0 0.0146995)
(-0.00214241 0 0.0132016)
(-0.00195296 0 0.0176827)
(-0.00214673 0 0.0162834)
(-0.00195847 0 0.0204357)
(-0.00215188 0 0.0191647)
(-0.00196615 0 0.0229008)
(-0.0021587 0 0.0217866)
(-0.0019767 0 0.0250253)
(-0.00216804 0 0.0240924)
(-0.00199039 0 0.0267629)
(-0.00218042 0 0.0260324)
(-0.00200705 0 0.0280727)
(-0.00219591 0 0.0275632)
(-0.00202601 0 0.0289152)
(-0.0022141 0 0.0286451)
(-0.00204613 0 0.029248)
(-0.00223409 0 0.0292382)
(-0.00206581 0 0.0290208)
(-0.00225449 0 0.0292969)
(-0.00208297 0 0.0281706)
(-0.00227346 0 0.0287653)
(-0.00209513 0 0.026619)
(-0.00228867 0 0.0275726)
(-0.00209949 0 0.0242754)
(-0.00229741 0 0.0256326)
(-0.0020933 0 0.0210489)
(-0.00229678 0 0.0228503)
(-0.00207454 0 0.016877)
(-0.00228417 0 0.0191402)
(-0.00204306 0 0.0117772)
(-0.00225817 0 0.0144663)
(-0.00200177 0 0.00591814)
(-0.00221994 0 0.00890576)
(-0.00195691 0 -0.000316642)
(-0.00217419 0 0.00272657)
(-0.00191614 0 -0.00632728)
(-0.00212872 0 -0.00356405)
(-0.00188397 0 -0.0114269)
(-0.00209085 0 -0.00927134)
(-0.00185723 0 -0.0151127)
(-0.00206206 0 -0.0137237)
(-0.00182438 0 -0.0173724)
(-0.00203434 0 -0.016604)
(-0.00177055 0 -0.0188307)
(-0.00199259 0 -0.0182252)
(-0.00168479 0 -0.0205901)
(-0.00192235 0 -0.0195365)
(-0.00156427 0 -0.0238151)
(-0.00181631 0 -0.0217944)
(-0.00141499 0 -0.0292541)
(-0.00167627 0 -0.0260582)
(-0.00125201 0 -0.0368858)
(-0.00151221 0 -0.0327431)
(-0.00107209 0 -0.0472742)
(-0.00132973 0 -0.042101)
(-0.000927695 0 -0.0569325)
(-0.00116233 0 -0.0525599)
(-0.000797727 0 -0.0646287)
(-0.00102946 0 -0.0614017)
(-0.000633991 0 -0.0704174)
(-0.000888676 0 -0.0679596)
(-0.00039331 0 -0.0754481)
(-0.000686319 0 -0.0730167)
(-5.87073e-05 0 -0.0811049)
(-0.000390835 0 -0.0780785)
(0.000364892 0 -0.0882768)
(1.69619e-07 0 -0.0843921)
(0.00086537 0 -0.0971768)
(0.00047475 0 -0.0924786)
(0.00143397 0 -0.107555)
(0.00102106 0 -0.102241)
(0.00207045 0 -0.118971)
(0.00163397 0 -0.113281)
(0.00278692 0 -0.130958)
(0.00231807 0 -0.125125)
(0.00361452 0 -0.143078)
(0.00309155 0 -0.13732)
(0.00461493 0 -0.154956)
(0.00399503 0 -0.149459)
(0.00589694 0 -0.166385)
(0.00510628 0 -0.161228)
(0.00763661 0 -0.177551)
(0.00655817 0 -0.172557)
(0.0100983 0 -0.189517)
(0.00855652 0 -0.183941)
(0.0136478 0 -0.205142)
(0.011396 0 -0.197068)
(0.0187057 0 -0.230693)
(0.0154621 0 -0.216008)
(0.0253365 0 -0.277359)
(0.0211371 0 -0.249105)
(0.0280278 0 -0.309631)
(-0.00232733 0 0.00489334)
(-0.00253792 0 0.0032601)
(-0.00233106 0 0.00825017)
(-0.00253907 0 0.00661712)
(-0.00233552 0 0.01155)
(-0.00254588 0 0.00997719)
(-0.00234029 0 0.0147118)
(-0.00255119 0 0.0132151)
(-0.00234557 0 0.0176966)
(-0.00255673 0 0.0162976)
(-0.002352 0 0.020453)
(-0.00256305 0 0.0191812)
(-0.00236041 0 0.0229231)
(-0.00257086 0 0.0218073)
(-0.00237152 0 0.0250532)
(-0.00258097 0 0.0241184)
(-0.00238562 0 0.0267961)
(-0.00259392 0 0.0260638)
(-0.00240258 0 0.0281097)
(-0.00260984 0 0.0275992)
(-0.00242176 0 0.0289539)