/*--------------------------------*- C++ -*----------------------------------*\
  =========                 |
  \\      /  F ield         | OpenFOAM: The Open Source CFD Toolbox
   \\    /   O peration     | Website:  https://openfoam.org
    \\  /    A nd           | Version:  9
     \\/     M anipulation  |
\*---------------------------------------------------------------------------*/
FoamFile
{
    format      ascii;
    class       surfaceScalarField;
    location    "0.16";
    object      alphaPhi0.water;
}
// * * * * * * * * * * * * * * * * * * * * * * * * * * * * * * * * * * * * * //

dimensions      [0 3 -1 0 0 0 0];

internalField   nonuniform List<scalar> 
9850
(
-1.54641e-24
-1.13187e-24
-3.50045e-24
5.88357e-23
-1.13952e-22
1.71998e-21
-2.88764e-21
4.51206e-20
-6.23642e-20
1.04718e-18
-5.90179e-19
2.2268e-17
0
5.33673e-16
0
1.44754e-14
0
6.23374e-13
6.0263e-13
4.19155e-11
1.10356e-10
7.20212e-10
3.17794e-09
7.41205e-10
2.83193e-07
8.87685e-08
6.61233e-07
8.44775e-07
5.65458e-07
5.60404e-07
5.09402e-07
5.84669e-07
4.58387e-07
6.32974e-07
4.13255e-07
5.26049e-07
3.90239e-07
3.03296e-07
4.12014e-07
1.53289e-08
4.7657e-07
-1.95063e-07
5.71975e-07
-2.71373e-07
6.69767e-07
-2.11803e-07
7.44188e-07
-5.92871e-08
7.85093e-07
1.11962e-07
7.96877e-07
2.44622e-07
7.85614e-07
3.18589e-07
7.55762e-07
3.58506e-07
7.1082e-07
4.53465e-07
3.2169e-07
5.79287e-07
0
1.36273e-07
0
4.78675e-09
0
1.15597e-09
0
3.11253e-10
0
7.44957e-11
0
1.48786e-11
0
3.17623e-12
0
7.02186e-13
0
1.60583e-13
0
3.81e-14
1.85675e-16
8.94643e-15
3.34204e-16
2.06901e-15
3.19937e-16
9.68206e-16
2.40848e-16
6.33411e-16
1.53314e-16
4.02588e-16
8.45954e-17
2.28507e-16
4.14434e-17
1.1597e-16
1.81975e-17
5.29148e-17
6.58748e-18
2.21959e-17
5.78647e-18
-6.09117e-25
-1.00314e-24
-1.24245e-24
2.35202e-23
-4.64915e-23
8.57613e-22
-1.43299e-21
2.92225e-20
-3.07842e-20
7.69038e-19
-4.77435e-19
1.48726e-17
0
3.41962e-16
0
9.61798e-15
0
6.2574e-13
1.75807e-12
5.96655e-11
9.17122e-11
6.47049e-10
1.12803e-09
2.32363e-10
2.51687e-07
3.18169e-08
7.26479e-07
8.12708e-07
5.70972e-07
7.17545e-07
5.25109e-07
6.3055e-07
4.91834e-07
6.66249e-07
4.43828e-07
5.74055e-07
3.97226e-07
3.49898e-07
3.81995e-07
3.05597e-08
4.14657e-07
-2.27725e-07
4.89741e-07
-3.46458e-07
5.83389e-07
-3.05451e-07
6.64531e-07
-1.40428e-07
7.17255e-07
5.92374e-08
7.41945e-07
2.19933e-07
7.40901e-07
3.19629e-07
7.114e-07
3.8791e-07
6.44067e-07
5.15795e-07
2.16261e-07
5.6211e-07
0
6.58553e-08
0
1.82957e-09
1.2261e-11
1.32014e-09
0
2.74929e-10
0
7.02732e-11
0
1.7057e-11
0
3.6682e-12
0
8.19857e-13
0
1.891e-13
0
4.55906e-14
8.11698e-17
1.10942e-14
2.8339e-16
2.20681e-15
3.15603e-16
1.02701e-15
2.56188e-16
7.1408e-16
1.69332e-16
4.75875e-16
9.75486e-17
2.81693e-16
5.05768e-17
1.4974e-16
2.3883e-17
7.21871e-17
9.65267e-18
3.2831e-17
9.576e-18
-2.41725e-25
-8.27754e-25
-4.58701e-25
1.32697e-23
-2.3675e-23
6.89428e-22
-9.72341e-22
2.75765e-20
-1.89062e-20
7.44367e-19
-1.90696e-19
1.24039e-17
0
2.88176e-16
0
1.03301e-14
1.78038e-13
1.17548e-12
5.24477e-12
5.18681e-11
3.89835e-11
1.12953e-10
2.52709e-10
5.14362e-11
4.15806e-08
4.71534e-09
7.44702e-07
6.03721e-07
5.88348e-07
9.38822e-07
5.51381e-07
6.67554e-07
5.46654e-07
6.70975e-07
5.08192e-07
6.12517e-07
4.48115e-07
4.09975e-07
3.98678e-07
7.99966e-08
3.91886e-07
-2.20933e-07
4.31387e-07
-3.85958e-07
5.05129e-07
-3.79193e-07
5.82424e-07
-2.17723e-07
6.38525e-07
3.13682e-09
6.68354e-07
1.90104e-07
6.70304e-07
3.17671e-07
6.35929e-07
4.22111e-07
5.34571e-07
6.07413e-07
7.81054e-08
4.19409e-07
0
5.32272e-09
0
8.36805e-10
6.83112e-11
1.03933e-09
0
2.63459e-10
0
5.87474e-11
0
1.71496e-11
0
4.01272e-12
0
9.48327e-13
0
2.22875e-13
0
5.3654e-14
0
1.32025e-14
2.27937e-16
2.56073e-15
2.95129e-16
1.09184e-15
2.54117e-16
7.7873e-16
1.74921e-16
5.38567e-16
1.04959e-16
3.31554e-16
5.71195e-17
1.83976e-16
2.87395e-17
9.33939e-17
1.2762e-17
4.56074e-17
1.46497e-17
-1.02644e-25
-6.06943e-25
-2.41719e-25
1.06583e-23
-1.95459e-23
7.46907e-22
-9.78555e-22
3.4808e-20
-1.15125e-20
9.41485e-19
-5.37161e-20
1.19663e-17
0
3.94216e-16
1.80139e-15
1.91089e-14
2.94647e-13
1.3317e-12
3.2483e-12
2.07584e-11
8.51597e-12
1.04907e-10
1.82243e-11
6.08905e-11
4.30658e-09
4.56602e-10
6.74419e-07
3.18619e-07
6.59375e-07
1.14386e-06
6.16273e-07
7.10917e-07
6.30087e-07
6.5716e-07
6.06842e-07
6.35762e-07
5.47123e-07
4.69694e-07
4.7372e-07
1.534e-07
4.25599e-07
-1.72813e-07
4.15072e-07
-3.75431e-07
4.48693e-07
-4.12814e-07
5.05001e-07
-2.74031e-07
5.49222e-07
-4.10847e-08
5.66054e-07
1.73271e-07
5.52786e-07
3.30915e-07
4.9931e-07
4.74138e-07
3.11563e-07
6.20755e-07
0
1.55441e-07
1.24997e-10
2.0722e-09
3.26339e-13
5.195e-10
5.40801e-11
5.31642e-10
0
3.1488e-10
0
4.24984e-11
0
1.51999e-11
0
3.91309e-12
0
9.46076e-13
0
2.27018e-13
0
5.51019e-14
0
1.35409e-14
1.92006e-16
2.75592e-15
2.70022e-16
1.13493e-15
2.415e-16
8.34626e-16
1.73395e-16
5.95991e-16
1.0842e-16
3.80886e-16
6.20507e-17
2.20937e-16
3.32505e-17
1.18269e-16
1.60456e-17
6.14971e-17
2.11655e-17
-6.07368e-26
-4.02793e-25
-1.57582e-25
1.2128e-23
-1.23013e-23
7.35734e-22
-6.23793e-22
3.50399e-20
-5.70124e-21
9.57697e-19
0
1.25275e-17
1.87348e-17
5.84683e-16
4.26675e-15
2.33157e-14
3.44196e-13
7.61676e-13
2.7402e-12
3.20894e-11
6.84505e-12
2.16744e-10
4.17852e-11
9.70393e-11
4.80462e-10
6.34423e-11
3.964e-07
1.59712e-07
9.09361e-07
9.73918e-07
7.91267e-07
8.30338e-07
7.57936e-07
6.90509e-07
7.32703e-07
6.60996e-07
6.83535e-07
5.18861e-07
6.02298e-07
2.34637e-07
5.18362e-07
-8.88763e-08
4.49964e-07
-3.07033e-07
4.2476e-07
-3.87609e-07
4.42578e-07
-2.91849e-07
4.60684e-07
-5.91912e-08
4.4658e-07
1.87368e-07
4.02053e-07
3.75324e-07
3.31904e-07
5.35402e-07
1.2868e-07
3.29102e-07
5.18022e-10
6.86923e-09
0
5.37564e-10
1.03556e-11
3.25855e-10
1.61582e-12
5.7244e-10
0
3.08496e-10
0
3.48618e-11
0
1.24619e-11
0
3.49673e-12
0
8.64839e-13
0
2.11114e-13
0
5.16663e-14
0
1.27402e-14
1.71634e-16
2.62262e-15
2.45928e-16
1.14677e-15
2.26731e-16
8.79631e-16
1.67203e-16
6.50079e-16
1.09076e-16
4.32259e-16
6.57464e-17
2.62545e-16
3.73181e-17
1.47969e-16
1.91224e-17
8.07759e-17
2.86903e-17
-1.54599e-26
-2.81028e-25
-5.14253e-26
6.81144e-24
-4.38835e-24
5.14542e-22
-2.30144e-22
2.80571e-20
-9.6198e-22
9.37504e-19
1.04165e-19
1.23655e-17
4.03261e-17
6.59264e-16
1.95094e-15
2.18505e-14
4.4421e-13
3.13792e-13
9.55277e-12
4.60208e-11
3.02598e-11
5.24268e-10
2.39631e-11
7.33361e-11
6.4679e-11
2.48014e-11
1.50531e-07
2.07299e-08
1.13317e-06
3.32553e-07
1.04393e-06
9.4991e-07
9.23426e-07
8.1113e-07
8.78175e-07
7.06248e-07
8.44476e-07
5.52558e-07
7.66935e-07
3.12177e-07
6.59386e-07
1.86719e-08
5.3535e-07
-1.82996e-07
4.41949e-07
-2.94202e-07
4.09436e-07
-2.59337e-07
3.98761e-07
-4.85193e-08
3.61179e-07
2.24886e-07
3.10109e-07
4.21896e-07
1.76545e-07
3.69905e-07
0
1.73198e-08
2.12866e-10
5.19094e-10
6.0832e-12
1.95341e-10
2.51254e-11
1.45928e-10
1.71099e-11
6.7699e-10
0
2.92592e-10
0
3.26528e-11
0
9.56854e-12
0
2.81062e-12
0
7.24885e-13
0
1.8164e-13
0
4.483e-14
0
1.10986e-14
1.55559e-16
2.36066e-15
2.17846e-16
1.10761e-15
2.05537e-16
8.94382e-16
1.57417e-16
6.9546e-16
1.07402e-16
4.85017e-16
6.77238e-17
3.08175e-16
4.0125e-17
1.81091e-16
2.12664e-17
1.01929e-16
3.6055e-17
-1.96309e-28
-2.18621e-25
2.81616e-27
2.68167e-24
2.19019e-25
2.96934e-22
3.96928e-23
1.8768e-20
4.05497e-21
8.18846e-19
2.16097e-19
1.04377e-17
2.89126e-17
5.50174e-16
1.45017e-15
1.1625e-14
2.56103e-13
1.38841e-13
6.16263e-12
6.58087e-11
3.57088e-11
5.39861e-10
1.61198e-11
4.75219e-11
3.31391e-11
1.84339e-11
1.93326e-08
1.43272e-09
4.10607e-07
4.81651e-08
1.14813e-06
4.14745e-07
1.08441e-06
8.79526e-07
1.03592e-06
7.5476e-07
1.01568e-06
5.72795e-07
9.45337e-07
3.82502e-07
8.24963e-07
1.39036e-07
6.63982e-07
-2.20299e-08
5.07769e-07
-1.3799e-07
4.17697e-07
-1.6926e-07
3.76412e-07
-7.24281e-09
3.18698e-07
2.77888e-07
1.90455e-07
3.08561e-07
8.51664e-09
1.35803e-08
4.69304e-10
4.85615e-10
1.85336e-10
2.23827e-10
8.34314e-11
2.50276e-10
7.9034e-11
2.76757e-10
1.20763e-10
6.98795e-10
0
3.73083e-10
0
2.8093e-11
0
7.61313e-12
0
2.22171e-12
0
5.72772e-13
0
1.45429e-13
0
3.66209e-14
0
9.42049e-15
1.37252e-16
2.07116e-15
1.84155e-16
1.05122e-15
1.77882e-16
8.91426e-16
1.44135e-16
7.2826e-16
1.02867e-16
5.35021e-16
6.75715e-17
3.55634e-16
4.1296e-17
2.15524e-16
2.23229e-17
1.23033e-16
4.18032e-17
-6.50298e-28
-1.90209e-25
1.44879e-26
1.9942e-24
1.5248e-24
1.88416e-22
1.16156e-22
1.25684e-20
7.07042e-21
6.19253e-19
1.68919e-19
6.58004e-18
1.56134e-17
3.34456e-16
8.09915e-16
4.76809e-15
1.64541e-13
7.87206e-14
3.96534e-12
8.2965e-11
3.64115e-11
5.26131e-10
9.81621e-12
4.02476e-11
2.6375e-11
1.51025e-11
1.46453e-09
5.52263e-11
4.81546e-08
1.92858e-09
5.01117e-07
3.23826e-08
1.15293e-06
3.43459e-07
1.20522e-06
7.07243e-07
1.19187e-06
5.86267e-07
1.11703e-06
4.57482e-07
9.96316e-07
2.59753e-07
8.26001e-07
1.47915e-07
6.36354e-07
5.08027e-08
4.82904e-07
-1.60321e-08
3.64992e-07
7.49932e-08
1.58083e-07
1.55179e-07
7.10273e-09
1.92576e-09
1.98205e-10
1.08748e-10
7.06244e-11
6.29879e-13
2.20854e-10
1.06305e-10
2.15186e-10
6.27043e-10
0
2.52373e-10
9.45276e-11
6.777e-10
0
3.57676e-10
0
1.96759e-11
0
7.31471e-12
0
1.92881e-12
0
4.98102e-13
0
1.25759e-13
0
3.38442e-14
1.18156e-17
8.99576e-15
1.09899e-16
2.00332e-15
1.49391e-16
9.95271e-16
1.51678e-16
8.81796e-16
1.27143e-16
7.52679e-16
9.54637e-17
5.80211e-16
6.48285e-17
3.96218e-16
3.96131e-17
2.397e-16
2.08626e-17
1.32033e-16
4.3589e-17
-8.22344e-28
-1.42203e-25
2.17024e-26
1.69519e-24
1.49385e-24
9.98223e-23
1.20369e-22
7.02844e-21
6.76756e-21
3.43272e-19
1.21513e-19
4.56453e-18
9.13138e-18
1.93435e-16
5.9593e-16
3.42898e-15
1.45658e-13
6.68302e-14
6.9794e-12
9.8722e-11
2.67936e-11
5.00752e-10
5.94548e-13
6.3392e-11
8.55555e-12
1.39646e-11
8.61241e-11
1.29065e-12
2.02148e-09
5.51838e-11
3.59352e-08
0
3.76585e-07
5.24437e-09
1.0729e-06
7.76346e-08
1.23775e-06
2.93529e-07
1.2128e-06
3.34675e-07
1.10321e-06
2.58895e-07
9.27301e-07
2.00732e-07
6.95568e-07
1.12778e-07
3.73686e-07
6.83269e-08
8.73889e-08
3.31514e-08
1.3179e-09
0
5.08218e-11
3.96919e-13
3.22796e-11
3.88019e-12
2.32684e-10
1.575e-11
2.77908e-10
2.57861e-10
2.57942e-10
6.51735e-10
0
3.63292e-10
2.14219e-11
2.69721e-10
0
2.66764e-10
0
1.20612e-11
2.88997e-15
9.26392e-12
0
1.7055e-12
0
4.9947e-13
0
1.26264e-13
0
3.44639e-14
1.97693e-17
9.38654e-15
1.00863e-16
2.1161e-15
1.17088e-16
9.71135e-16
1.22684e-16
8.75724e-16
1.08579e-16
7.76173e-16
8.40316e-17
6.08713e-16
5.54982e-17
4.05385e-16
3.29868e-17
2.41951e-16
1.69031e-17
1.31993e-16
4.24547e-17
-9.05785e-28
-1.13188e-25
2.22915e-26
1.43763e-24
1.33343e-24
5.85077e-23
8.07011e-23
3.55253e-21
3.84767e-21
1.82218e-19
9.87565e-20
3.96552e-18
7.0894e-18
1.70657e-16
5.63367e-16
3.27742e-15
1.62462e-13
7.17794e-14
2.48876e-12
1.59706e-10
2.69579e-11
4.91576e-10
0
1.79994e-10
1.79208e-12
1.36258e-11
4.65163e-12
2.23086e-12
6.22146e-11
6.24144e-12
4.04377e-10
0
5.84907e-09
0
4.92437e-08
2.10638e-10
2.74922e-07
1.99682e-09
3.98575e-07
1.10535e-09
3.7777e-07
5.07421e-10
2.98295e-07
1.175e-10
1.56012e-07
0
3.94951e-08
0
1.28022e-09
0
2.16851e-10
0
3.89545e-11
8.09071e-12
7.6196e-12
3.2119e-13
1.23537e-10
4.01743e-12
1.88956e-10
1.30321e-10
1.81356e-10
7.51411e-10
0
1.06283e-09
0
2.98503e-11
4.54933e-12
1.26646e-10
0
1.3409e-11
9.17179e-14
1.4221e-11
0
1.31529e-12
0
5.22509e-13
0
1.38667e-13
0
3.80291e-14
6.47451e-18
1.03246e-14
7.8677e-17
2.34487e-15
9.01162e-17
9.61428e-16
9.69326e-17
8.79531e-16
9.01865e-17
8.01425e-16
6.7218e-17
6.09998e-16
4.32998e-17
4.01505e-16
2.57411e-17
2.36615e-16
1.28753e-17
1.25984e-16
3.81117e-17
-1.62195e-27
-1.60716e-25
-7.02401e-27
-7.04821e-25
5.49844e-25
3.24902e-23
6.55152e-23
2.19213e-21
4.03149e-21
1.62301e-19
1.34823e-19
4.71388e-18
1.00539e-17
1.82338e-16
8.68993e-16
4.90038e-15
3.03331e-13
1.0857e-13
5.5394e-12
4.16722e-10
2.24448e-11
4.87667e-10
3.18389e-12
1.94209e-10
8.47421e-13
1.23987e-11
6.23157e-13
1.75673e-12
4.73049e-12
2.18432e-12
2.14359e-11
0
1.64513e-10
0
4.86136e-10
0
2.07851e-09
0
2.7169e-09
0
2.75564e-09
0
2.33522e-09
0
1.21131e-09
0
6.55059e-10
0
1.94308e-10
0
7.06825e-11
1.15763e-11
9.73143e-13
0
8.71465e-13
1.26593e-13
6.51699e-12
2.62475e-13
5.18314e-11
1.65329e-11
9.69068e-11
7.66409e-10
2.00789e-11
8.82295e-10
0
3.37529e-11
-1.12942e-13
8.66332e-12
-2.11639e-14
1.98238e-11
2.03782e-14
1.17662e-11
0
1.05136e-12
0
4.9762e-13
0
1.37899e-13
0
3.76341e-14
2.95754e-18
1.02154e-14
7.67326e-17
2.38342e-15
6.93069e-17
9.67406e-16
7.59526e-17
9.09965e-16
7.14878e-17
8.09877e-16
5.05536e-17
6.00015e-16
3.25577e-17
3.84913e-16
1.9228e-17
2.24117e-16
9.29443e-18
1.16167e-16
3.2184e-17
-3.76868e-27
-3.12334e-25
-6.17587e-26
-5.15214e-24
-1.0832e-24
-8.90609e-23
2.78121e-23
1.06094e-21
3.39368e-21
1.28653e-19
1.37402e-19
4.14194e-18
4.63274e-17
2.38065e-16
1.50326e-14
6.37777e-15
2.78384e-12
7.89409e-12
1.35958e-11
1.7862e-10
9.63804e-12
1.10999e-10
7.33904e-12
1.13435e-10
2.60616e-13
1.02628e-11
2.3271e-13
1.58513e-12
1.00756e-12
1.48535e-12
1.95272e-12
9.4361e-13
1.15704e-11
3.5554e-13
3.78582e-11
4.35115e-13
1.02382e-10
0
1.57359e-10
1.03579e-12
1.75266e-10
2.35843e-12
1.65155e-10
3.93774e-12
1.28662e-10
0
8.24987e-11
5.15157e-12
3.63875e-11
0
3.8521e-12
0
0
0
3.2308e-13
1.09688e-13
4.11039e-12
2.90215e-13
2.49171e-11
2.25412e-11
-5.77183e-12
0
-1.18544e-11
1.1576e-10
-1.40662e-12
1.78758e-11
-1.09907e-12
4.87508e-12
-6.4712e-13
1.64085e-11
-7.41962e-14
6.00724e-12
0
1.09949e-12
0
4.35003e-13
0
1.212e-13
0
3.56518e-14
1.92992e-18
9.35447e-15
5.03841e-17
2.29823e-15
5.35511e-17
9.98478e-16
6.0032e-17
9.56661e-16
5.22438e-17
8.06287e-16
3.68703e-17
5.75582e-16
2.34364e-17
3.60044e-16
1.3741e-17
2.06751e-16
6.35956e-18
1.03985e-16
2.57706e-17
-5.87041e-27
-4.21194e-25
-1.03385e-25
-7.43709e-24
-1.35944e-24
-9.64777e-23
1.43538e-22
7.17847e-21
6.89175e-21
2.78809e-19
2.65257e-19
7.99629e-18
7.5876e-17
2.59172e-16
2.73072e-14
6.14869e-15
9.53248e-13
1.11794e-11
4.22857e-12
8.75957e-12
3.1017e-12
5.0902e-11
5.82109e-12
8.05105e-11
1.79615e-13
3.60709e-12
3.26849e-13
1.37996e-12
6.11097e-13
1.2002e-12
7.54623e-13
7.94147e-13
1.10232e-12
6.61675e-13
3.07834e-12
0
4.17345e-12
0
5.4107e-12
0
6.61333e-12
0
8.07637e-12
0
7.8672e-12
0
7.13878e-12
0
3.55542e-12
0
1.12509e-12
0
0
9.52963e-14
2.49622e-13
6.24479e-14
6.64471e-12
4.26044e-13
1.04929e-11
9.07372e-11
-3.55902e-12
2.63199e-10
-3.67295e-12
4.51794e-11
-1.4105e-12
3.35531e-11
-1.10074e-12
6.90199e-12
-4.65984e-13
3.54908e-12
-1.00068e-13
1.33569e-12
-1.39518e-14
1.35553e-12
0
3.80275e-13
0
8.00362e-14
0
3.08229e-14
1.62235e-18
7.72917e-15
2.75321e-17
2.08753e-15
4.10746e-17
1.05164e-15
4.57958e-17
9.76068e-16
3.74441e-17
7.87742e-16
2.60494e-17
5.41482e-16
1.65199e-17
3.33473e-16
9.61215e-18
1.89542e-16
4.21035e-18
9.19521e-17
1.99828e-17
-6.28684e-27
-4.00037e-25
-9.20453e-26
-5.85402e-24
7.75159e-25
1.0854e-22
3.29349e-22
1.41562e-20
1.05411e-20
3.95172e-19
1.23513e-18
9.14156e-18
8.13909e-16
4.47769e-16
7.92091e-14
1.01022e-13
4.21908e-13
6.77652e-12
1.10537e-12
6.15058e-12
1.58378e-12
4.17121e-11
2.5747e-12
9.01829e-12
1.70163e-13
5.05109e-12
2.94425e-13
1.24736e-12
5.06674e-13
9.85483e-13
6.23431e-13
6.71199e-13
6.88872e-13
5.86614e-13
9.76395e-13
6.52145e-13
4.65104e-13
0
5.66796e-13
0
9.0041e-13
0
1.08589e-12
0
1.06961e-12
0
9.35631e-13
0
5.44051e-13
0
1.53803e-13
0
5.58477e-14
0
1.44739e-13
5.97574e-15
4.6298e-12
2.46038e-13
3.03647e-11
1.60389e-10
-8.12592e-12
5.92974e-10
-5.87715e-12
3.45557e-11
-1.51713e-12
3.3066e-11
-6.68813e-13
6.60745e-12
-1.81722e-13
3.52114e-12
-5.64926e-14
8.7303e-13
-1.51134e-14
6.54424e-13
-3.53015e-16
3.15169e-13
0
6.75179e-14
1.36368e-17
2.04507e-14
8.42505e-18
5.95611e-15
2.32248e-17
1.83372e-15
3.1445e-17
1.08812e-15
3.38396e-17
9.74669e-16
2.68942e-17
7.59047e-16
1.83854e-17
5.08199e-16
1.16778e-17
3.09993e-16
6.7222e-18
1.74415e-16
2.75819e-18
8.12268e-17
1.52991e-17
-4.80365e-27
-2.75965e-25
-2.29752e-26
-1.31575e-24
1.29765e-23
4.73061e-22
9.13223e-22
2.93015e-20
3.64273e-20
1.21655e-18
4.00137e-18
2.95648e-17
8.4036e-16
1.4926e-15
3.32765e-14
8.39568e-14
2.62509e-13
1.29463e-12
5.55094e-13
1.40371e-11
9.03931e-13
1.17609e-10
4.87676e-13
2.32939e-11
2.17864e-13
1.6251e-11
2.79394e-13
1.13705e-12
4.60149e-13
8.05238e-13
8.07497e-13
7.06431e-13
1.33699e-12
2.92562e-12
3.21769e-13
9.47259e-13
4.91626e-15
1.65078e-14
4.71275e-14
6.72211e-15
8.83631e-14
0
1.18664e-13
0
1.22505e-13
0
1.08048e-13
0
6.34879e-14
0
2.3755e-14
4.09055e-15
1.88684e-14
0
7.63459e-14
6.48824e-15
4.25746e-12
2.2719e-13
2.78595e-11
1.64932e-10
-1.18626e-11
5.41523e-10
-3.07552e-12
8.14487e-11
-7.22928e-13
1.13806e-11
-4.64331e-13
8.17697e-12
-9.63895e-14
4.69838e-12
-2.12562e-14
7.19735e-13
-4.71459e-15
4.59917e-13
0
1.47437e-13
0
7.35813e-14
0
9.93039e-15
2.06185e-17
4.09091e-15
2.09768e-17
1.53359e-15
2.5242e-17
1.09187e-15
2.57908e-17
9.67993e-16
1.96752e-17
7.26913e-16
1.33191e-17
4.80923e-16
8.43865e-18
2.91772e-16
4.7773e-18
1.62336e-16
1.81978e-18
7.22828e-17
1.17971e-17
-2.90061e-27
-1.52556e-25
1.73669e-25
5.41529e-24
1.98989e-23
5.1859e-22
1.19666e-21
3.19059e-20
5.81363e-20
1.42811e-18
6.51958e-18
3.32687e-17
6.90179e-16
1.84677e-15
1.51578e-14
5.90527e-14
3.59968e-13
8.89461e-13
4.22887e-12
3.61268e-11
1.22334e-11
5.10606e-10
2.66123e-13
4.41285e-11
1.4051e-12
4.00256e-11
3.07403e-13
1.1015e-12
4.57989e-13
6.57881e-13
1.46508e-12
9.50535e-13
2.14399e-12
2.80788e-12
4.63542e-14
6.50562e-13
1.23379e-14
1.52717e-14
9.64939e-15
3.86576e-15
1.35564e-14
6.41991e-15
1.74601e-14
7.16517e-15
1.80397e-14
8.13572e-15
1.63367e-14
8.96975e-15
1.10209e-14
9.50787e-15
7.76321e-15
9.83879e-15
1.25796e-14
8.90262e-15
5.94255e-14
9.53111e-15
3.65226e-12
2.14403e-13
1.90413e-11
1.33283e-10
-1.60122e-13
6.12812e-10
-2.80979e-12
5.92113e-10
-4.30598e-13
1.03622e-11
-2.04813e-13
1.52109e-11
-2.87808e-14
2.72439e-12
-3.33484e-15
8.69863e-13
6.91279e-16
6.16734e-13
0
8.56527e-14
3.75088e-16
6.22145e-14
0
7.39001e-15
2.47046e-17
2.57681e-15
2.03618e-17
1.22216e-15
2.19238e-17
1.08171e-15
2.08701e-17
9.56675e-16
1.49292e-17
7.03976e-16
9.98804e-18
4.63473e-16
6.24692e-18
2.79899e-16
3.44871e-18
1.53689e-16
1.20869e-18
6.51527e-17
9.26818e-18
-1.14429e-27
-5.57231e-26
2.31729e-25
5.6064e-24
1.99307e-23
4.7936e-22
1.38731e-21
3.38085e-20
6.57458e-20
1.43589e-18
4.82432e-18
3.38516e-17
3.25566e-16
1.58768e-15
8.42888e-15
1.9695e-14
5.40615e-13
4.43381e-13
6.60637e-12
7.48917e-11
2.13592e-11
5.15811e-10
2.05298e-12
2.86807e-10
1.11623e-13
3.25119e-11
3.50753e-13
1.03673e-12
4.75365e-13
5.57853e-13
1.73781e-12
3.4789e-12
2.69769e-12
1.57234e-12
1.52601e-14
2.45796e-13
1.0277e-14
9.24684e-15
8.10428e-15
6.02291e-15
8.71305e-15
6.05942e-15
8.76778e-15
7.12549e-15
8.68885e-15
8.23558e-15
8.4084e-15
9.15788e-15
7.93529e-15
9.75186e-15
7.64588e-15
1.07446e-14
8.7278e-15
1.12302e-14
3.89115e-14
1.05412e-14
2.04681e-12
1.13315e-13
2.02292e-11
4.73009e-11
4.28047e-11
6.30244e-10
1.18757e-11
8.05084e-10
0
2.46954e-11
8.2346e-14
1.66412e-11
0
1.88345e-12
0
1.24884e-12
4.34034e-15
5.34899e-13
0
5.46634e-14
4.25095e-16
2.07549e-14
0
7.508e-15
1.78544e-17
1.83932e-15
2.01999e-17
1.08751e-15
1.99891e-17
1.04214e-15
1.73697e-17
9.43089e-16
1.16366e-17
6.9569e-16
7.53467e-18
4.5656e-16
4.60063e-18
2.7475e-16
2.45369e-18
1.48614e-16
7.84336e-19
5.98172e-17
7.3833e-18
5.37928e-28
4.56098e-26
2.27299e-25
5.15786e-24
2.50058e-23
6.32854e-22
1.6519e-21
3.85273e-20
6.7907e-20
1.36195e-18
2.91878e-18
3.42779e-17
1.34955e-16
1.19411e-15
3.54491e-15
7.33532e-15
3.18109e-13
1.60837e-13
7.82091e-12
1.57187e-10
2.94965e-11
5.11921e-10
1.35709e-11
2.91147e-10
2.08963e-12
2.75821e-11
1.57798e-13
1.04874e-12
2.22446e-12
1.48655e-12
3.94333e-12
4.79279e-12
7.28588e-14
1.04415e-12
0
9.78917e-15
6.6166e-15
4.09804e-15
8.54895e-15
5.74562e-15
8.61341e-15
6.03786e-15
8.65226e-15
7.17869e-15
8.63039e-15
8.32627e-15
8.51096e-15
9.35671e-15
8.22503e-15
9.96351e-15
7.6849e-15
1.11251e-14
7.45399e-15
1.2045e-14
2.53745e-14
1.24009e-14
9.64157e-13
5.00325e-14
4.10997e-11
9.43348e-12
6.86009e-11
2.75415e-10
3.98058e-11
8.32409e-10
0
3.15475e-10
0
5.70753e-12
0
1.90513e-12
7.05663e-15
1.09968e-12
0
2.30002e-13
0
6.58695e-14
3.21051e-17
9.29275e-15
5.14121e-17
7.70491e-15
1.60721e-17
1.52085e-15
1.87442e-17
1.07529e-15
1.67384e-17
1.0094e-15
1.38592e-17
9.3648e-16
8.50121e-18
6.95903e-16
5.18126e-18
4.56385e-16
3.03324e-18
2.74283e-16
1.54179e-18
1.46831e-16
4.4475e-19
5.56525e-17
5.83308e-18
3.67063e-27
1.04694e-25
3.99986e-25
1.16169e-23
6.06649e-23
1.78691e-21
2.10235e-21
4.83758e-20
6.93198e-20
1.3447e-18
2.16767e-18
2.97067e-17
7.97094e-17
8.49912e-16
2.22895e-15
6.07031e-15
2.15321e-13
9.72184e-14
1.54708e-11
2.11758e-10
2.66033e-11
5.13795e-10
2.50128e-11
2.8801e-10
4.45358e-12
1.69597e-11
5.14297e-13
1.02284e-12
3.50027e-12
5.43466e-12
4.82161e-12
2.44751e-12
2.91674e-14
2.72852e-13
1.14482e-14
9.26843e-15
8.68655e-15
6.61568e-15
8.71555e-15
5.76914e-15
8.95878e-15
5.89117e-15
9.15943e-15
7.06028e-15
9.27611e-15
8.23579e-15
9.26369e-15
9.49764e-15
9.10263e-15
1.05678e-14
8.78256e-15
1.17356e-14
8.07051e-15
1.29402e-14
1.41681e-14
1.44131e-14
2.04489e-13
1.92088e-14
1.13831e-11
1.44847e-12
4.04757e-11
9.54082e-11
1.05351e-10
8.71622e-10
1.68834e-11
1.03409e-09
0
1.50635e-11
4.59689e-14
4.53704e-12
0
3.2174e-13
0
1.70111e-13
5.37566e-16
1.0168e-13
1.63742e-17
9.54864e-15
9.47778e-17
5.99107e-15
1.77463e-17
1.31486e-15
1.547e-17
1.07082e-15
1.18178e-17
1.01053e-15
8.38202e-18
9.38037e-16
4.25846e-18
6.98635e-16
2.13853e-18
4.58996e-16
1.05577e-18
2.76158e-16
4.60754e-19
1.4643e-16
1.0644e-19
5.15016e-17
4.40444e-18
5.8979e-27
1.45567e-25
1.86537e-24
5.9825e-23
1.42636e-22
3.94004e-21
2.83197e-21
6.4444e-20
7.2009e-20
1.34723e-18
1.83335e-18
2.49951e-17
6.15617e-17
6.86005e-16
1.96137e-15
6.23889e-15
1.83334e-13
8.15693e-14
1.93772e-11
1.85115e-10
2.44887e-11
5.11348e-10
2.9667e-11
2.83548e-10
1.2059e-13
1.14022e-11
2.90967e-12
2.1949e-12
5.93687e-12
4.75815e-12
6.23177e-12
2.60316e-12
1.28904e-14
7.11907e-14
1.19325e-14
7.29168e-15
9.02772e-15
1.10608e-14
9.1791e-15
5.95106e-15
9.59156e-15
5.58761e-15
9.95564e-15
6.71089e-15
1.02083e-14
8.17184e-15
1.02934e-14
9.43338e-15
1.01629e-14
1.07738e-14
1.07924e-14
1.28182e-14
1.22449e-14
1.43133e-14
1.44344e-14
1.36274e-14
6.64746e-14
1.74419e-14
2.62618e-12
2.75565e-13
5.29305e-11
1.09587e-10
1.24066e-10
9.01313e-10
8.97951e-11
1.07761e-09
0
9.86657e-11
0
2.12331e-12
8.99654e-15
2.70419e-13
0
1.79628e-13
1.31384e-15
9.09523e-14
0
1.22057e-14
2.59159e-17
3.32729e-15
1.49388e-17
1.20806e-15
8.47117e-18
1.07097e-15
3.67978e-18
1.01744e-15
-7.14002e-20
9.42194e-16
-1.99575e-18
7.07149e-16
-2.2122e-18
4.68286e-16
-1.62634e-18
2.83218e-16
-7.44475e-19
1.44608e-16
-1.0193e-19
4.63779e-17
3.09464e-18
9.28934e-27
2.30536e-25
6.37647e-24
1.85773e-22
2.88366e-22
7.54503e-21
3.91292e-21
8.80767e-20
7.36243e-20
1.33349e-18
1.74255e-18
2.1015e-17
7.80241e-17
6.66327e-16
3.47669e-15
9.34412e-15
3.41991e-13
1.47561e-13
2.5376e-11
1.4487e-10
2.97971e-11
5.07893e-10
3.42393e-11
2.81691e-10
0
1.5222e-11
1.35624e-12
7.09734e-12
5.88403e-12
3.69699e-12
9.40062e-13
2.79036e-13
5.12799e-14
1.50054e-14
1.36566e-14
2.67727e-14
3.24266e-13
9.1773e-13
3.20359e-12
2.90751e-12
3.26483e-12
2.74774e-12
9.48767e-13
2.92038e-12
5.39501e-14
9.03205e-13
1.3386e-14
5.02032e-14
1.14576e-14
1.26693e-14
1.15666e-14
1.42927e-14
1.26225e-14
1.67762e-14
1.53807e-14
1.07392e-14
4.17777e-14
1.54715e-14
1.15221e-12
1.36984e-13
1.24236e-10
1.61154e-10
1.49107e-10
9.15271e-10
1.09853e-10
1.13557e-09
3.67733e-12
6.67414e-10
1.85252e-13
5.27076e-12
1.60729e-15
5.30742e-13
2.17198e-15
6.43793e-13
0
3.91524e-14
0
1.28164e-14
6.69597e-18
2.50762e-15
3.25334e-18
1.15585e-15
-3.75978e-18
1.07584e-15
-9.43476e-18
1.02685e-15
-1.25993e-17
9.50283e-16
-1.17287e-17
7.24741e-16
-8.88332e-18
4.87673e-16
-5.38593e-18
2.88812e-16
-2.08912e-18
1.38717e-16
-2.17976e-19
3.94364e-17
1.94559e-18
2.17118e-26
5.89829e-25
1.78217e-23
4.7812e-22
5.60609e-22
1.41942e-20
5.46263e-21
1.23405e-19
7.19232e-20
1.25914e-18
1.59197e-18
1.57173e-17
7.79456e-17
6.73923e-16
2.59248e-15
9.86807e-15
2.00101e-13
8.95786e-14
1.66617e-11
1.43354e-10
3.78663e-11
5.01367e-10
1.02771e-11
7.87224e-11
2.18991e-12
5.80182e-11
4.20235e-12
2.24832e-11
5.40999e-12
3.4999e-12
1.49276e-13
9.58972e-14
1.06247e-13
2.36257e-14
2.69096e-12
6.1773e-13
1.0095e-11
1.58912e-12
9.93411e-12
2.70999e-12
1.00794e-11
2.74945e-12
8.1152e-12
4.96982e-12
3.59832e-12
5.34939e-12
5.34487e-13
4.26831e-12
3.50068e-14
5.08072e-13
1.00913e-14
3.40125e-14
8.14906e-15
2.21291e-14
1.2558e-14
1.44346e-14
4.92001e-14
1.22076e-14
1.41756e-12
1.67079e-13
1.98318e-10
4.88573e-10
1.72194e-10
9.59733e-10
1.32721e-10
1.19043e-09
6.08308e-12
7.16418e-10
0
8.72134e-12
2.20517e-15
9.49477e-13
7.69447e-15
1.01981e-12
0
2.74254e-14
7.99237e-18
8.73057e-15
-8.70576e-18
2.59519e-15
-1.53769e-17
1.14871e-15
-2.20957e-17
1.08451e-15
-2.84434e-17
1.03652e-15
-3.05552e-17
9.62147e-16
-2.59539e-17
7.47423e-16
-1.81146e-17
4.96582e-16
-1.00898e-17
2.85038e-16
-3.38069e-18
1.2592e-16
-2.55475e-19
3.05235e-17
1.03774e-18
7.11966e-26
1.9407e-24
4.19198e-23
1.04405e-21
1.02681e-21
2.50959e-20
7.79361e-21
1.79348e-19
6.46089e-20
1.14049e-18
1.12347e-18
7.73662e-18
7.21194e-17
6.98427e-16
2.14996e-15
8.72661e-15
1.54148e-13
7.00766e-14
9.2894e-12
1.32118e-10
3.96668e-11
4.90561e-10
2.37338e-12
1.70622e-11
1.21034e-11
6.52117e-11
8.83763e-12
1.87406e-11
3.28868e-12
5.91625e-13
2.52383e-13
7.27111e-14
2.49981e-12
3.45574e-13
8.6321e-12
2.77466e-13
9.43868e-12
4.20257e-13
1.06793e-11
1.5646e-12
1.15025e-11
1.81024e-12
1.22633e-11
4.30393e-12
1.21185e-11
5.56332e-12
7.13833e-12
7.56172e-12
1.20841e-12
5.36727e-12
1.4946e-14
1.18267e-12
2.04927e-14
2.99848e-14
7.14818e-15
1.021e-14
9.85814e-15
1.24242e-14
1.42631e-11
1.65997e-12
1.92165e-10
5.37815e-10
1.85135e-10
1.02388e-09
2.04872e-11
7.63035e-10
5.61571e-13
3.17306e-10
0
7.91083e-12
0
7.82116e-13
3.80892e-15
9.03687e-13
-1.0203e-16
5.49434e-14
-9.2601e-17
2.97323e-15
-3.88131e-17
3.04372e-15
-4.15695e-17
1.15703e-15
-4.68728e-17
1.09446e-15
-5.37634e-17
1.04786e-15
-5.5125e-17
9.79051e-16
-4.43764e-17
7.60497e-16
-2.93052e-17
4.91516e-16
-1.47744e-17
2.66088e-16
-4.12634e-18
1.03981e-16
-2.10567e-19
2.07398e-17
4.48963e-19
2.11496e-25
5.46236e-24
8.53814e-23
1.985e-21
1.7485e-21
4.10525e-20
1.11401e-20
2.61654e-19
5.6106e-20
1.11215e-18
7.83104e-19
3.26641e-18
9.36732e-17
8.16212e-16
3.804e-15
9.5694e-15
3.75571e-13
1.59429e-13
1.38602e-11
8.82508e-11
3.48191e-11
3.48699e-10
0
5.26801e-11
1.65432e-11
6.08843e-11
2.18376e-12
3.32716e-12
7.61437e-13
3.95678e-13
3.8791e-13
8.1476e-14
5.65894e-12
1.45709e-13
7.79952e-12
-5.51219e-13
5.09839e-12
-3.61559e-13
1.87844e-12
3.98469e-14
3.3767e-12
1.4103e-13
1.12942e-11
3.08317e-13
1.35704e-11
3.42226e-12
1.42834e-11
7.50098e-12
1.14859e-11
8.45231e-12
3.09863e-13
5.30889e-12
4.62692e-14
2.23769e-13
2.08665e-14
2.93368e-14
7.72711e-14
1.72579e-14
4.19141e-12
5.15265e-13
1.73314e-10
3.79268e-10
2.16134e-10
1.10475e-09
9.15721e-12
9.69138e-10
0
8.10452e-11
0
6.03058e-12
0
4.05983e-13
-1.57027e-15
8.66179e-13
-9.30669e-16
9.47242e-14
-2.14433e-16
2.58721e-15
-6.04911e-17
3.25294e-15
-7.44068e-17
1.1698e-15
-7.85624e-17
1.10409e-15
-8.59885e-17
1.06625e-15
-8.55851e-17
1.00611e-15
-6.57321e-17
7.58613e-16
-4.02718e-17
4.63636e-16
-1.76063e-17
2.27839e-16
-3.93937e-18
7.52972e-17
-1.25185e-19
1.19713e-17
1.47883e-19
5.77972e-25
1.44245e-23
1.51976e-22
3.30393e-21
2.73143e-21
6.12708e-20
1.54839e-20
3.69001e-19
5.25983e-20
1.1749e-18
9.09069e-19
2.72973e-18
1.31063e-16
1.07307e-15
6.36912e-15
1.22276e-14
7.17525e-13
2.91532e-13
7.19438e-12
6.78539e-11
1.36098e-11
6.69569e-11
5.62415e-12
4.27095e-11
1.71446e-11
6.23773e-11
1.20027e-12
7.86134e-13
1.02652e-12
7.22686e-13
1.98833e-12
7.03378e-13
6.13048e-12
-4.67716e-13
4.13998e-12
-7.93476e-13
3.08086e-13
-7.88713e-14
8.8872e-14
-5.55746e-14
9.99615e-14
0
3.07249e-13
1.05644e-14
4.61524e-12
3.8737e-14
1.50177e-11
3.55434e-13
7.29606e-12
3.52567e-12
1.27656e-13
3.30901e-12
1.93442e-14
2.63487e-13
3.07261e-14
3.1763e-14
5.42111e-15
1.03542e-14
9.60163e-13
1.3619e-13
1.81102e-10
4.27779e-10
2.08053e-10
1.18226e-09
5.11653e-11
1.40223e-09
0
7.45752e-11
0
1.11006e-11
-2.2114e-14
1.77032e-13
-2.11159e-14
3.67166e-13
-1.08359e-15
1.36991e-13
-3.3188e-16
1.98032e-15
-1.10422e-16
2.46836e-15
-1.14254e-16
1.17984e-15
-1.19092e-16
1.11747e-15
-1.27174e-16
1.11079e-15
-1.22079e-16
1.03722e-15
-8.63295e-17
7.30596e-16
-4.69661e-17
4.01559e-16
-1.69843e-17
1.72067e-16
-2.9448e-18
4.61909e-17
-5.08344e-20
5.69922e-18
3.4734e-20
1.60792e-24
3.88097e-23
2.37092e-22
4.82826e-21
3.88176e-21
8.26431e-20
2.0613e-20
4.94214e-19
5.46017e-20
1.31808e-18
1.30718e-18
2.68826e-18
1.60492e-16
1.30751e-15
6.07413e-15
1.86535e-14
6.60179e-13
2.7345e-13
7.24234e-12
1.21529e-10
6.8982e-12
2.11276e-10
6.87685e-12
1.82398e-10
7.19084e-12
1.33423e-11
8.86297e-15
1.75299e-12
1.79242e-12
1.65103e-12
4.53661e-12
8.801e-13
4.40367e-12
-9.41073e-13
5.11925e-13
-1.97127e-13
2.79886e-13
-3.50974e-13
3.73676e-13
-2.75629e-13
1.35416e-13
-2.83451e-14
5.67807e-14
7.03588e-15
7.41955e-14
8.67248e-15
3.95005e-13
3.21359e-14
1.50913e-12
7.01828e-14
1.37455e-12
1.63264e-13
2.98572e-14
4.33041e-13
1.70327e-14
3.50278e-14
2.80266e-14
1.64684e-14
1.04384e-12
1.67692e-13
2.44284e-10
8.58976e-10
1.77207e-10
1.27467e-09
9.61178e-11
1.49083e-09
0
7.99917e-11
-1.05816e-13
2.52975e-11
-2.12458e-14
1.17042e-13
-2.00502e-14
4.25195e-14
-7.11079e-16
1.44597e-13
-3.33867e-16
1.65012e-15
-1.49715e-16
1.49363e-15
-1.55864e-16
1.19305e-15
-1.73165e-16
1.16749e-15
-1.82491e-16
1.16354e-15
-1.61105e-16
1.05352e-15
-9.85641e-17
6.56568e-16
-4.53548e-17
3.04771e-16
-1.30475e-17
1.09988e-16
-1.71672e-18
2.32753e-17
-1.55276e-20
2.19298e-18
7.41773e-21
4.04884e-24
9.0399e-23
3.26438e-22
6.25307e-21
4.97377e-21
9.91584e-20
2.59952e-20
6.15136e-19
5.93964e-20
1.54866e-18
2.3905e-18
2.89628e-18
2.06403e-16
1.57256e-15
4.21336e-15
3.69894e-14
2.96717e-13
1.35656e-13
2.21482e-11
1.63704e-10
2.8024e-11
4.43608e-10
1.42236e-11
2.7037e-10
2.76651e-12
2.06111e-11
2.08011e-12
1.54933e-12
2.57377e-12
1.14252e-12
5.12782e-12
6.90902e-13
1.05182e-12
-3.21789e-13
2.04951e-13