/*--------------------------------*- C++ -*----------------------------------*\
  =========                 |
  \\      /  F ield         | OpenFOAM: The Open Source CFD Toolbox
   \\    /   O peration     | Website:  https://openfoam.org
    \\  /    A nd           | Version:  9
     \\/     M anipulation  |
\*---------------------------------------------------------------------------*/
FoamFile
{
    format      ascii;
    class       volScalarField;
    location    "0.16";
    object      alpha.water;
}
// * * * * * * * * * * * * * * * * * * * * * * * * * * * * * * * * * * * * * //

dimensions      [0 0 0 0 0 0 0];

internalField   nonuniform List<scalar> 
5000
(
-6.93422e-20
4.56209e-18
1.21487e-16
3.16841e-15
6.38191e-14
1.32489e-12
2.87163e-11
7.50439e-10
2.48274e-08
1.70741e-06
4.9906e-05
2.30416e-05
0.0343782
0.774297
0.999974
0.999999
1
1
1
1
1
1
1
1
1
1
1
0.999996
0.999994
0.858133
0.123328
0.000322187
0.000156408
4.74118e-05
7.57191e-06
1.20473e-06
2.5391e-07
5.75834e-08
1.39833e-08
3.52829e-09
8.52729e-10
2.30274e-10
1.58262e-10
1.21582e-10
8.32833e-11
4.89603e-11
2.53531e-11
1.16471e-11
4.85046e-12
1.06271e-12
-6.12984e-20
1.84469e-18
6.18238e-17
1.7733e-15
4.39473e-14
8.79929e-13
2.06979e-11
4.30127e-10
2.78673e-08
2.92537e-06
4.8113e-05
9.07024e-06
0.00164569
0.674912
0.999959
0.999999
1
1
1
1
1
1
1
1
1
1
1
0.999993
0.999991
0.799611
0.0772161
0.00038239
0.00027499
4.79078e-05
9.83878e-06
1.73579e-06
3.39569e-07
7.58787e-08
1.84364e-08
4.72525e-09
1.19369e-09
2.47044e-10
1.73923e-10
1.43164e-10
1.02583e-10
6.28002e-11
3.42359e-11
1.67633e-11
7.69814e-12
1.96328e-12
-5.04744e-20
8.40245e-19
3.23359e-17
1.40838e-15
3.96606e-14
6.8696e-13
1.38059e-11
4.43614e-10
4.76894e-08
3.38032e-06
1.98602e-05
6.1189e-06
9.08931e-06
0.482678
0.998392
0.999999
1
1
1
1
1
1
1
1
1
1
0.999999
0.999985
0.999984
0.641708
0.00710527
0.000338251
0.000382305
5.14073e-05
9.46632e-06
2.22515e-06
4.55269e-07
1.03717e-07
2.48298e-08
6.32889e-09
1.65589e-09
2.93845e-10
1.87419e-10
1.59836e-10
1.18806e-10
7.56598e-11
4.31249e-11
2.23119e-11
1.10924e-11
3.26042e-12
-3.69461e-20
4.82044e-19
3.82057e-17
1.84359e-15
5.0055e-14
6.50125e-13
1.81191e-11
8.14985e-10
7.26891e-08
2.48168e-06
2.05473e-06
4.39459e-06
6.11628e-06
0.260201
0.956846
0.999993
1
1
1
1
1
1
1
1
1
1
0.999997
0.999997
0.977539
0.352325
0.00038893
0.000288583
0.000289661
6.4349e-05
7.52663e-06
2.32864e-06
5.20087e-07
1.23042e-07
3.00805e-08
7.665e-09
1.99332e-09
3.68116e-10
2.01847e-10
1.74097e-10
1.33025e-10
8.8049e-11
5.24739e-11
2.86849e-11
1.52931e-11
5.01e-12
-2.44849e-20
6.44229e-19
4.17816e-17
2.02169e-15
5.60192e-14
6.99593e-13
2.86049e-11
1.25856e-09
5.60018e-08
1.44913e-06
1.74488e-06
6.87887e-06
6.70933e-06
0.0500212
0.847991
0.999967
0.999999
1
1
1
1
1
1
1
1
0.999998
0.999984
0.999988
0.772791
0.06878
0.000264907
0.000315213
0.000190512
6.79941e-05
5.25194e-06
2.20839e-06
5.17814e-07
1.24447e-07
3.09142e-08
7.8808e-09
2.03131e-09
3.98419e-10
2.12705e-10
1.87625e-10
1.46827e-10
1.00751e-10
6.29012e-11
3.63483e-11
2.05238e-11
7.16656e-12
-1.70641e-20
5.0937e-19
3.48993e-17
1.80475e-15
5.56983e-14
7.26586e-13
3.86016e-11
1.33874e-09
5.68455e-09
2.0474e-06
3.08317e-05
1.19783e-05
6.26609e-06
-3.45424e-07
0.508661
0.999247
0.999997
1
1
1
0.999999
0.999998
0.999997
0.999996
0.999994
0.999984
0.999983
0.899925
0.25918
0.000450521
0.000172855
0.000318708
0.000225694
6.20784e-05
5.10186e-06
1.81994e-06
4.78482e-07
1.17611e-07
2.95209e-08
7.518e-09
1.93077e-09
3.88657e-10
2.17146e-10
1.97684e-10
1.59345e-10
1.14122e-10
7.45531e-11
4.5156e-11
2.64542e-11
9.48213e-12
-1.32631e-20
2.34715e-19
2.29062e-17
1.36232e-15
5.17422e-14
6.68453e-13
3.53164e-11
9.70505e-10
6.91067e-10
2.9712e-06
4.3154e-05
1.06648e-05
5.92857e-06
6.26121e-06
0.0546644
0.704951
0.999882
0.999997
1
0.999994
0.99999
0.999982
0.999959
0.999944
0.999964
0.999983
0.919565
0.342304
0.00130845
0.000172855
0.00014824
0.000141782
0.000240893
8.41981e-05
4.56867e-06
1.42605e-06
3.90772e-07
1.00009e-07
2.57288e-08
6.56676e-09
1.71192e-09
3.62863e-10
2.14388e-10
1.99749e-10
1.69112e-10
1.27332e-10
8.70494e-11
5.47923e-11
3.30398e-11
1.15443e-11
-1.15315e-20
1.25534e-19
1.46704e-17
9.33432e-16
4.28258e-14
4.79285e-13
2.50965e-11
4.35875e-10
3.65041e-10
4.5767e-06
4.2981e-05
7.51814e-06
5.69178e-06
3.27586e-06
3.39836e-05
0.116775
0.722137
0.999879
0.999997
0.999994
0.999994
0.999994
0.999988
0.999858
0.999645
0.803916
0.285125
0.000890762
0.000156775
0.000723532
0.000311842
0.000128333
0.000240361
8.75669e-05
3.54155e-06
1.14732e-06
3.34984e-07
8.074e-08
2.11305e-08
5.61666e-09
1.54794e-09
3.48956e-10
2.00648e-10
1.9897e-10
1.76418e-10
1.39846e-10
1.0019e-10
6.45218e-11
3.85228e-11
1.30675e-11
-8.61643e-21
1.11174e-19
7.70502e-18
5.73279e-16
2.83309e-14
3.2346e-13
1.42718e-11
2.09351e-10
2.42346e-10
4.88615e-06
4.27654e-05
6.06463e-06
5.59895e-06
1.13849e-06
4.15677e-06
9.00392e-05
0.0893933
0.51799
0.839182
0.94124
0.964768
0.952302
0.900083
0.773317
0.510755
0.137892
0.000156885
7.63072e-06
0.00014659
0.000726541
0.000703192
0.000126783
0.000204226
8.18177e-05
1.84876e-06
1.08864e-06
3.06355e-07
7.79249e-08
2.00242e-08
5.71382e-09
1.61029e-09
3.70878e-10
1.9869e-10
1.98013e-10
1.82355e-10
1.51036e-10
1.08192e-10
6.79595e-11
3.89078e-11
1.28642e-11
-6.85547e-21
8.02218e-20
4.92733e-18
2.70517e-16
1.13046e-14
2.23736e-13
9.43891e-12
1.70144e-10
1.89582e-10
4.35262e-06
4.28365e-05
1.3035e-05
5.36308e-06
8.17445e-07
1.40687e-06
2.4501e-05
9.49308e-05
0.00837143
0.115755
0.237598
0.305394
0.293744
0.223774
0.113067
0.0140517
0.00024153
0.000210462
2.10555e-06
6.26735e-06
0.000544943
0.000717338
0.000294861
2.83036e-05
7.88058e-05
2.1454e-06
1.92233e-06
2.55578e-07
8.43145e-08
2.19297e-08
6.40835e-09
1.83984e-09
4.26415e-10
1.99376e-10
1.98685e-10
1.89128e-10
1.55165e-10
1.07698e-10
6.69868e-11
3.7865e-11
1.20253e-11
-9.73092e-21
-4.24648e-20
1.23462e-18
1.77169e-16
1.02005e-14
2.73703e-13
1.00659e-11
2.12696e-10
2.3092e-10
1.37965e-05
4.27817e-05
3.19055e-05
5.16949e-06
6.9909e-07
7.12766e-07
4.4166e-06
2.21673e-05
2.17785e-05
5.49949e-05
0.000102657
0.000134162
0.000143591
0.000184557
0.000134275
0.000175659
0.000187574
3.96097e-05
3.69748e-07
4.99231e-07
0.000166443
0.000717338
0.000596932
5.45144e-06
1.92343e-05
3.20754e-06
2.50859e-06
1.73026e-07
8.85175e-08
2.45958e-08
6.8543e-09
1.96103e-09
4.68759e-10
2.02474e-10
2.03452e-10
1.95189e-10
1.53947e-10
1.04682e-10
6.43876e-11
3.57016e-11
1.06183e-11
-1.89062e-20
-3.10405e-19
-5.33921e-18
5.5055e-17
7.55063e-15
2.44813e-13
1.25806e-11
1.29334e-11
2.35755e-07
2.84399e-05
3.49529e-05
3.28462e-05
4.76538e-06
6.79905e-07
6.74897e-07
8.00923e-07
2.72117e-06
1.03649e-05
2.94802e-05
6.32736e-05
9.01803e-05
0.000104559
0.000112271
0.000100431
7.13631e-05
2.55014e-05
1.99268e-06
3.20222e-07
4.10601e-07
2.94801e-05
0.000300502
0.000360517
3.94127e-06
2.35516e-06
4.57547e-06
1.87463e-06
1.74542e-07
8.26202e-08
2.38607e-08
6.8055e-09
1.90411e-09
4.67879e-10
2.09982e-10
2.13777e-10
1.95485e-10
1.49589e-10
9.96277e-11
6.04518e-11
3.25007e-11
8.75319e-12
-2.54912e-20
-4.48079e-19
-5.78532e-18
2.75107e-16
1.33048e-14
4.26603e-13
1.35091e-11
1.41192e-11
6.61575e-07
1.24338e-05
4.00192e-06
3.00733e-05
2.42225e-06
6.76302e-07
6.74959e-07
6.7522e-07
6.766e-07
1.77264e-06
2.20878e-06
2.7945e-06
3.5715e-06
5.07362e-06
5.71361e-06
6.55049e-06
4.48579e-06
2.67843e-06
1.16549e-06
2.27858e-07
2.82915e-07
4.84908e-05
5.96921e-05
1.44314e-05
7.14132e-06
1.59652e-06
3.11428e-06
6.99553e-07
2.54555e-07
7.3254e-08
1.86228e-08
6.59813e-09
1.70997e-09
4.48416e-10
2.21875e-10
2.22945e-10
1.93381e-10
1.42613e-10
9.28003e-11
5.56682e-11
2.89709e-11
6.91787e-12
-2.42078e-20
-3.52727e-19
8.37203e-19
5.82286e-16
1.8415e-14
4.8737e-13
1.68448e-11
5.12231e-09
6.67031e-07
5.30861e-07
1.67216e-06
1.21457e-05
1.19146e-06
6.75143e-07
6.75144e-07
6.75226e-07
6.75389e-07
9.38589e-07
3.72884e-07
3.83309e-07
5.72538e-07
7.82167e-07
9.26687e-07
9.49941e-07
7.7396e-07
4.09718e-07
1.12793e-07
1.10517e-07
7.46278e-08
0.000102605
0.000234451
1.16572e-05
1.27255e-05
1.45247e-06
1.26496e-06
1.6783e-07
2.33873e-07
6.8126e-08
1.19685e-08
5.36171e-09
1.41474e-09
4.10258e-10
2.335e-10
2.25899e-10
1.88409e-10
1.3414e-10
8.61782e-11
5.11858e-11
2.56259e-11
5.32929e-12
-1.66987e-20
-7.92892e-20
2.10516e-17
1.51647e-15
5.58139e-14
1.37474e-12
4.9347e-11
4.64905e-09
2.66596e-07
3.0992e-07
8.27687e-07
1.59023e-06
1.50096e-06
6.76301e-07
6.75064e-07
6.75146e-07
1.55722e-06
1.19765e-06
5.05102e-08
3.55824e-08
5.77994e-08
8.62601e-08
1.11787e-07
1.10055e-07
8.58206e-08
5.04891e-08
1.95657e-08
2.6677e-08
2.48061e-08
0.000126546
0.000297297
1.15825e-05
5.5621e-06
1.31059e-06
1.21797e-06
1.09872e-07
1.00301e-07
4.72833e-08
1.33484e-08
2.94012e-09
1.06407e-09
3.5762e-10
2.40948e-10
2.25183e-10
1.81096e-10
1.2636e-10
8.06097e-11
4.74046e-11
2.27397e-11
4.0937e-12
-9.231e-21
2.59595e-19
3.19749e-17
1.84076e-15
8.30501e-14
1.88162e-12
1.04415e-10
4.57957e-09
7.91316e-09
1.24965e-06
2.705e-05
2.48836e-06
6.37102e-06
7.03939e-07
6.75146e-07
6.7541e-07
3.95499e-06
1.79428e-06
1.03706e-08
9.51545e-09
1.10508e-08
1.43404e-08
1.71624e-08
1.74544e-08
1.38639e-08
9.19849e-09
9.78681e-09
1.49796e-08
1.50945e-08
0.000114833
0.000297297
8.04298e-05
2.60242e-06
2.2372e-06
8.15727e-07
1.26443e-07
1.09159e-07
1.43889e-08
1.51091e-08
1.36493e-09
6.89737e-10
2.889e-10
2.40247e-10
2.23295e-10
1.74124e-10
1.20492e-10
7.65303e-11
4.44897e-11
2.03635e-11
3.19119e-12
-3.37185e-21
3.43184e-19
2.91518e-17
1.94889e-15
8.62487e-14
1.94532e-12
9.79908e-11
2.37065e-09
1.7693e-09
2.73936e-06
4.51433e-05
2.15921e-05
1.1112e-05
6.77311e-07
6.7541e-07
1.5926e-06
4.01509e-06
1.24423e-06
9.50487e-09
9.16918e-09
9.12366e-09
9.12192e-09
9.12231e-09
9.12781e-09
9.13581e-09
9.13399e-09
9.14989e-09
1.1183e-08
1.15198e-08
6.34087e-05
0.000297297
0.000267248
3.21569e-06
4.17354e-06
4.86955e-07
2.38994e-07
1.13572e-07
9.10805e-09
9.61437e-09
1.37926e-09
4.35033e-10
2.36721e-10
2.34584e-10
2.20495e-10
1.70096e-10
1.17234e-10
7.42086e-11
4.25929e-11
1.85369e-11
2.536e-12
4.9747e-22
3.1334e-19
3.3286e-17
2.144e-15
8.28068e-14
2.01544e-12
8.01604e-11
6.75479e-10
7.96531e-10
5.49275e-06
4.56044e-05
4.60244e-05
1.11014e-05
7.25083e-07
7.15557e-07
8.18335e-06
4.02779e-06
1.70221e-08
9.22108e-09
9.12372e-09
9.12016e-09
9.11769e-09
9.11642e-09
9.1185e-09
9.12803e-09
9.13414e-09
9.13407e-09
9.7107e-09
9.7652e-09
4.89586e-06
0.000242279
0.000309349
1.64726e-05
1.38212e-06
2.61611e-07
2.38175e-07
7.73987e-08
9.26173e-09
2.43951e-09
1.50651e-09
3.34581e-10
2.23181e-10
2.25081e-10
2.17601e-10
1.69064e-10
1.16374e-10
7.35084e-11
4.15306e-11
1.71864e-11
2.02921e-12
4.66856e-21
5.04887e-19
7.39627e-17
2.58001e-15
7.98862e-14
1.86369e-12
5.90111e-11
2.88353e-10
4.28367e-10
1.14809e-05
4.58729e-05
4.61606e-05
8.5133e-06
7.84211e-07
3.12882e-06
8.28379e-06
2.31212e-06
9.62284e-09
9.13298e-09
9.12016e-09
9.11769e-09
9.1161e-09
9.1158e-09
9.11613e-09
9.14766e-09
9.13641e-09
9.14172e-09
9.11975e-09
9.32169e-09
1.38911e-08
9.23754e-05
0.000309401
0.000197981
1.17827e-06
9.07765e-07
1.13764e-07
2.36459e-08
1.82048e-08
1.37338e-09
1.37685e-09
2.79603e-10
2.21877e-10
2.21432e-10
2.16362e-10
1.69222e-10
1.16654e-10
7.37699e-11
4.1455e-11
1.59847e-11
1.58522e-12
7.36147e-21
2.15714e-18
1.67995e-16
3.34718e-15
8.01891e-14
1.61541e-12
4.25736e-11
2.98024e-10
3.51532e-10
1.32742e-05
4.6152e-05
4.61772e-05
5.31691e-06
7.9728e-07
8.25873e-06
8.27653e-06
9.79686e-07
9.3592e-09
9.12826e-09
9.11818e-09
9.1161e-09
9.11579e-09
9.1094e-09
9.11508e-09
9.11588e-09
9.17897e-09
9.50612e-09
9.67775e-09
9.87177e-09
1.12441e-08
4.71143e-05
0.000311387
0.000314464
4.46443e-06
4.52951e-07
2.75066e-08
1.80257e-08
1.85742e-08
1.84786e-09
9.05699e-10
2.47167e-10
2.21848e-10
2.21814e-10
2.16413e-10
1.70117e-10
1.17979e-10
7.5008e-11
4.11516e-11
1.46195e-11
1.16775e-12
1.08593e-20
7.11092e-18
3.35341e-16
4.52043e-15
7.99147e-14
1.36965e-12
3.86164e-11
4.25077e-10
4.62877e-10
1.08015e-05
4.61938e-05
4.6157e-05
3.46923e-06
1.23354e-06
8.23111e-06
4.92968e-06
3.59701e-08
1.12899e-08
4.02864e-08
1.92641e-06
3.33998e-06
1.04424e-06
9.10861e-09
9.10861e-09
9.11701e-09
9.15951e-09
9.50565e-09
9.77959e-09
9.7974e-09
9.61589e-09
4.10868e-05
0.00031419
0.000315566
7.5132e-05
8.40092e-08
4.171e-08
3.72816e-08
1.06795e-08
2.40492e-09
4.64629e-10
2.29812e-10
2.21848e-10
2.22637e-10
2.16934e-10
1.72519e-10
1.21453e-10
7.73044e-11
4.00402e-11
1.28009e-11
7.76908e-13
2.38694e-20
1.9481e-17
6.41158e-16
6.25542e-15
7.73538e-14
1.10291e-12
3.90137e-11
5.54774e-10
5.59392e-10
9.50734e-06
4.58545e-05
4.07336e-05
5.4174e-06
6.63014e-06
8.19412e-06
3.23971e-07
4.65896e-08
5.23557e-07
6.53595e-06
8.49863e-06
8.49653e-06
8.4976e-06
6.23005e-06
2.81018e-07
9.15153e-09
9.05713e-09
9.02706e-09
7.21296e-09
6.58292e-09
6.84202e-09
0.000102654
0.000315488
0.000315352
0.000182175
2.59044e-07
1.2135e-07
1.33493e-07
4.03828e-09
2.01335e-09
4.56853e-10
2.23545e-10
2.21968e-10
2.23365e-10
2.18133e-10
1.76715e-10
1.25908e-10
7.68187e-11
3.74017e-11
1.03817e-11
4.46141e-13
7.44828e-20
4.4859e-17
1.16306e-15
8.98418e-15
7.10565e-14
6.72209e-13
4.01862e-11
4.98517e-10
5.03546e-10
1.00654e-05
4.54986e-05
1.11906e-05
2.07412e-05
2.03298e-05
3.98129e-06
3.08126e-07
3.57564e-07
7.42882e-06
8.49873e-06
8.49863e-06
8.49863e-06
8.49797e-06
8.49801e-06
8.42503e-06
2.7674e-06
7.77451e-09
5.38288e-09
5.37365e-09
5.00128e-09
5.39385e-09
0.000196294
0.000314577
0.000263829
0.000132603
1.8351e-07
1.4101e-07
1.65484e-07
6.52155e-09
8.69624e-10
5.51296e-10
2.2242e-10
2.22254e-10
2.24191e-10
2.202e-10
1.8219e-10
1.25221e-10
7.35603e-11
3.24019e-11
7.52047e-12
2.10336e-13
2.15001e-19
8.99434e-17
1.97e-15
1.31403e-14
6.63612e-14
2.58059e-13
4.47488e-11
4.95813e-10
1.66665e-10
8.73497e-06
4.54206e-05
6.55986e-06
2.08139e-05
1.24938e-05
7.9851e-07
3.08126e-07
6.26704e-06
7.54234e-06
6.78999e-06
2.84059e-06
1.2376e-06
3.64206e-06
8.47832e-06
8.4586e-06
8.4586e-06
3.19141e-06
9.98146e-09
4.64967e-09
3.92831e-09
5.47286e-09
0.000162244
0.00031511
0.000193207
3.44398e-05
2.86617e-07
8.77876e-08
1.6094e-07
1.22727e-08
3.13169e-10
5.84056e-10
2.23578e-10
2.22423e-10
2.25586e-10
2.24198e-10
1.81891e-10
1.20653e-10
6.60304e-11
2.50729e-11
4.69277e-12
7.60386e-14
5.74093e-19
1.58198e-16
3.06536e-15
1.88483e-14
6.85695e-14
1.46775e-13
5.63261e-11
5.45706e-10
5.69797e-10
3.67155e-06
1.28685e-05
6.50476e-06
2.0799e-05
2.73109e-06
8.62445e-07
2.4033e-06
6.6511e-06
6.06165e-06
2.95216e-07
5.9661e-08
5.51865e-08
3.77887e-08
5.65504e-07
4.50953e-06
8.05067e-06
3.46992e-06
1.52907e-08
3.7993e-09
3.92832e-09
3.92832e-09
0.000102895
0.000319278
0.000266621
1.12783e-05
1.03222e-06
3.00122e-08
1.48878e-07
1.6923e-08
2.65601e-10
5.24771e-10
2.23523e-10
2.22829e-10
2.30606e-10
2.3007e-10
1.77759e-10
1.09588e-10
5.31503e-11
1.6683e-11
2.43327e-12
1.74449e-14
1.55986e-18
2.44796e-16
4.34022e-15
2.59458e-14
7.50065e-14
1.47847e-13
7.01705e-11
6.88806e-10
7.99573e-10
4.10674e-06
4.78981e-06
6.47944e-06
1.36436e-05
1.51955e-06
1.45001e-06
6.68029e-06
6.65923e-06
3.93701e-07
2.65777e-07
2.89823e-07
1.38405e-07
3.49819e-08
2.45694e-08
5.11543e-08
4.53474e-07
9.35393e-07
2.4748e-07
4.7887e-09
3.92832e-09
4.78932e-09
0.000131279
0.000324112
0.000324537
1.38868e-05
2.7636e-06
8.23289e-09
3.39249e-08
2.8811e-08
2.4994e-10
2.84519e-10
2.23997e-10
2.27687e-10
2.44592e-10
2.36794e-10
1.66327e-10
8.90554e-11
3.69234e-11
9.20364e-12
1.01288e-12
2.27396e-15
3.87739e-18
3.35179e-16
5.54851e-15
3.35245e-14
8.56304e-14
1.50115e-13
8.30839e-11
1.28696e-09
1.22571e-09
9.46048e-06
3.27428e-05
3.67252e-05
7.52867e-06
1.24323e-06
3.56956e-06
6.67917e-06
1.27865e-06
4.02917e-07
6.54671e-07
6.94244e-07
5.48651e-07
4.21212e-08
2.32505e-08
2.28864e-08
2.31904e-08
3.96146e-08
1.11779e-07
1.3672e-08
4.80267e-09
6.6797e-09
0.000289628
0.000325255
0.000325885
1.05844e-05
4.96303e-06
5.45232e-09
3.78067e-09
2.64387e-08
2.38283e-10
2.26791e-10
2.2634e-10
2.41698e-10
2.49151e-10
2.37826e-10
1.40202e-10
6.16166e-11
2.12072e-11
4.06371e-12
3.26075e-13
2.29571e-16
7.48886e-18
4.10978e-16
6.24999e-15
4.00498e-14
1.06154e-13
1.54908e-13
1.08222e-10
2.38962e-09
1.96292e-09
1.12863e-05
3.95261e-05
3.98457e-05
7.75164e-06
1.17885e-06
1.99183e-06
1.67286e-06
2.34948e-07
5.13375e-07
6.58396e-07
6.40319e-07
2.46538e-07
2.28639e-08
2.28465e-08
2.28416e-08
2.28664e-08
6.06035e-08
4.2613e-08
9.90311e-09
6.68006e-09
0.000121505
0.000325278
0.000327654
0.000326009
2.26081e-06
4.69654e-06
3.92539e-09
1.74654e-09
5.62801e-09
2.86733e-10
2.28718e-10
2.29879e-10
2.51392e-10
2.50419e-10
2.2721e-10
9.97011e-11
3.44998e-11
9.72814e-12
1.39022e-12
7.84021e-14
1.03165e-17
1.16863e-17
4.5609e-16
6.40966e-15
4.38055e-14
1.44423e-13
4.71094e-13
1.38208e-10
3.01709e-09
2.56651e-09
7.31345e-06
3.98524e-05
4.00379e-05
6.68763e-06
8.85472e-07
1.87113e-07
1.85984e-07
1.87113e-07
3.18216e-07
2.05703e-07
2.3353e-08
2.28895e-08
2.28465e-08
2.28416e-08
2.2841e-08
2.2841e-08
2.0192e-08
1.61529e-08
1.1751e-08
5.59393e-05
0.000323921
0.000325783
0.000325366
0.000156427
2.08251e-07
8.67719e-07
8.10348e-08
9.18779e-10
5.72323e-10
5.17317e-10
2.30009e-10
2.30811e-10
2.51394e-10
2.51394e-10
1.86354e-10
5.51058e-11
1.5192e-11
3.4695e-12
3.57465e-13
1.28758e-14
-9.46909e-20
1.51775e-17
4.65952e-16
6.31961e-15
4.42727e-14
1.976e-13
2.64828e-12
1.6803e-10
2.3408e-09
5.13005e-09
1.17878e-06
3.99814e-05
4.01254e-05
7.60196e-06
1.34036e-06
1.85984e-07
1.85984e-07
4.36125e-07
1.09665e-06
7.39778e-07
6.53798e-08
2.32673e-08
2.30648e-08
2.2846e-08
2.28406e-08
2.2843e-08
7.90453e-07
2.10385e-08
2.04326e-05
0.000303536
0.000325152
0.00032514
0.000324121
6.19856e-06
6.85878e-08
7.45624e-08
9.00618e-08
7.08517e-10
8.46365e-10
9.81294e-10
2.27509e-10
2.30131e-10
2.51389e-10
2.37388e-10
1.10562e-10
2.2637e-11
5.27463e-12
9.3929e-13
6.59517e-14
1.52843e-15
-2.54085e-20
1.73032e-17
4.61006e-16
6.06926e-15
4.40721e-14
2.81319e-13
6.39941e-12
1.54492e-10
4.46708e-10
1.56081e-08
2.06666e-08
3.98675e-05
4.01434e-05
7.08372e-06
9.77327e-07
1.86977e-07
1.98167e-07
3.00775e-06
4.5945e-06
2.45892e-06
1.35576e-07
9.74991e-07
8.45476e-07
1.32564e-07
2.28444e-08
2.28259e-08
1.29195e-05
1.97547e-05
0.000130196
0.000323345
0.000324379
0.0003249
0.000113153
1.7713e-08
2.10076e-08
2.19953e-08
3.56529e-08
4.91578e-10
1.01495e-09
9.36191e-10
2.23106e-10
2.3013e-10
2.48425e-10
1.71238e-10
4.38184e-11
7.06691e-12
1.4638e-12
1.89754e-13
8.78015e-15
1.681e-16
-6.41305e-21
1.80009e-17
4.43615e-16
5.64227e-15
4.33512e-14
3.54982e-13
5.35755e-12
8.03176e-11
5.20208e-11
2.81489e-07
1.92636e-05
4.01281e-05
4.01254e-05
2.84636e-06
2.12559e-07
1.8797e-07
1.12828e-06
4.7241e-06
4.66322e-06
1.93333e-06
4.674e-07
2.26869e-06
2.26211e-06
4.68485e-07
2.6701e-08
6.88305e-06
3.89387e-05
4.02282e-05
0.00014206
0.000319424
0.000323577
0.00011627
9.85478e-07
9.02779e-09
6.82276e-09
5.6707e-09
4.68534e-10
4.19916e-10
8.00814e-10
5.45818e-10
2.21657e-10
2.30501e-10
2.07672e-10
7.79713e-11
1.18943e-11
1.82491e-12
3.27964e-13
2.87467e-14
1.08121e-15
8.45074e-18
-1.55228e-21
1.78693e-17
4.07873e-16
5.03753e-15
4.04028e-14
3.43836e-13
3.45625e-12
1.47029e-11
2.0288e-11
1.67913e-06
4.00866e-05
4.0115e-05
2.30984e-05
2.72052e-07
2.0004e-07
1.92721e-07
2.75202e-06
4.72707e-06
9.14515e-07
8.12429e-07
7.88336e-07
2.23817e-06
2.20059e-06
4.73368e-07
4.45153e-06
3.38868e-05
3.86845e-05
1.5657e-05
7.73661e-05
0.000251801
0.000101408
3.47051e-06
2.51121e-07
3.34264e-09
2.45775e-09
1.66511e-09
3.85501e-10
3.45904e-10
3.95401e-10
2.76026e-10
2.18343e-10
2.0989e-10
1.1333e-10
2.1757e-11
2.54266e-12
4.11911e-13
5.95517e-14
4.00482e-15
1.27712e-16
2.28986e-19
-3.64551e-22
1.72092e-17
3.55214e-16
4.37671e-15
3.90226e-14
3.48034e-13
3.43636e-12
2.89672e-11
3.30688e-11
2.54617e-06
3.99901e-05
4.00866e-05
9.89332e-07
2.05707e-07
2.05009e-07
1.19869e-06
5.9236e-06
2.66066e-06
9.91131e-07
8.94914e-07
8.41481e-07
9.72983e-07
1.37874e-06
1.86065e-06
1.75823e-05
3.48626e-05
1.70681e-05
8.80806e-07
1.0932e-05
1.93945e-05
3.89202e-06
9.11234e-07
6.42335e-08
9.68742e-10
9.48508e-10
7.07409e-10
3.44528e-10
3.33014e-10
3.14213e-10
2.18971e-10
1.95004e-10
1.35457e-10
3.6592e-11
4.2614e-12
5.10954e-13
8.40805e-14
9.80429e-15
6.04422e-16
2.16266e-17
4.70002e-20
-8.37155e-23
1.57326e-17
2.98732e-16
3.79565e-15
4.06276e-14
4.16602e-13
3.92268e-12
3.20959e-11
3.5456e-11
2.35734e-06
1.91566e-05
3.99795e-05
1.22045e-06
3.79194e-06
2.17699e-07
2.37215e-06
9.32541e-06
3.15121e-06
2.81839e-06
1.85345e-05
1.3371e-06
9.86014e-07
1.0061e-06
1.00032e-05
2.22546e-05
2.44853e-05
2.27839e-07
2.69295e-07
1.78646e-06
1.8586e-06
9.22595e-07
2.13951e-07
1.65947e-08
3.90128e-10
4.64304e-10
4.43149e-10
3.33425e-10
3.2366e-10
2.84905e-10
1.73427e-10
1.26986e-10
5.4207e-11
7.88708e-12
7.62889e-13
1.07698e-13
1.64133e-14
1.76401e-15
1.14988e-16
5.35473e-18
1.13537e-20
-1.89038e-23
1.35061e-17
2.46868e-16
3.32958e-15
4.10343e-14
5.12082e-13
6.29034e-12
1.16437e-10
1.42476e-08
1.4488e-06
8.41846e-07
1.30167e-05
1.6828e-05
1.38335e-05
2.40936e-07
2.73384e-06
9.89523e-06
1.56239e-05
0.000102671
0.000169179
3.32663e-05
1.02705e-06
1.09301e-06
1.38354e-05
1.91612e-05
2.60708e-06
2.46333e-08
1.01002e-07
4.80977e-07
4.54482e-07
2.2149e-07
5.49947e-08
4.51973e-09
3.21812e-10
3.09944e-10
3.47056e-10
3.21028e-10
2.97363e-10
2.12817e-10
1.0552e-10
5.5397e-11
1.41699e-11
1.44848e-12
1.57877e-13
2.4199e-14
3.35779e-15
3.57449e-16
2.75881e-17
1.16396e-18
2.40521e-21
-4.21542e-24
1.11302e-17
2.01745e-16
2.93797e-15
4.13375e-14
6.3437e-13
9.9533e-12
2.43941e-10
1.60198e-08
1.09693e-07
2.62605e-07
1.07698e-05
3.217e-05
7.55443e-06
3.05657e-07
6.58089e-06
9.34304e-06
3.39563e-05
0.000177625
0.000177625
0.00015604
1.07338e-06
1.85461e-06
1.64013e-05
1.57465e-05
2.39537e-08
6.07334e-09
4.10874e-08
1.24995e-07
1.1388e-07
5.5719e-08
1.43362e-08
1.37631e-09
2.79263e-10
2.53852e-10
2.96668e-10
2.96287e-10
2.23021e-10
1.15261e-10
4.78759e-11
1.72647e-11
2.91935e-12
2.81344e-13
3.78907e-14
5.43127e-15
7.20279e-16
8.27921e-17
6.21993e-18
2.53199e-19
5.13841e-22
-9.3139e-25
8.93622e-18
1.63952e-16
2.56272e-15
4.12516e-14
6.8719e-13
1.04035e-11
1.99796e-10
6.59605e-09
4.85922e-08
9.78338e-08
3.1606e-05
3.23351e-05
1.15664e-06
1.78213e-06
6.89336e-06
5.36607e-06
1.82532e-05
0.000119574
0.000177625
0.000176949
1.60657e-06
3.14463e-06
1.64013e-05
1.24024e-05
4.05684e-09
1.84086e-09
1.31388e-08
2.99861e-08
2.92696e-08
1.46376e-08
3.86066e-09
5.57555e-10
2.47684e-10
2.37885e-10
2.7213e-10
2.18715e-10
1.20942e-10
4.74273e-11
1.72693e-11
4.52954e-12
5.90586e-13
6.31087e-14
9.03403e-15
1.20592e-15
1.67838e-16
1.9366e-17
1.38991e-18
5.52109e-20
1.10842e-22
-2.04446e-25
7.06881e-18
1.3297e-16
2.24594e-15
4.00117e-14
6.26609e-13
7.27717e-12
7.18297e-11
5.37363e-11
1.95941e-07
8.16806e-06
3.45547e-05
2.30546e-05
6.77592e-07
1.29229e-06
4.13738e-06
4.54264e-06
5.32232e-06
5.48273e-06
0.00016445
0.000178098
5.8628e-05
2.78198e-06
1.24552e-05
1.18908e-05
1.22888e-09
7.186e-10
2.41119e-09
6.53865e-09
7.78515e-09
4.03345e-09
1.17961e-09
3.01728e-10
2.15226e-10
2.21395e-10
2.26948e-10
1.2265e-10
5.06134e-11
1.70777e-11
5.46771e-12
1.11665e-12
1.2928e-13
1.55037e-14
2.10965e-15
2.7848e-16
4.05125e-17
4.43829e-18
3.1114e-19
1.20871e-20
2.41655e-23
-4.46807e-26
5.55106e-18
1.07968e-16
1.99713e-15
3.78852e-14
4.72069e-13
2.61435e-12
1.50957e-11
1.93e-11
5.63525e-07
3.37894e-05
3.45561e-05
3.58097e-06
6.77765e-07
6.7739e-07
1.25478e-06
8.33418e-06
5.48273e-06
5.96854e-06
4.10223e-05
0.000180906
8.3626e-05
1.12664e-06
9.82349e-06
1.58394e-05
7.18624e-10
3.75999e-10
7.10534e-10
1.76041e-09
2.188e-09
1.24246e-09
4.50762e-10
2.21192e-10
2.02358e-10
1.97792e-10
1.39707e-10
5.58774e-11
1.919e-11
5.97303e-12
1.62231e-12
2.74051e-13
3.05023e-14
3.836e-15
4.98245e-16
6.82955e-17
9.55874e-18
1.01844e-18
6.98721e-20
2.65996e-21
5.32818e-24
-9.73888e-27
4.33325e-18
8.75636e-17
1.80255e-15
3.28856e-14
2.63915e-13
1.02216e-12
-1.10348e-11
0
1.66409e-06
3.45561e-05
3.4611e-05
1.71342e-05
6.77391e-07
1.42101e-06
1.2676e-05
1.6526e-05
6.73679e-06
1.7268e-05
0.000136743
0.000183206
7.83469e-05
6.18819e-07
1.06701e-05
1.68321e-05
2.24043e-06
2.72902e-10
3.73472e-10
6.88495e-10
8.0404e-10
4.85552e-10
2.6324e-10
1.95602e-10
1.82737e-10
1.45319e-10
6.81294e-11
2.31209e-11
7.2195e-12
2.06012e-12
4.70809e-13
6.92902e-14
7.63667e-15
9.51059e-16
1.20323e-16
1.66804e-17
2.25655e-18
2.34318e-19
1.57595e-20
5.88921e-22
1.1885e-24
-2.12005e-27
3.35139e-18
7.03896e-17
1.4489e-15
2.24459e-14
1.34298e-13
1.75623e-12
3.94694e-11
3.03632e-11
9.24454e-06
3.4611e-05
3.46219e-05
3.45828e-05
6.78798e-07
3.50093e-06
2.56428e-05
2.53954e-05
1.51293e-05
0.000133938
0.000184095
0.000184304
9.48586e-05
2.46283e-07
9.38475e-06
1.68321e-05
1.31419e-05
2.402e-10
2.73041e-10
4.20072e-10
4.56198e-10
2.91916e-10
2.09244e-10
1.83509e-10
1.48963e-10
8.32187e-11
2.98218e-11
9.4198e-12
2.7327e-12
7.01497e-13
1.3746e-13
1.82829e-14
1.98962e-15
2.40594e-16
2.97076e-17
4.05436e-18
5.33827e-19
5.41164e-20
3.57307e-21
1.31254e-22
2.68183e-25
-4.61434e-28
2.57697e-18
5.60574e-17
1.24228e-15
1.70986e-14
1.17554e-13
2.52667e-12
7.14231e-11
8.23048e-11
1.5086e-05
3.46129e-05
3.45654e-05
3.46129e-05
7.64831e-07
6.95807e-06
2.56419e-05
1.31186e-05
2.23006e-05
0.00018347
0.000184347
0.000183513
0.00014247
6.76506e-08
4.62427e-06
1.68321e-05
9.51577e-06
2.27634e-10
2.40405e-10
3.43642e-10
3.38921e-10
2.37106e-10
2.03208e-10
1.63774e-10
9.86881e-11
4.07234e-11
1.30743e-11
3.91897e-12
1.04761e-12
2.39718e-13
4.11117e-14
5.04025e-15
5.31229e-16
6.27681e-17
7.54187e-18
9.87228e-19
1.26733e-19
1.25564e-20
8.14918e-22
2.94558e-23
6.11731e-26
-1.00499e-28
2.00885e-18
4.68835e-17
1.14315e-15
1.84502e-14
1.13155e-13
7.27719e-12
3.52042e-10
9.23223e-09
8.21886e-06
2.41958e-05
3.15087e-05
1.87569e-05
1.26372e-06
2.57243e-05
2.53828e-05
1.31186e-05
1.31186e-05
3.6002e-05
0.000172356
0.000182497
0.000117648
2.13622e-08
7.97462e-07
4.70198e-06
7.32947e-07
2.22529e-10
2.27663e-10
3.26309e-10
3.35338e-10
2.31957e-10
1.90262e-10
1.25616e-10
5.66864e-11
1.94881e-11
6.03927e-12
1.6972e-12
4.134e-13
8.39225e-14
1.2766e-14
1.46258e-15
1.48789e-16
1.70076e-17
1.98269e-18
2.41573e-19
3.02136e-20
2.92925e-21
1.87091e-22
6.65868e-24
1.41393e-26
-2.19163e-29
1.57028e-18
4.00965e-17
1.06715e-15
2.25475e-14
3.4307e-13
1.28776e-11
4.84221e-10
6.14976e-08
4.7917e-07
2.50517e-06
3.80553e-05
3.00709e-06
4.78548e-06
2.60246e-05
2.10847e-05
2.34018e-05
4.53967e-05
8.29661e-06
9.78766e-06
0.000180507
4.93534e-05
1.43163e-08
5.32263e-08
7.53637e-08
7.3976e-11
2.18596e-10
2.35778e-10
3.16643e-10
3.31789e-10
2.23621e-10
1.60196e-10
8.60274e-11
3.12338e-11
9.9491e-12
2.9951e-12
7.77354e-13
1.70927e-13
3.06913e-14
4.18274e-15
4.51798e-16
4.49072e-17
4.80616e-18
5.40975e-19
6.00775e-20
7.25548e-21
6.88179e-22
4.32492e-23
1.51735e-24
3.30319e-27
-4.7875e-30
1.20948e-18
3.31744e-17
9.60513e-16
2.19252e-14
4.64088e-13
1.42259e-11
6.41484e-10
4.98179e-08
4.45251e-08
4.18955e-07
3.80553e-05
2.20101e-06
1.23804e-05
2.59349e-05
2.11816e-05
7.12099e-05
7.0494e-05
8.2982e-06
8.30232e-06
3.65874e-05
6.28564e-05
1.4912e-08
9.02122e-09
1.49001e-08
1.01372e-10
2.12416e-10
2.26023e-10
3.08138e-10
3.22551e-10
2.05173e-10
1.24741e-10
5.66225e-11
1.81594e-11
5.58618e-12
1.60817e-12
3.82173e-13
7.5409e-14
1.19938e-14
1.47824e-15
1.50696e-16
1.45644e-17
1.45504e-18
1.53532e-19
1.58224e-20
1.75394e-21
1.62922e-22
1.00711e-23
3.4888e-25
8.00847e-28
-1.04781e-30
9.22568e-19
2.61791e-17
7.6428e-16
1.76148e-14
3.82188e-13
1.4621e-11
5.71464e-10
2.8654e-09
8.25328e-08
7.61384e-06
3.80553e-05
2.09396e-06
7.03264e-06
1.60963e-05
4.26149e-05
7.16188e-05
3.7986e-05
8.30232e-06
8.30232e-06
8.47584e-06
3.10329e-05
6.67576e-09
5.16163e-09
4.45401e-09
2.09231e-10
2.18588e-10
2.21773e-10
2.99902e-10
3.11239e-10
1.82601e-10
9.50296e-11
3.82482e-11
1.15923e-11
3.46086e-12
9.40037e-13
2.04367e-13
3.62441e-14
5.15056e-15
5.78895e-16
5.52378e-17
5.07069e-18
4.85148e-19
4.65622e-20
4.5187e-21
4.34819e-22
3.89921e-23
2.37e-24
8.08522e-26
2.01043e-28
-2.29785e-31
7.09286e-19
2.07503e-17
5.92278e-16
1.2646e-14
2.66618e-13
1.15257e-11
3.25146e-10
2.48867e-10
4.91101e-07
2.70409e-05
3.06023e-05
2.07401e-06
2.0546e-06
1.24497e-05
7.46669e-05
7.21073e-05
1.18469e-05
8.30178e-06
8.69957e-06
1.76741e-05
1.40798e-05
3.83392e-06
4.06489e-09
2.54718e-09
7.45922e-10
3.63888e-10
2.27171e-10
2.60329e-10
2.88011e-10
1.67172e-10
7.36161e-11
2.71021e-11
8.14954e-12
2.35386e-12
5.99275e-13
1.20049e-13
1.93626e-14
2.49967e-15
2.58388e-16
2.27727e-17
1.92385e-18
1.71857e-19
1.5552e-20
1.38011e-21
1.17719e-22
9.48104e-24
5.65081e-25
1.89606e-26
5.21764e-29
-5.04884e-32
5.47903e-19
1.68462e-17
4.82839e-16
9.6471e-15
1.88411e-13
7.41518e-12
8.75391e-11
1.08022e-10
1.85729e-06
2.75005e-05
1.80433e-05
2.04859e-06
2.02316e-06
6.87207e-06
7.49542e-05
7.23172e-05
9.8553e-06
9.16369e-06
4.92905e-05
6.53551e-05
5.15783e-05
2.09288e-06
4.57947e-09
4.10156e-09
4.22842e-09
4.49811e-09
6.85701e-10
1.79633e-10
2.25218e-10
1.68188e-10
6.03466e-11
2.0092e-11
6.21858e-12
1.73564e-12
4.15624e-13
7.77697e-14
1.16365e-14
1.39563e-15
1.3433e-16
1.08584e-17
8.20336e-19
6.54444e-20
5.54032e-21
4.55861e-22
3.57061e-23
2.42649e-24
1.37138e-25
4.53464e-27
1.36067e-29
-1.11122e-32
4.17591e-19
1.39805e-17
4.14701e-16
8.28241e-15
1.5352e-13
5.17016e-12
3.03471e-11
5.08868e-11
2.80936e-06
2.7045e-05
2.6243e-05
2.02592e-06
2.02592e-06
5.08127e-06
7.50918e-05
6.30438e-05
1.05278e-05
2.26963e-05
6.53551e-05
6.53551e-05
6.50202e-05
3.99613e-06
4.19216e-09
3.98897e-09
4.43676e-09
5.46625e-09
4.25172e-09
1.70768e-10
1.65021e-10
1.64156e-10
5.52051e-11
1.74398e-11
5.08861e-12
1.36349e-12
3.11091e-13
5.53738e-14
7.86116e-15
8.95898e-16
8.16998e-17
6.11253e-18
4.09215e-19
2.79865e-20
2.10114e-21
1.63967e-22
1.19312e-23
7.45381e-25
3.53578e-26
1.12209e-27
4.00598e-30
-2.4491e-33
3.09343e-19
1.19589e-17
3.70137e-16
7.50357e-15
1.44787e-13
4.61559e-12
4.18932e-11
6.18316e-11
2.40334e-06
2.71047e-05
2.71047e-05
2.11224e-06
3.51432e-06
6.5424e-05
7.50988e-05
7.3221e-05
1.93966e-05
2.08294e-05
6.52496e-05
6.53551e-05
6.52817e-05
2.30896e-05
3.98245e-09
3.98897e-09
3.50664e-09
4.77533e-09
2.54193e-09
1.76733e-10
1.73482e-10
1.31767e-10
5.30351e-11
1.78656e-11