/*--------------------------------*- C++ -*----------------------------------*\
  =========                 |
  \\      /  F ield         | OpenFOAM: The Open Source CFD Toolbox
   \\    /   O peration     | Website:  https://openfoam.org
    \\  /    A nd           | Version:  9
     \\/     M anipulation  |
\*---------------------------------------------------------------------------*/
FoamFile
{
    format      ascii;
    class       volScalarField;
    location    "0.16";
    object      p;
}
// * * * * * * * * * * * * * * * * * * * * * * * * * * * * * * * * * * * * * //

dimensions      [1 -1 -2 0 0 0 0];

internalField   nonuniform List<scalar> 
5000
(
2.67108
2.62567
2.57073
2.50437
2.42416
2.32627
2.20439
2.04846
1.85416
1.59083
1.07492
0.722033
-1.49801
22.5586
26.8674
26.6422
25.7909
24.9807
24.7748
25.421
26.1911
26.1567
25.2011
23.9032
23.2496
23.4435
24.1383
24.8989
25.0697
22.6727
2.34763
0.964654
1.0236
1.13284
1.28077
1.45229
1.62915
1.79587
1.94616
2.08029
2.20082
2.31031
2.4107
2.50336
2.58926
2.66914
2.74363
2.81324
2.87854
2.93895
2.6657
2.62229
2.57111
2.51034
2.43769
2.35138
2.24889
2.11977
1.96177
1.80105
1.41766
1.37109
1.21885
19.5063
25.0988
25.4278
24.5065
23.3305
22.6319
22.965
23.9548
24.482
24.0235
22.9282
22.2503
22.4792
23.3371
24.4983
25.0279
20.8696
2.03253
1.30544
1.26521
1.33543
1.44187
1.57661
1.72597
1.87266
2.00812
2.13083
2.24213
2.34388
2.43768
2.52468
2.60568
2.6813
2.75202
2.81828
2.88053
2.93839
2.66302
2.62214
2.57501
2.52045
2.45658
2.38277
2.30065
2.20285
2.08218
2.01435
1.81158
1.95692
2.69962
9.54037
22.5985
23.8462
23.1989
21.7479
20.4346
20.3375
21.5447
22.8505
23.2084
22.5278
21.8455
21.9986
22.9854
24.5098
25.9019
13.5197
1.39832
1.46017
1.48757
1.51944
1.59626
1.70242
1.8272
1.9543
2.07481
2.18591
2.28775
2.38149
2.46837
2.54934
2.62507
2.69603
2.76262
2.82517
2.88394
2.93851
2.66249
2.6247
2.58178
2.53339
2.47877
2.41791
2.35497
2.28839
2.20399
2.20126
2.14981
2.29172
2.87765
2.88437
21.3603
22.1919
21.9822
20.578
18.673
18.1322
19.5651
21.7431
23.1168
23.0648
22.4145
22.4001
23.4589
25.3814
27.0298
4.5542
1.4952
1.58684
1.63958
1.67732
1.73681
1.82186
1.92558
2.03507
2.14177
2.24186
2.33455
2.42042
2.50039
2.57522
2.64545
2.71148
2.77364
2.83221
2.88757
2.93939
2.66355
2.62903
2.59053
2.54829
2.50264
2.45408
2.40763
2.36808
2.31567
2.34658
2.394
2.4677
2.81687
1.99675
16.6021
19.4666
21.1965
20.2435
17.852
16.982
18.7122
21.7722
24.1775
24.9109
24.4616
24.2538
25.1923
27.3561
20.6461
2.48364
1.74956
1.76709
1.78899
1.81269
1.85792
1.9267
2.01414
2.10973
2.20496
2.29544
2.37986
2.45847
2.53192
2.60083
2.66566
2.72675
2.78434
2.83869
2.89019
2.93877
2.66588
2.63464
2.60051
2.56414
2.52674
2.48918
2.45608
2.4377
2.41267
2.45969
2.56738
2.6037
2.74286
2.49411
6.8297
19.2333
20.3552
20.445
18.1799
17.2635
19.3523
23.2699
26.6018
28.1639
28.1066
27.4307
27.5452
25.2704
7.52309
1.93845
1.92221
1.9226
1.91648
1.91535
1.952
2.0111
2.08878
2.17508
2.26179
2.34458
2.42207
2.49437
2.56204
2.62564
2.68558
2.74217
2.79561
2.84608
2.8938
2.93862
2.66918
2.6411
2.61108
2.58002
2.54977
2.52163
2.49915
2.49598
2.4932
2.54903
2.68045
2.71109
2.74584
2.73935
2.49816
12.9648
20.0553
20.7639
19.2553
18.7344
21.2721
25.7889
29.9976
32.6188
33.034
31.1994
27.6628
10.3468
2.04529
2.04006
2.01433
1.98351
2.01799
1.98167
2.01836
2.07564
2.15096
2.23182
2.31251
2.38931
2.46105
2.5279
2.59043
2.64917
2.70452
2.75676
2.8061
2.85271
2.89679
2.93822
2.67314
2.64796
2.62166
2.59525
2.57086
2.55028
2.536
2.5426
2.55539
2.61657
2.74635
2.7902
2.77263
2.8417
2.79098
4.60103
16.889
23.0946
22.0116
21.0403
23.7172
28.4668
33.1817
37.7223
39.1434
24.4
8.13064
2.10838
2.16092
2.1602
2.01687
2.02091
2.03172
2.03418
2.07443
2.13462
2.20755
2.28461
2.36031
2.43174
2.49818
2.55993
2.61759
2.67168
2.72261
2.77066
2.81605
2.85897
2.89965
2.93794
2.67746
2.65489
2.63185
2.60936
2.58952
2.57458
2.56612
2.57781
2.59932
2.66148
2.78062
2.83653
2.79675
2.83794
2.85147
2.76224
4.13806
11.787
20.1135
23.3063
25.7955
29.7977
32.6754
27.5766
14.8388
4.81892
2.30447
2.32595
2.22745
2.27396
2.19764
2.08463
2.08195
2.10676
2.14333
2.20159
2.26961
2.34052
2.40975
2.47497
2.53562
2.59199
2.64462
2.694
2.74051
2.78443
2.82595
2.86524
2.90255
2.93781
2.68194
2.66164
2.64138
2.62214
2.60563
2.59449
2.58954
2.6026
2.62651
2.6836
2.79082
2.84444
2.7953
2.8051
2.83995
2.85494
2.79417
2.76847
3.51423
5.19844
7.3875
7.84366
6.48029
4.12062
2.6781
2.41122
2.34658
2.36407
2.31205
2.29634
2.37381
2.14486
2.18438
2.20228
2.22685
2.27844
2.33847
2.40112
2.46238
2.52031
2.57441
2.6249
2.67218
2.71664
2.7586
2.79831
2.83592
2.87155
2.90539
2.93743
2.68641
2.66808
2.6501
2.6334
2.61923
2.6103
2.60671
2.61822
2.63911
2.68543
2.77725
2.81686
2.78559
2.78402
2.81439
2.80103
2.74933
2.69586
2.64807
2.61349
2.59448
2.57493
2.55114
2.52719
2.48076
2.44109
2.38919
2.38832
2.35961
2.32668
2.48104
2.35425
2.26373
2.27926
2.31287
2.35799
2.41006
2.464
2.51675
2.5669
2.61407
2.65836
2.70007
2.73947
2.77679
2.81222
2.84588
2.87783
2.90817
2.93687
2.69077
2.67407
2.65791
2.64309
2.63043
2.62245
2.61852
2.62633
2.64064
2.67684
2.74339
2.77591
2.76183
2.76352
2.78518
2.76011
2.72649
2.68474
2.64039
2.60768
2.58273
2.56186
2.54078
2.51774
2.49376
2.46773
2.44048
2.42774
2.40791
2.38336
2.39744
2.41288
2.32585
2.35743
2.39409
2.43558
2.481
2.52657
2.5709
2.61326
2.65344
2.6915
2.72763
2.762
2.79473
2.82593
2.85568
2.884
2.91089
2.9363
2.69498
2.67964
2.66493
2.65139
2.63958
2.63164
2.62629
2.62909
2.63535
2.65014
2.69724
2.72474
2.72694
2.73634
2.75112
2.7319
2.70523
2.66896
2.63213
2.60209
2.57893
2.5605
2.54305
2.52672
2.51239
2.49666
2.48101
2.47231
2.46281
2.45137
2.4433
2.43928
2.44384
2.46003
2.48645
2.51893
2.55368
2.58906
2.62417
2.6584
2.69151
2.72341
2.75408
2.78355
2.81185
2.83899
2.86497
2.88978
2.91337
2.93569
2.69901
2.68488
2.67131
2.65863
2.6472
2.63869
2.63132
2.62858
2.62592
2.62326
2.64935
2.66707
2.6858
2.70251
2.71619
2.70425
2.68255
2.65298
2.62264
2.59587
2.57534
2.55987
2.5466
2.53541
2.52628
2.51851
2.51304
2.51145
2.50953
2.51994
2.57736
2.53545
2.54948
2.56346
2.58161
2.60235
2.62494
2.64921
2.67466
2.70072
2.7269
2.75286
2.77836
2.80325
2.82742
2.8508
2.87332
2.8949
2.91546
2.93497
2.70285
2.6898
2.67717
2.66508
2.65377
2.64438
2.63479
2.6266
2.61491
2.59728
2.60372
2.61981
2.64524
2.66809
2.68296
2.677
2.66022
2.63656
2.61118
2.58779
2.56996
2.55721
2.54758
2.54096
2.53742
2.53692
2.53983
2.54666
2.5568
2.57936
2.70169
2.60522
2.62676
2.64382
2.65804
2.67123
2.68491
2.70038
2.71783
2.73694
2.75717
2.77799
2.79901
2.81992
2.84052
2.86064
2.88018
2.899
2.91697
2.93409
2.70651
2.69441
2.6826
2.671
2.65972
2.64947
2.63788
2.62504
2.60595
2.57697
2.56902
2.58065
2.60989
2.63712
2.65373
2.65218
2.64012
2.62043
2.59886
2.57868
2.56355
2.55345
2.54709
2.54448
2.54573
2.55088
2.5601
2.57359
2.5908
2.61599
2.74367
2.67295
2.69279
2.70601
2.71496
2.7218
2.72898
2.73823
2.75002
2.76413
2.77997
2.79693
2.81451
2.83236
2.85018
2.86778
2.88501
2.90169
2.91768
2.93295
2.71001
2.69876
2.68769
2.67661
2.66544
2.65461
2.64165
2.62553
2.60149
2.56596
2.55091
2.55418
2.58337
2.612
2.62965
2.63065
2.62158
2.60484
2.58635
2.56877
2.55597
2.54817
2.54449
2.54501
2.54985
2.55907
2.57272
2.5905
2.61114
2.63368
2.74775
2.74725
2.73994
2.74819
2.75202
2.75385
2.75648
2.76168
2.76995
2.78096
2.79404
2.80852
2.82387
2.83969
2.85568
2.87162
2.88735
2.90267
2.91739
2.9315
2.7134
2.70293
2.69257
2.68211
2.67128
2.66026
2.64675
2.62898
2.60273
2.5645
2.54142
2.54467
2.56603
2.59457
2.6116
2.61392
2.60508
2.59052
2.57378
2.55787
2.54662
2.5404
2.53858
2.54127
2.54861
2.56071
2.57753
2.59858
2.62269
2.64886
2.71551
2.78807
2.74547
2.75931
2.76356
2.76441
2.76584
2.76986
2.77699
2.78688
2.79885
2.81226
2.82657
2.84142
2.85652
2.87167
2.8867
2.90146
2.91575
2.92959
2.7167
2.70698
2.69736
2.68764
2.67742
2.6667
2.65347
2.63564
2.60972
2.57198
2.54595
2.54265
2.56099
2.58565
2.5992
2.60049
2.59106
2.57722
2.56093
2.54552
2.53476
2.52919
2.52826
2.53212
2.54093
2.55475
2.57334
2.59601
2.62149
2.64774
2.67222
2.78356
2.75373
2.75143
2.75362
2.75484
2.75753
2.76296
2.77121
2.78193
2.79442
2.8081
2.82252
2.83736
2.8524
2.86748
2.88252
2.89745
2.91223
2.92701
2.71992
2.71096
2.70214
2.69328
2.68394
2.67401
2.66186
2.64539
2.622
2.58803
2.56387
2.55471
2.56813
2.58487
2.59302
2.59116
2.57999
2.56484
2.54758
2.53126
2.51968
2.51368
2.51257
2.51652
2.52572
2.54006
2.55905
2.58145
2.60512
2.62701
2.64368
2.74683
2.7564
2.72534
2.72584
2.72865
2.73408
2.74257
2.75384
2.76701
2.7814
2.79652
2.812
2.82756
2.84299
2.85811
2.87271
2.88657
2.8994
2.91106
2.72302
2.71486
2.70691
2.69902
2.69084
2.68216
2.6718
2.65796
2.63895
2.61194
2.59119
2.57918
2.58286
2.59015
2.59195
2.58477
2.57105
2.55309
2.53338
2.51469
2.50081
2.49321
2.49065
2.49353
2.50197
2.51578
2.53437
2.55646
2.58006
2.60264
2.61506
2.70543
2.71398
2.67322
2.67843
2.68669
2.69766
2.71128
2.72692
2.74375
2.76115
2.77871
2.79617
2.81336
2.83014
2.84641
2.86205
2.87696
2.89109
2.90457
2.726
2.71865
2.71163
2.70484
2.69801
2.69098
2.68297
2.67267
2.65909
2.64024
2.62393
2.60742
2.6038
2.5998
2.59447
2.58227
2.5639
2.54169
2.51825
2.4962
2.47913
2.46774
2.46178
2.46229
2.46873
2.48077
2.49794
2.519
2.54249
2.56696
2.59419
2.65329
2.67632
2.6269
2.6269
2.63901
2.65457
2.67303
2.69329
2.71429
2.73532
2.75602
2.77622
2.79584
2.81482
2.83311
2.85068
2.86747
2.8834
2.89802
2.7288
2.7223
2.71625
2.71065
2.70532
2.70022
2.69489
2.68861
2.68068
2.66964
2.65997
2.63615
2.6257
2.61777
2.60063
2.58241
2.55808
2.53068
2.50204
2.4737
2.45071
2.43521
2.42542
2.42221
2.42495
2.43387
2.44814
2.466
2.48554
2.50435
2.53137
2.60643
2.59061
2.58618
2.58267
2.59284
2.60947
2.63099
2.65517
2.68021
2.70506
2.72925
2.75259
2.77506
2.79664
2.81729
2.83701
2.85582
2.87368
2.88955
2.73137
2.72572
2.72066
2.71629
2.71255
2.70955
2.70709
2.70503
2.70298
2.70062
2.69451
2.67073
2.65201
2.63184
2.6104
2.58465
2.55343
2.51949
2.48277
2.44652
2.41722
2.39464
2.37958
2.37182
2.37084
2.37476
2.38494
2.39897
2.41447
2.42942
2.44655
2.53791
2.50835
2.51962
2.52382
2.53544
2.55571
2.58197
2.61111
2.6409
2.6701
2.69821
2.72507
2.7507
2.77512
2.79834
2.82035
2.84132
2.86127
2.87859
2.73367
2.72883
2.72474
2.72162
2.7195
2.71865
2.71911
2.72124
2.72518
2.72996
2.72648
2.7063
2.6798
2.65169
2.62276
2.58832
2.55048
2.50763
2.46261
2.4168
2.37776
2.34734
2.32412
2.30883
2.30344
2.30237
2.30829
2.31871
2.33099
2.34326
2.35023
2.44191
2.42428
2.42953
2.44073
2.46045
2.48923
2.52346
2.55966
2.59556
2.63002
2.66266
2.69348
2.7226
2.75013
2.77609
2.80056
2.82382
2.84594
2.86476
2.73562
2.73155
2.72839
2.72646
2.72591
2.72716
2.73045
2.73648
2.74623
2.75681
2.76385
2.73939
2.70861
2.67422
2.63678
2.5959
2.54826
2.4962
2.44034
2.38232
2.33165
2.2912
2.25871
2.23509
2.22077
2.21554
2.21758
2.22488
2.23493
2.24511
2.24507
2.32235
2.32387
2.32233
2.34258
2.37375
2.41379
2.45794
2.50252
2.54538
2.58565
2.62321
2.65827
2.69106
2.72178
2.75053
2.77747
2.80305
2.82734
2.84762
2.73719
2.73378
2.73148
2.73065
2.73157
2.73475
2.74062
2.75003
2.76441
2.77991
2.79104
2.77351
2.7373
2.69732
2.65264
2.60388
2.54703
2.48452
2.41563
2.34308
2.27848
2.22599
2.18241
2.1488
2.12583
2.11358
2.11122
2.11664
2.1277
2.14241
2.14607
2.17859
2.19203
2.2011
2.23649
2.28216
2.335
2.38975
2.44291
2.49274
2.53876
2.58116
2.62033
2.65664
2.69039
2.72176
2.75099
2.77874
2.80508
2.82663
2.7383
2.73548
2.73392
2.73406
2.73628
2.74114
2.74927
2.7617
2.78009
2.8021
2.81866
2.8024
2.76373
2.7193
2.66879
2.61183
2.54701
2.4724
2.38844
2.29872
2.21814
2.15193
2.09532
2.04948
2.01545
1.99433
1.98648
1.99053
2.00516
2.01856
2.02644
2.04495
2.06432
2.08198
2.13265
2.19291
2.25823
2.32295
2.38396
2.44005
2.49121
2.5379
2.58069
2.62007
2.65643
2.69
2.72117
2.75078
2.77886
2.80139
2.7389
2.73656
2.73562
2.73657
2.73985
2.7461
2.75608
2.7711
2.79283
2.81932
2.83827
2.82581
2.78807
2.74022
2.68563
2.62212
2.54776
2.45981
2.35864
2.2496
2.1515
2.07004
1.99854
1.93793
1.88976
1.85681
1.84091
1.84222
1.85887
1.87148
1.88298
1.90314
1.92752
1.97546
2.03871
2.11241
2.18816
2.26104
2.32835
2.38946
2.44473
2.49483
2.54045
2.58219
2.62051
2.65574
2.68834
2.71934
2.74869
2.77185
2.73895
2.73696
2.73648
2.73803
2.74211
2.7494
2.76074
2.7777
2.802
2.83231
2.85152
2.84501
2.80774
2.76013
2.70229
2.63304
2.54886
2.44644
2.32604
2.19638
2.07998
1.98258
1.89476
1.81681
1.75113
1.70309
1.67592
1.67174
1.69648
1.70506
1.72407
1.7588
1.80345
1.87453
1.95466
2.04152
2.12651
2.20588
2.27791
2.34263
2.40078
2.45322
2.50072
2.54396
2.5835
2.61972
2.65317
2.68497
2.71502
2.73843
2.73839
2.73662
2.73642
2.73835
2.7429
2.75081
2.76298
2.78098
2.8065
2.83853
2.86014
2.8589
2.82438
2.77776
2.7182
2.64377
2.55004
2.43307
2.29144
2.14044
2.00624
1.89335
1.7887
1.6916
1.60568
1.53819
1.49596
1.48881
1.52049
1.53195
1.56521
1.61618
1.69308
1.78539
1.8838
1.98262
2.07512
2.15915
2.2342
2.30105
2.36077
2.41435
2.46267
2.5065
2.54647
2.58299
2.61667
2.64865
2.67876
2.70208
2.7372
2.73549
2.73538
2.73741
2.7421
2.75022
2.76266
2.78081
2.80614
2.83735
2.8646
2.86692
2.83799
2.79265
2.73239
2.65308
2.55029
2.41776
2.25425
2.08366
1.93435
1.80768
1.68713
1.57156
1.46531
1.37838
1.31924
1.30747
1.37295
1.38999
1.42631
1.51207
1.61372
1.72396
1.83552
1.94144
2.03766
2.12343
2.19928
2.26644
2.3262
2.37963
2.42768
2.47117
2.51076
2.5469
2.58017
2.61171
2.64129
2.66415
2.73536
2.73355
2.73331
2.73517
2.73967
2.7476
2.75983
2.7775
2.8022
2.83894
2.86437
2.8684
2.84682
2.80373
2.74346
2.65991
2.54787
2.40218
2.21595
2.02894
1.86811
1.73128
1.59846
1.46865
1.34618
1.24933
1.1823
1.17347
1.24024
1.25476
1.34249
1.45289
1.5736
1.69617
1.8135
1.92076
2.01633
2.10058
2.17474
2.24026
2.29844
2.3504
2.39708
2.43931
2.47775
2.5128
2.54503
2.57548
2.60395
2.62606
2.73289
2.7308
2.73021
2.73163
2.73563
2.74298
2.75455
2.77132
2.79499
2.83331
2.8595
2.86957
2.8497
2.80982
2.74965
2.66303
2.54225
2.38227
2.18384
1.9799
1.81213
1.67093
1.53176
1.39673
1.26542
1.16594
1.11934
1.11401
1.14855
1.22361
1.33037
1.45084
1.57818
1.70219
1.81708
1.92009
2.01099
2.09083
2.16108
2.22316
2.27833
2.32764
2.37197
2.41211
2.44865
2.48197
2.51257
2.54134
2.56812
2.58931
2.72979
2.72724
2.72608
2.72681
2.73001
2.7364
2.74683
2.76227
2.78454
2.81593
2.84874
2.86321
2.8444
2.80897
2.74916
2.66144
2.5341
2.364
2.1546
1.93823
1.77098
1.63211
1.49184
1.35903
1.23699
1.15533
1.12234
1.13226
1.18074
1.26727
1.37754
1.49816
1.62059
1.73672
1.84263
1.93693
2.02008
2.09326
2.15785
2.2151
2.26612
2.31184
2.35305
2.39041
2.42444
2.4555
2.48397
2.51055
2.53523
2.55534
2.7261
2.72293
2.721
2.7208
2.72288
2.72791
2.73663
2.7501
2.77022
2.79912
2.83114
2.84698
2.83379
2.79908
2.74039
2.65233
2.52439
2.35842
2.14314
1.91144
1.74902
1.61782
1.48523
1.36289
1.2614
1.20139
1.18524
1.20979
1.26977
1.35856
1.46468
1.57702
1.6876
1.79078
1.88419
1.96736
2.04099
2.10616
2.16398
2.2155
2.26162
2.30311
2.34062
2.3747
2.40577
2.43414
2.46013
2.48418
2.50643
2.5254
2.72186
2.71791
2.71504
2.71368
2.71432
2.71756
2.72401
2.73465
2.75129
2.77648
2.8079
2.8273
2.81012
2.77952
2.72195
2.63671
2.51202
2.36352
2.12855
1.90666
1.74826
1.62933
1.51465
1.41042
1.3345
1.29559
1.2958
1.33098
1.39494
1.47951
1.57524
1.67361
1.76857
1.85651
1.93611
2.00735
2.07086
2.12747
2.17806
2.22342
2.26425
2.30116
2.33463
2.3651
2.39292
2.41837
2.44164
2.46295
2.4826
2.50037
2.71713
2.71229
2.7083
2.70554
2.70444
2.70547
2.70907
2.71591
2.72769
2.74744
2.77633
2.79336
2.78002
2.7492
2.69444
2.61288
2.49139
2.32702
2.11792
1.9101
1.76765
1.66632
1.57506
1.49582
1.44493
1.42608
1.43894
1.47895
1.53998
1.6148
1.6961
1.7778
1.85591
1.92826
1.99415
2.05363
2.10714
2.15527
2.19861
2.23775
2.27321
2.30542
2.33473
2.36145
2.38589
2.4083
2.42878
2.44727
2.46426
2.48081
2.71199
2.70613
2.70087
2.69651
2.69337
2.69182
2.6921
2.69451
2.70062
2.71419
2.74027
2.75113
2.74238
2.7104
2.65637
2.58007
2.46695
2.31059
2.11235
1.93332
1.80482
1.72768
1.66067
1.60937
1.58134
1.57853
1.5988
1.63789
1.69087
1.75239
1.81748
1.88223
1.94414
2.00191
2.05506
2.10359
2.14773
2.18781
2.22423
2.25738
2.28759
2.31516
2.34034
2.36334
2.38441
2.4038
2.42149
2.43719
2.45158
2.46691
2.70652
2.69954
2.69288
2.68673
2.68132
2.67689
2.67352
2.67117
2.67151
2.68208
2.69956
2.71025
2.69754
2.66287
2.60943
2.53766
2.43761
2.30162
2.13613
1.97367
1.86556
1.81085
1.7682
1.7418
1.7306
1.73889
1.76135
1.79504
1.83697
1.88399
1.93321
1.98231
2.02973
2.07459
2.11645
2.15519
2.19085
2.22359
2.25361
2.28114
2.30639
2.32954
2.35075
2.37017
2.388
2.40447
2.41948
2.43251
2.44442
2.45854
2.70082
2.69264
2.68445
2.67636
2.66851
2.661
2.65374
2.64646
2.64101
2.64416
2.65618
2.65933
2.64589
2.60795
2.55408
2.49014
2.40434
2.28964
2.13824
2.01806
1.93754
1.90693
1.88553
1.88032
1.88227
1.89607
1.91634
1.94191
1.97188
2.00504
2.04006
2.07562
2.11068
2.14451
2.17667
2.20689
2.23509
2.26128
2.28553
2.30794
2.32862
2.34767
2.36519
2.38125
2.39603
2.40976
2.42226
2.4328
2.44239
2.45532
2.695
2.68555
2.67574
2.66561
2.65519
2.64447
2.63315
2.62062
2.60867
2.60443
2.61004
2.60955
2.58988
2.5481
2.49699
2.44459
2.37498
2.29541
2.1725
2.07035
2.01854
2.0063
2.00525
2.01639
2.02883
2.04217
2.05744
2.07398
2.09262
2.11366
2.13674
2.1611
2.18594
2.21061
2.2346
2.25757
2.27935
2.29982
2.31896
2.33679
2.35335
2.36868
2.38283
2.39582
2.4078
2.419
2.42918
2.43746
2.44494
2.45669
2.68916
2.67839
2.66692
2.65469
2.64165
2.62766
2.61216
2.5942
2.5764
2.56397
2.5621
2.55558
2.53235
2.48538
2.44025
2.40056
2.35125
2.31098
2.20226
2.13062
2.10626
2.10502
2.12236
2.14395
2.1603
2.17234
2.18167
2.18965
2.19853
2.20963
2.2231
2.23848
2.25509
2.27227
2.28952
2.30643
2.32274
2.3383
2.35301
2.36682
2.37973
2.39174
2.40287
2.4131
2.42256
2.43148
2.43956
2.44581
2.45139
2.46199
2.68343
2.67132
2.65816
2.64384
2.62821
2.61098
2.59137
2.56818
2.54281
2.52168
2.51426
2.50053
2.4759
2.42689
2.38784
2.36301
2.33416
2.28171
2.2256
2.19289
2.18188
2.20033
2.22964
2.25596
2.27494
2.28536
2.28868
2.28925
2.29028
2.29359
2.2996
2.30796
2.31804
2.32923
2.34098
2.35288
2.36463
2.37602
2.38693
2.39727
2.40699
2.4161
2.42456
2.43235
2.43957
2.44645
2.45267
2.45714
2.46105
2.47052
2.67791
2.66448
2.64967
2.63331
2.61515
2.59478
2.57124
2.5432
2.51098
2.48319
2.47136
2.45154
2.42177
2.37591
2.34348
2.3282
2.31969
2.29705
2.25924
2.25432
2.25474
2.28655
2.32426
2.35521
2.3746
2.3814
2.37944
2.37409
2.36914
2.3666
2.36697
2.36995
2.37497
2.38141
2.38875
2.39656
2.40453
2.41244
2.42012
2.42749
2.43449
2.44108
2.44723
2.45289
2.45816
2.46324
2.46781
2.47074
2.47321
2.48157
2.67271
2.658
2.64162
2.62331
2.60274
2.57938
2.5521
2.51935
2.48082
2.44591
2.43151
2.40503
2.37338
2.33148
2.30571
2.30976
2.32245
2.30895
2.29817
2.2929
2.33289
2.36338
2.40651
2.43963
2.45786
2.4614
2.45539
2.44574
2.43654
2.42981
2.42606
2.42503
2.42618
2.42893
2.43277
2.43728
2.44215
2.44716
2.45216
2.45703
2.4617
2.46614
2.4703
2.47413
2.4777
2.48122
2.48436
2.48595
2.48718
2.49448
2.66792
2.65203
2.63418
2.61404
2.59121
2.56505
2.53424
2.49711
2.45295
2.41279
2.39043
2.36599
2.33403
2.29514
2.2744
2.28997
2.30645
2.32342
2.33492
2.35515
2.38986
2.43319
2.47738
2.51037
2.52658
2.52736
2.51845
2.50594
2.49395
2.48439
2.47776
2.47383
2.47209
2.47201
2.4731
2.47497
2.47734
2.47998
2.48274
2.48551
2.48823
2.49084
2.4933
2.49556
2.49767
2.49983
2.50173
2.50221
2.50237
2.50865
2.66364
2.64667
2.62748
2.60566
2.58074
2.552
2.51802
2.47705
2.428
2.3838
2.35394
2.33154
2.30206
2.26661
2.25954
2.27541
2.30684
2.33984
2.36953
2.40476
2.45041
2.49513
2.53725
2.56847
2.58245
2.58118
2.57048
2.55637
2.54277
2.53148
2.52296
2.51701
2.51318
2.51098
2.50995
2.50973
2.51008
2.51078
2.5117
2.51273
2.51379
2.51486
2.51588
2.51679
2.51765
2.51864
2.51947
2.51899
2.51827
2.52356
2.65997
2.64203
2.62163
2.59831
2.5715
2.54044
2.50361
2.4588
2.40587
2.35946
2.32417
2.30295
2.27522
2.24662
2.24479
2.26746
2.31127
2.35754
2.40313
2.45343
2.49909
2.54348
2.5853
2.61462
2.62689
2.62451
2.61313
2.5985
2.58429
2.57216
2.56254
2.55528
2.54999
2.54623
2.54358
2.54173
2.54046
2.53958
2.53898
2.53855
2.53823
2.53799
2.53778
2.53754
2.53731
2.53729
2.53718
2.53591
2.53443
2.53877
2.65699
2.63821
2.61676
2.5921
2.56363
2.53053
2.4913
2.44349
2.38748
2.33712
2.30012
2.27844
2.25422
2.232
2.23802
2.26618
2.32307
2.37363
2.4335
2.4888
2.54196
2.58331
2.62289
2.65017
2.66144
2.6589
2.64791
2.63371
2.61971
2.60745
2.59737
2.58937
2.58311
2.57823
2.57436
2.57123
2.56866
2.56649
2.56462
2.56297
2.56148
2.56011
2.55884
2.5576
2.55644
2.55552
2.55461
2.55264
2.55052
2.55395
2.65476
2.63529
2.61293
2.58713
2.55725
2.52245
2.48123
2.43118
2.37227
2.31886
2.28006
2.25924
2.23842
2.22606
2.23861
2.27498
2.33387
2.39355
2.45606
2.51675
2.57185
2.61245
2.65093
2.6768
2.68769
2.68596
2.67628
2.66331
2.6502
2.63839
2.62833
2.62
2.61315
2.60748
2.60269
2.59855
2.59492
2.59168
2.58875
2.58605
2.58354
2.5812
2.579
2.57688
2.57489
2.57319
2.57154
2.56897
2.56629
2.56883
2.65337
2.63332
2.61023
2.5835
2.55247
2.51629
2.47345
2.42165
2.36041
2.30172
2.2646
2.24525
2.23005
2.2327
2.24695
2.28894
2.34687
2.41197
2.47403
2.54013
2.59078
2.6317
2.66999
2.69488
2.70699
2.70724
2.69968
2.68863
2.67693
2.66598
2.65629
2.64793
2.64075
2.63452
2.62901
2.62406
2.61954
2.61538
2.61152
2.60791
2.6045
2.60129
2.59825
2.59535
2.59261
2.59018
2.58786
2.58475
2.58155
2.58322
2.65285
2.63238
2.60874
2.58131
2.54939
2.51215
2.46806
2.41489
2.35192
2.29002
2.25028
2.2356
2.22753
2.23676
2.25724
2.30204
2.36351
2.4274
2.49638
2.55751
2.60953
2.64885
2.68547
2.71202
2.72408
2.72489
2.71981
2.71107
2.70111
2.69127
2.68216
2.67394
2.66657
2.65991
2.65381
2.64814
2.64284
2.63786
2.63317
2.62871
2.62448
2.62047
2.61666
2.61302
2.60957
2.60646
2.6035
2.59987
2.59619
2.59699
2.65323
2.63251
2.60851
2.5806
2.54807
2.51007
2.46512
2.41091
2.34669
2.28283
2.24144
2.22861
2.22612
2.23595
2.26583
2.31031
2.37503
2.44237
2.51752
2.58311
2.62653
2.6633
2.69919
2.72261
2.73816
2.74071
2.73826
2.73212
2.724
2.71533
2.70684
2.69879
2.69126
2.6842
2.67754
2.6712
2.66517
2.65941
2.65391
2.64866
2.64364
2.63886
2.6343
2.62995
2.62582
2.62203
2.61844
2.6143
2.61014
2.61007
2.65455
2.63374
2.60959
2.58144
2.54857
2.51011
2.4646
2.40958
2.34417
2.27911
2.23505
2.22234
2.22362
2.23743
2.27352
2.3154
2.38626
2.45801
2.53074
2.59541
2.64065
2.67851
2.70785
2.73294
2.74808
2.75579
2.75649
2.75316
2.74682
2.73923
2.73122
2.72323
2.71545
2.70793
2.70067
2.69363
2.68684
2.68029
2.67399
2.66794
2.66213
2.65658
2.65129
2.64622
2.6414
2.63693
2.63271
2.62804
2.62339
2.62244
2.65681
2.63609
2.612
2.58386
2.55093
2.51228
2.46653
2.41099
2.34466
2.27772
2.22984
2.21567
2.21934
2.23354
2.26785
2.32465
2.3969
2.47519
2.55208
2.62328
2.66341
2.69878
2.72662
2.7512
2.76765
2.77805
2.77696
2.77585
2.77091
2.76403
2.75618
2.74798
2.73975
2.73161
2.72362
2.71579
2.70817
2.70077
2.69363
2.68674
2.68012
2.67378
2.66772
2.66191
2.65638
2.65122
2.64633
2.64111
2.63593
2.6341
2.66001
2.63957
2.61575
2.58787
2.55515
2.51663
2.47092
2.41522
2.34832
2.27842
2.2268
2.21024
2.2136
2.2295
2.27311
2.33141
2.40763
2.49022
2.57458
2.65104
2.69331
2.72701
2.75246
2.77396
2.78952
2.80559
2.80349
2.80243
2.7978
2.79078
2.7825
2.77367
2.76466
2.75565
2.74674
2.73797
2.7294
2.72108
2.71301
2.70523
2.69775
2.69056
2.68369
2.67711
2.67084
2.66495
2.65936
2.65354
2.64781
2.64508
2.66413
2.64416
2.62083
2.59345
2.56123
2.52313
2.47779
2.42225
2.3549
2.28248
2.22625
2.20577
2.2085
2.22656
2.27628
2.33625
2.41498
2.50295
2.59687
2.68215
2.72893
2.76391
2.78729
2.80995
2.8387
2.83333
2.83677
2.8342
2.82841
2.82017
2.81071
2.80071
2.79052
2.78034
2.77028
2.76039
2.75073
2.74135
2.73228
2.72353
2.71511
2.70703
2.6993
2.6919
2.68484
2.67818
2.67185
2.66539
2.65906
2.65543
2.66917
2.64984
2.62722
2.60059
2.56914
2.53179
2.48714
2.43217
2.36489
2.28991
2.22833
2.20238
2.20299
2.22251
2.27664
2.33795
2.41366
2.51344
2.61873
2.71971
2.77569
2.81136
2.83402
2.86854
2.88127
2.87695
2.87594
2.87086
2.86264
2.85229
2.84097
2.82925
2.81747
2.8058
2.79434
2.78314
2.77224
2.76169
2.7515
2.74169
2.73227
2.72324
2.7146
2.70633
2.69844
2.69098
2.68388
2.67674
2.66977
2.66523
2.6751
2.65658
2.63487
2.60923
2.57884
2.54258
2.49901
2.44513
2.37841
2.30073
2.23471
2.20145
2.1979
2.21743
2.26757
2.33078
2.42194
2.52251
2.64722
2.76248
2.83263
2.87064
2.90232
2.91954
2.92584
2.92866
2.92104
2.91189
2.90012
2.88691
2.87312
2.85921
2.84546
2.83201
2.81891
2.80621
2.79392
2.78208
2.77068
2.75974
2.74924
2.7392
2.72961
2.72044
2.71168
2.70338
2.69548
2.68763
2.67999
2.67454
2.68187
2.66433
2.64373
2.61932
2.59027
2.55545
2.51338
2.46115
2.3956
2.31747
2.24578
2.20676
2.19359
2.21269
2.25673
2.32104
2.40894
2.53512
2.67289
2.8114
2.89396
2.94282
2.97222
2.98565
2.98706
2.98118
2.96936
2.95601
2.94025
2.92362
2.90684
2.89031
2.87426
2.85877
2.84384
2.82947
2.81567
2.80243
2.78974
2.7776
2.76599
2.7549
2.74431
2.73421
2.72456
2.7154
2.70669
2.69811
2.68977
2.68342
2.68944
2.67304
2.65372
2.63076
2.60335
2.57034
2.53024
2.48022
2.41664
2.33874
2.26247
2.21245
2.1959
2.20728
2.24807
2.31156
2.41266
2.55058
2.7085
2.86676
2.96529
3.03081
3.04766
3.06321
3.06154
3.04748
3.02131
3.00294
2.98257
2.96192
2.94166
2.92216
2.90354
2.8858
2.86887
2.85272
2.8373
2.82259
2.80856
2.79518
2.78241
2.77025
2.75865
2.7476
2.73705
2.72704
2.7175
2.70818
2.69915
2.69191
2.69775
2.68261
2.66475
2.64348
2.61798
2.58715
2.54951
2.50235
2.44168
2.36545
2.28687
2.22723
2.20115
2.2064
2.24549
2.31011
2.42299
2.57014
2.74939
2.92375
3.04333
3.11834
3.14095
3.15176
3.14076
3.11546
3.07822
3.05265
3.02648
3.00111
2.97696
2.95421
2.93282
2.91268
2.89365
2.87563
2.85855
2.84234
2.82694
2.8123
2.79838
2.78514
2.77254
2.76055
2.74912
2.73825
2.72791
2.71785
2.70814
2.70004
2.70672
2.69297
2.67672
2.65734
2.63403
2.60576
2.57106
2.52745
2.47076
2.39814
2.32142
2.25328
2.21693
2.21756
2.25221
2.31934
2.43897
2.5977
2.79145
2.97706
3.12462
3.20006
3.22945
3.24101
3.22176
3.17299
3.13642
3.10286
3.07042
3.04003
3.01182
2.9857
2.96147
2.93889
2.91774
2.89785
2.8791
2.86139
2.84464
2.82877
2.81372
2.79943
2.78586
2.77295
2.76067
2.74899
2.73787
2.72711
2.71674
2.70784
2.71625
2.704
2.68951
2.6722
2.65134
2.62595
2.59469
2.55531
2.50384
2.43704
2.35999
2.29092
2.24639
2.2378
2.27082
2.33937
2.46365
2.63189
2.83537
3.03469
3.20291
3.27814
3.31149
3.30417
3.28701
3.23336
3.19173
3.15085
3.11251
3.07731
3.04516
3.01579
2.9888
2.96385
2.94064
2.91895
2.8986
2.87946
2.86141
2.84437
2.82824
2.81296
2.79847
2.7847
2.77161
2.75917
2.74734
2.73593
2.72494
2.71531
2.72624
2.71558
2.70298
2.6879
2.66969
2.64749
2.62009
2.58552
2.54027
2.48076
2.40877
2.34055
2.29141
2.27548
2.30327
2.37195
2.50349
2.67537
2.88391
3.09123
3.27368
3.35325
3.38586
3.37491
3.3393
3.29201
3.24256
3.19505
3.15136
3.11177
3.07603
3.04366
3.01413
2.98699
2.96188
2.93852
2.91668
2.89621
2.87697
2.85885
2.84173
2.82554
2.81021
2.79567
2.78185
2.76873
2.75625
2.74425
2.73272
2.72242
2.73658
2.72758
2.71695
2.70423
2.68885
2.67006
2.64683
2.61749
2.57909
2.52788
2.46413
2.40001
2.35136
2.3334
2.35478
2.43304
2.56021
2.72968
2.93666
3.14435
3.33608
3.42161
3.45115
3.43689
3.39547
3.34235
3.28677
3.23386
3.18567
3.14236
3.10355
3.06858
3.03684
3.00779
2.981
2.95615
2.93301
2.91137
2.89107
2.87199
2.85401
2.83702
2.82096
2.80573
2.79128
2.77756
2.76452
2.75202
2.74003
2.72915
2.74714
2.73986
2.73127
2.72099
2.70854
2.69331
2.67445
2.65061
2.61942
2.57747
2.52413
2.46616
2.42065
2.405
2.42614
2.50662
2.63124
2.79382
2.99162
3.19341
3.38917
3.47528
3.50433
3.48705
3.44121
3.38308
3.32288
3.26594
3.21435
3.16819
3.12697
3.08994
3.0564
3.02577
2.99759
2.97152
2.94727
2.92465
2.90348
2.8836
2.86489
2.84724
2.83056
2.81477
2.7998
2.78558
2.77208
2.75917
2.74681
2.73546
2.7578
2.75227
2.74575
2.73794
2.72848
2.71686
2.70245
2.68421
2.66036
2.62813
2.58644
2.53978
2.50205
2.48908
2.51227
2.58409
2.70283
2.86108
3.04759
3.24036
3.42427
3.51699
3.54369
3.52385
3.47493
3.41352
3.35024
3.29065
3.23679
3.1887
3.1458
3.10727
3.07241
3.04059
3.01136
2.98434
2.95925
2.93587
2.91401
2.8935
2.87423
2.85606
2.83891
2.82268
2.80731
2.79272
2.77887
2.76565
2.75302
2.74128
2.76845
2.76466
2.7602
2.75486
2.74836
2.74033
2.73032
2.7176
2.70094
2.67827
2.64846
2.6144
2.5868
2.5797
2.60482
2.67165
2.78215
2.93009
3.10265
3.28115
3.44817
3.54692
3.56847
3.54661
3.4961
3.43317
3.3685
3.30769
3.2527
3.20359
3.15973
3.12031
3.08461
3.05203
3.02209
2.99443
2.96877
2.94486
2.92252
2.90159
2.88192
2.86339
2.84591
2.82939
2.81374
2.7989
2.78481
2.7714
2.7586
2.74658
2.77896
2.77688
2.77445
2.77152
2.7679
2.76335
2.75759
2.75014
2.74022
2.72648
2.70802
2.68672
2.67039
2.67061
2.69799
2.76159
2.86343
2.99829
3.15417
3.31513
3.46298
3.56343
3.57986
3.55639
3.50544
3.44242
3.37784
3.31709
3.26207
3.2128
3.16869
3.12897
3.09292
3.05998
3.0297
3.00171
2.97574
2.95155
2.92895
2.90778
2.88789
2.86918
2.85152
2.83483
2.81904
2.80407
2.78987
2.77637
2.76351
2.75129
2.78923
2.78881
2.78834
2.78771
2.78684
2.78558
2.78379
2.78122
2.77747
2.77173
2.76348
2.754
2.74884
2.75701
2.78757
2.84835
2.94118
3.06174
3.19985
3.34412
3.47333
3.56806
3.58194
3.55549
3.50436
3.44223
3.37889
3.31928
3.26514
3.21649
3.17278
3.13328
3.09735
3.06446
3.03417
3.00616
2.98015
2.95592
2.93328
2.91206
2.89214
2.87339
2.8557
2.839
2.82319
2.80821
2.79399
2.78052
2.7677
2.75538
2.79915
2.80032
2.80169
2.80324
2.80493
2.80672
2.80857
2.8104
2.81207
2.81324
2.81372
2.81448
2.81943
2.83525
2.86916
2.92723
3.01105
3.11725
3.23734
3.36326
3.47551
3.56562
3.5728
3.54457
3.49388
3.43356
3.37241
3.31483
3.26234
3.21498
3.17223
3.13345
3.09806
3.06558
3.03562
3.00787
2.98207
2.95802
2.93554
2.91447
2.89467
2.87604
2.85847
2.84187
2.82618
2.8113
2.79719
2.78383
2.77115
2.75882
2.80863
2.81128
2.81438
2.81793
2.82197
2.82651
2.83161
2.8373
2.84362
2.85053
2.85813
2.86722
2.88055
2.90288
2.93953
2.99491
3.07019
3.16262
3.26549
3.37393
3.4719
3.55009
3.55508
3.52428
3.47493
3.41728
3.3592
3.30441
3.25423
3.20871
3.1674
3.12977
3.09529
3.06355
3.0342
3.00697
2.98162
2.95796
2.93583
2.91507
2.89556
2.87719
2.85987
2.8435
2.82803
2.81336
2.79945
2.7863
2.77384
2.76158
2.81758
2.82161
2.82628
2.83165
2.83779
2.84477
2.85269
2.86167
2.87184
2.88336
2.89648
2.91193
2.93165
2.95889
2.99733
3.04986
3.11711