/*--------------------------------*- C++ -*----------------------------------*\
  =========                 |
  \\      /  F ield         | OpenFOAM: The Open Source CFD Toolbox
   \\    /   O peration     | Website:  https://openfoam.org
    \\  /    A nd           | Version:  9
     \\/     M anipulation  |
\*---------------------------------------------------------------------------*/
FoamFile
{
    format      ascii;
    class       volScalarField;
    location    "0.16";
    object      p_rgh;
}
// * * * * * * * * * * * * * * * * * * * * * * * * * * * * * * * * * * * * * //

dimensions      [1 -1 -2 0 0 0 0];

internalField   nonuniform List<scalar> 
5000
(
-0.298887
-0.344295
-0.399233
-0.4656
-0.545811
-0.643693
-0.765575
-0.921509
-1.11588
-1.3842
-2.04311
-2.3163
-106.468
-2277.75
-2943.02
-2943.32
-2944.17
-2944.99
-2945.19
-2944.54
-2943.77
-2943.81
-2944.76
-2946.06
-2946.72
-2946.52
-2945.83
-2945.05
-2944.88
-2526.38
-366.537
-2.96124
-2.41043
-1.97779
-1.71166
-1.52125
-1.34157
-1.17426
-1.02385
-0.889689
-0.769153
-0.659661
-0.559266
-0.466604
-0.380706
-0.300826
-0.226339
-0.15673
-0.0914226
-0.0310112
-0.302304
-0.345718
-0.396889
-0.457659
-0.530316
-0.616625
-0.719111
-0.84823
-1.00632
-1.17562
-1.693
-1.62381
-6.62869
-1984.6
-2942.78
-2942.57
-2943.5
-2944.67
-2945.37
-2945.04
-2944.05
-2943.52
-2943.98
-2945.08
-2945.75
-2945.52
-2944.67
-2943.49
-2942.95
-2352.97
-229.884
-2.79636
-2.51815
-1.77462
-1.55531
-1.39654
-1.24304
-1.09556
-0.959935
-0.837185
-0.725882
-0.624128
-0.530325
-0.443325
-0.36232
-0.286706
-0.215983
-0.149724
-0.0874731
-0.0296177
-0.303023
-0.343906
-0.391036
-0.445591
-0.509461
-0.583276
-0.665391
-0.763191
-0.883999
-0.961713
-1.21331
-1.02725
-0.29335
-1423.64
-2938.68
-2942.19
-2942.84
-2944.29
-2945.61
-2945.7
-2944.5
-2943.19
-2942.83
-2943.51
-2944.2
-2944.04
-2943.05
-2941.49
-2940.09
-1890.88
-22.6212
-2.50813
-2.61127
-1.59892
-1.39784
-1.27021
-1.14019
-1.01204
-0.891303
-0.780147
-0.678301
-0.584556
-0.497671
-0.416699
-0.340976
-0.270015
-0.203421
-0.140877
-0.0820997
-0.0275299
-0.301586
-0.33938
-0.382297
-0.430685
-0.48531
-0.546169
-0.60911
-0.675695
-0.7603
-0.770166
-0.820356
-0.685369
-0.104541
-770.565
-2814.93
-2941.87
-2942.1
-2943.5
-2945.41
-2945.95
-2944.51
-2942.34
-2940.96
-2941.01
-2941.67
-2941.68
-2940.61
-2938.69
-2870.54
-1041.68
-2.62054
-2.23177
-2.18222
-1.4773
-1.24955
-1.14911
-1.04004
-0.929372
-0.822399
-0.722241
-0.629541
-0.54366
-0.463688
-0.388862
-0.318634
-0.2526
-0.19044
-0.131865
-0.0765149
-0.0246899
-0.29857
-0.333092
-0.371589
-0.413829
-0.459473
-0.508035
-0.554487
-0.594043
-0.646614
-0.619831
-0.573281
-0.514769
-0.165101
-148.986
-2495.7
-2942.55
-2940.92
-2941.87
-2944.27
-2945.14
-2943.41
-2940.35
-2937.94
-2937.21
-2937.65
-2937.86
-2936.88
-2934.73
-2269.13
-204.009
-1.99646
-2.12779
-1.73688
-1.35063
-1.11974
-1.04195
-0.94951
-0.852755
-0.757248
-0.6667
-0.582259
-0.503652
-0.430201
-0.361289
-0.296457
-0.235372
-0.177776
-0.123428
-0.0719299
-0.0233461
-0.29428
-0.325518
-0.359642
-0.396017
-0.433419
-0.47098
-0.504081
-0.522458
-0.547505
-0.506524
-0.483949
-0.391877
-0.23583
-0.465026
-1500.34
-2938.7
-2939.79
-2939.71
-2941.98
-2942.89
-2940.8
-2936.88
-2933.54
-2931.98
-2932.03
-2932.68
-2932.56
-2638.94
-761.884
-2.35399
-1.54911
-1.98004
-1.71109
-1.22838
-1.02324
-0.954433
-0.872792
-0.78542
-0.698455
-0.615597
-0.538088
-0.465785
-0.398113
-0.334515
-0.274572
-0.217988
-0.164544
-0.114074
-0.0663584
-0.0215311
-0.289012
-0.317094
-0.34711
-0.378169
-0.408423
-0.436569
-0.459044
-0.462213
-0.464996
-0.417948
-0.405277
-0.27862
-0.229877
-0.237343
-162.006
-2073.29
-2937.79
-2937.42
-2938.94
-2939.44
-2936.89
-2932.35
-2928.08
-2925.41
-2925.05
-2926.94
-2692.83
-1004.2
-4.77967
-1.42896
-1.38194
-1.39368
-1.6521
-1.22535
-0.953331
-0.886767
-0.808386
-0.726668
-0.645762
-0.568907
-0.497149
-0.430292
-0.367765
-0.309026
-0.253674
-0.201431
-0.152092
-0.105481
-0.0614086
-0.0199778
-0.283096
-0.308272
-0.334569
-0.360984
-0.385373
-0.405953
-0.420232
-0.413632
-0.400839
-0.353181
-0.336816
-0.188237
-0.200408
-0.124207
-0.265613
-343.223
-2118.74
-2932.78
-2934.21
-2935.17
-2932.5
-2927.75
-2923.02
-2918.09
-2916.04
-2352.74
-836.879
-3.47852
-1.25831
-2.93283
-1.86032
-1.31433
-1.63437
-1.18066
-0.892264
-0.825004
-0.749673
-0.671858
-0.595987
-0.524504
-0.458054
-0.396298
-0.338646
-0.284556
-0.233627
-0.185573
-0.140185
-0.0972617
-0.0565786
-0.0182927
-0.27681
-0.299384
-0.32242
-0.344909
-0.364753
-0.379695
-0.388153
-0.376458
-0.354955
-0.307208
-0.299862
-0.135639
-0.174042
-0.119687
-0.11507
-0.457765
-262.644
-1519.92
-2459.53
-2757.54
-2824.49
-2783.7
-2626.71
-2257.68
-1495.51
-405.098
-1.11281
-0.65084
-1.15946
-2.82456
-2.83197
-1.24382
-1.47505
-1.08898
-0.816398
-0.755896
-0.685567
-0.613982
-0.544575
-0.479317
-0.418659
-0.362282
-0.309649
-0.260267
-0.213756
-0.169839
-0.128321
-0.0890334
-0.051719
-0.0164553
-0.270371
-0.290666
-0.310926
-0.330172
-0.346675
-0.357818
-0.362768
-0.349706
-0.325795
-0.281548
-0.287833
-0.146316
-0.172829
-0.149619
-0.116507
-0.16963
-0.438118
-24.8742
-340.841
-698.515
-896.282
-861.464
-656.461
-332.307
-41.7176
-1.25345
-1.22645
-0.594447
-0.658747
-2.2632
-2.69419
-1.67709
-0.851401
-0.982454
-0.731781
-0.679537
-0.614587
-0.551433
-0.489992
-0.432022
-0.377902
-0.32741
-0.280133
-0.235671
-0.193707
-0.154003
-0.116389
-0.0807552
-0.0469135
-0.0148777
-0.263937
-0.28227
-0.300251
-0.316948
-0.331113
-0.340045
-0.343637
-0.332128
-0.311234
-0.305585
-0.299187
-0.227527
-0.179997
-0.168389
-0.138054
-0.162332
-0.266356
-0.318677
-0.464371
-0.639426
-0.751292
-0.798636
-0.943172
-0.818921
-0.987325
-1.06211
-0.677902
-0.563117
-0.592206
-1.11424
-2.58358
-2.35549
-0.702686
-0.727773
-0.646931
-0.599753
-0.540792
-0.486609
-0.433669
-0.383464
-0.336283
-0.291984
-0.250279
-0.210879
-0.173555
-0.138127
-0.104468
-0.0725132
-0.0421772
-0.0134777
-0.257611
-0.274314
-0.290469
-0.305297
-0.317957
-0.325931
-0.32986
-0.322052
-0.308435
-0.355313
-0.307941
-0.269219
-0.200587
-0.186868
-0.165192
-0.190636
-0.229904
-0.294173
-0.394826
-0.527068
-0.631275
-0.69449
-0.738294
-0.726455
-0.664818
-0.555762
-0.513775
-0.521584
-0.541686
-0.651854
-1.43606
-1.59738
-0.634139
-0.597895
-0.567772
-0.518321
-0.467898
-0.422061
-0.377554
-0.335145
-0.294954
-0.256882
-0.22075
-0.186386
-0.153654
-0.122451
-0.0927028
-0.0643876
-0.0374966
-0.0120819
-0.251444
-0.26678
-0.281494
-0.295034
-0.306844
-0.314779
-0.320136
-0.317328
-0.313024
-0.332883
-0.260966
-0.310205
-0.226614
-0.21207
-0.197286
-0.216513
-0.24318
-0.282675
-0.320793
-0.352554
-0.378009
-0.400853
-0.420189
-0.438981
-0.447232
-0.457646
-0.468842
-0.474779
-0.484442
-0.637784
-0.678827
-0.549617
-0.5236
-0.491093
-0.469142
-0.429554
-0.393488
-0.357578
-0.322311
-0.288036
-0.254913
-0.223017
-0.192346
-0.162872
-0.134574
-0.107437
-0.0814489
-0.05664
-0.0330526
-0.0107322
-0.245451
-0.259584
-0.273152
-0.285834
-0.297261
-0.305769
-0.313138
-0.315898
-0.320506
-0.32276
-0.300028
-0.31312
-0.26216
-0.243935
-0.230253
-0.242201
-0.263897
-0.294237
-0.322921
-0.349714
-0.370804
-0.386894
-0.400585
-0.411843
-0.420458
-0.427153
-0.431748
-0.433332
-0.435148
-0.726334
-1.05674
-0.443296
-0.432415
-0.385274
-0.366573
-0.342606
-0.320204
-0.295455
-0.269835
-0.243759
-0.217565
-0.191603
-0.166101
-0.14121
-0.11704
-0.0936651
-0.0711426
-0.0495569
-0.0289953
-0.00948593
-0.239647
-0.252702
-0.265328
-0.277413
-0.288727
-0.298121
-0.307711
-0.315908
-0.32837
-0.346129
-0.341208
-0.32736
-0.301672
-0.276399
-0.261523
-0.267479
-0.286854
-0.30946
-0.331462
-0.35481
-0.372707
-0.385543
-0.395247
-0.401865
-0.405326
-0.405727
-0.402721
-0.395916
-0.385766
-0.735128
-1.11473
-0.371322
-0.332085
-0.302527
-0.288037
-0.271588
-0.257881
-0.24226
-0.224711
-0.205565
-0.185331
-0.164505
-0.143489
-0.122576
-0.101981
-0.081857
-0.0623179
-0.0434968
-0.025524
-0.00841255
-0.234027
-0.246125
-0.25794
-0.269533
-0.280818
-0.291067
-0.302654
-0.315508
-0.334604
-0.367239
-0.450975
-0.367194
-0.349364
-0.305487
-0.288791
-0.290337
-0.312033
-0.325378
-0.341709
-0.361885
-0.37702
-0.387127
-0.393496
-0.39611
-0.394844
-0.389683
-0.380463
-0.366989
-0.349777
-0.661882
-1.07021
-0.503852
-0.25539
-0.241093
-0.22797
-0.219104
-0.211872
-0.202351
-0.190559
-0.176405
-0.160566
-0.143608
-0.126023
-0.108181
-0.0903593
-0.0727583
-0.0555299
-0.0388418
-0.0228602
-0.00758943
-0.228561
-0.239812
-0.250889
-0.26196
-0.273133
-0.283967
-0.296924
-0.313048
-0.337086
-0.380661
-0.520189
-0.447778
-0.387828
-0.328564
-0.310908
-0.312599
-0.328782
-0.337391
-0.35225
-0.369826
-0.382634
-0.390435
-0.394113
-0.393591
-0.388753
-0.379532
-0.365884
-0.348107
-0.327469
-0.491037
-1.06358
-0.975871
-0.208072
-0.20264
-0.187981
-0.185423
-0.182431
-0.176921
-0.168651
-0.157618
-0.14454
-0.130059
-0.114707
-0.0988861
-0.0828937
-0.0669509
-0.0512259
-0.0359053
-0.0211838
-0.00706988
-0.22321
-0.233685
-0.244046
-0.2545
-0.265335
-0.27635
-0.289865
-0.307629
-0.333888
-0.388229
-0.52898
-0.526964
-0.403151
-0.344172
-0.327107
-0.346701
-0.343353
-0.346144
-0.362862
-0.378765
-0.39002
-0.396235
-0.398057
-0.395369
-0.388024
-0.375924
-0.35911
-0.338058
-0.313954
-0.302117
-0.93187
-1.05607
-0.239463
-0.181357
-0.17382
-0.172898
-0.170999
-0.166777
-0.159624
-0.149732
-0.137758
-0.124356
-0.110038
-0.0951889
-0.080089
-0.0649443
-0.0499079
-0.0351516
-0.0208643
-0.00702376
-0.217948
-0.227669
-0.237285
-0.247008
-0.257231
-0.267951
-0.281182
-0.299014
-0.324932
-0.396327
-0.523183
-0.52733
-0.398619
-0.351298
-0.344621
-0.358448
-0.350373
-0.357462
-0.373748
-0.389155
-0.399918
-0.405488
-0.406414
-0.402557
-0.393743
-0.37993
-0.361335
-0.33867
-0.31319
-0.286947
-0.533251
-1.05816
-0.761346
-0.186672
-0.183689
-0.18014
-0.177194
-0.171747
-0.16344
-0.152726
-0.140233
-0.126554
-0.112134
-0.0972918
-0.0822545
-0.0671733
-0.0521345
-0.037204
-0.0224192
-0.00764414
-0.212772
-0.221729
-0.230544
-0.239411
-0.248744
-0.258677
-0.270825
-0.287302
-0.31069
-0.383546
-0.504035
-0.513268
-0.380138
-0.350158
-0.36386
-0.365776
-0.355573
-0.367879
-0.385139
-0.401457
-0.413033
-0.419032
-0.420144
-0.416196
-0.406999
-0.392659
-0.37367
-0.351264
-0.3276
-0.305714
-0.427038
-1.09815
-1.09759
-0.220426
-0.208172
-0.204121
-0.198656
-0.190175
-0.178858
-0.165685
-0.151285
-0.136166
-0.120693
-0.105133
-0.0896988
-0.074583
-0.0599763
-0.0461145
-0.0332873
-0.0216304
-0.207701
-0.215867
-0.223818
-0.231702
-0.239887
-0.248566
-0.258922
-0.27277
-0.291782
-0.350414
-0.474785
-0.486688
-0.358019
-0.344187
-0.36287
-0.360393
-0.359781
-0.377669
-0.397467
-0.421675
-0.439693
-0.440577
-0.440106
-0.437226
-0.428781
-0.414976
-0.39638
-0.374294
-0.350697
-0.328115
-0.435962
-1.14518
-1.14066
-0.477482
-0.252537
-0.24416
-0.233179
-0.219477
-0.203816
-0.186977
-0.169574
-0.152015
-0.134556
-0.117368
-0.100583
-0.0843201
-0.0686793
-0.0537666
-0.0396352
-0.0261567
-0.202765
-0.21011
-0.217134
-0.223921
-0.23075
-0.23778
-0.245797
-0.256095
-0.269674
-0.316342
-0.438997
-0.440528
-0.340817
-0.348363
-0.358266
-0.347441
-0.364998
-0.38861
-0.429637
-0.457428
-0.47449
-0.485889
-0.485212
-0.467292
-0.460061
-0.448016
-0.430845
-0.409788
-0.386292
-0.361829
-0.634923
-1.19854
-1.17512
-0.834884
-0.302619
-0.290105
-0.274582
-0.255746
-0.235476
-0.214476
-0.193442
-0.172741
-0.152543
-0.132928
-0.113948
-0.0956536
-0.0780889
-0.0612925
-0.0453599
-0.0307418
-0.198004
-0.204502
-0.210556
-0.216156
-0.221484
-0.226582
-0.231913
-0.238198
-0.246123
-0.286591
-0.399869
-0.323373
-0.361751
-0.368478
-0.337812
-0.345291
-0.369764
-0.417846
-0.449607
-0.477949
-0.500943
-0.51644
-0.526232
-0.529227
-0.509947
-0.492951
-0.478681
-0.460817
-0.44128
-0.422472
-0.969371
-1.24015
-1.1076
-0.728337
-0.344667
-0.334378
-0.31782
-0.295828
-0.271633
-0.246597
-0.221744
-0.197557
-0.174208
-0.15174
-0.130163
-0.109508
-0.0897967
-0.0709856
-0.053119
-0.0372543
-0.193467
-0.199117
-0.204184
-0.208546
-0.212286
-0.215286
-0.217745
-0.219814
-0.221862
-0.249746
-0.363047
-0.273281
-0.333651
-0.329505
-0.316769
-0.341086
-0.389717
-0.427388
-0.461905
-0.486618
-0.511236
-0.540846
-0.570028
-0.577737
-0.578713
-0.559408
-0.539932
-0.525888
-0.510385
-0.495433
-0.952358
-1.30765
-0.981022
-0.505847
-0.401861
-0.389655
-0.369596
-0.342908
-0.313731
-0.283945
-0.254739
-0.226634
-0.199771
-0.174143
-0.14972
-0.126504
-0.104488
-0.083518
-0.0635652
-0.0462502
-0.189212
-0.194044
-0.198137
-0.201256
-0.203381
-0.204228
-0.203764
-0.201637
-0.197696
-0.203635
-0.233974
-0.23557
-0.303814
-0.279167
-0.30264
-0.341579
-0.391823
-0.43295
-0.461128
-0.506254
-0.545276
-0.575649
-0.60041
-0.627214
-0.642948
-0.630645
-0.614634
-0.604178
-0.591904
-0.579633
-0.873096
-1.41325
-1.27712
-0.526284
-0.485159
-0.462512
-0.434082
-0.399469
-0.363214
-0.327318
-0.292863
-0.260221
-0.229396
-0.200274
-0.172753
-0.14679
-0.122319
-0.0990607
-0.0769413
-0.0581142
-0.185293
-0.189369
-0.19253
-0.194457
-0.195006
-0.193758
-0.190465
-0.184441
-0.174684
-0.176085
-0.171042
-0.200433
-0.252118
-0.251133
-0.288371
-0.344511
-0.392087
-0.425867
-0.481355
-0.539439
-0.589671
-0.629817
-0.662276
-0.685977
-0.701466
-0.708108
-0.704059
-0.69605
-0.685994
-0.675821
-1.05892
-1.54432
-1.54404
-0.639105
-0.586397
-0.547193
-0.507227
-0.463055
-0.418395
-0.375536
-0.335268
-0.297703
-0.262648
-0.229858
-0.199137
-0.170382
-0.143441
-0.11787
-0.0935788
-0.073296
-0.181767
-0.18517
-0.187474
-0.188302
-0.187385
-0.184207
-0.17833
-0.168926
-0.154544
-0.166631
-0.223393
-0.252536
-0.203605
-0.225261
-0.276727
-0.334548
-0.375649
-0.435605
-0.505235
-0.577902
-0.642073
-0.693082
-0.736612
-0.770223
-0.793192
-0.805486
-0.808064
-0.802351
-0.791265
-0.776559
-1.61745
-1.68882
-1.67722
-0.748716
-0.696935
-0.636812
-0.583968
-0.529279
-0.47604
-0.426211
-0.380192
-0.337794
-0.298628
-0.262313
-0.228562
-0.197198
-0.167965
-0.140217
-0.113878
-0.0923203
-0.178692
-0.181516
-0.18307
-0.18293
-0.180716
-0.17585
-0.16772
-0.155303
-0.136903
-0.147786
-0.213517
-0.230708
-0.175847
-0.20113
-0.254004
-0.310042
-0.370667
-0.446091
-0.530468
-0.620134
-0.699571
-0.765128
-0.821741
-0.867577
-0.901605
-0.922834
-0.930637
-0.926495
-0.911852
-1.25251
-1.83844
-1.82686
-1.80269
-0.841603
-0.798028
-0.724096
-0.658772
-0.594063
-0.533033
-0.476938
-0.425781
-0.379088
-0.336299
-0.296918
-0.260566
-0.226991
-0.195822
-0.166216
-0.138132
-0.115597
-0.176125
-0.178475
-0.179413
-0.178465
-0.17518
-0.168925
-0.158947
-0.143935
-0.122204
-0.117011
-0.192815
-0.205811
-0.146432
-0.177389
-0.229945
-0.29345
-0.367811
-0.456145
-0.556992
-0.665495
-0.763596
-0.845058
-0.916556
-0.977165
-1.02533
-1.05828
-1.07417
-1.07285
-1.21906
-1.98685
-1.98077
-1.95939
-1.44304
-0.940178
-0.878846
-0.802855
-0.72687
-0.653995
-0.586676
-0.525567
-0.470305
-0.420202
-0.374576
-0.332837
-0.294517
-0.259292
-0.226688
-0.195695
-0.166337
-0.143182
-0.174119
-0.176113
-0.176591
-0.175034
-0.170956
-0.163669
-0.152327
-0.135377
-0.111079
-0.0841916
-0.177897
-0.184833
-0.127448
-0.156838
-0.211315
-0.280565
-0.365476
-0.469815
-0.589177
-0.716879
-0.833151
-0.930556
-1.01837
-1.09632
-1.162
-1.21228
-1.23721
-1.30079
-2.09992
-2.15425
-2.1352
-2.09751
-1.12765
-1.03874
-0.958625
-0.871811
-0.786559
-0.707188
-0.63516
-0.570435
-0.512286
-0.459851
-0.412352
-0.36911
-0.329573
-0.293352
-0.2599
-0.228097
-0.198046
-0.174637
-0.172717
-0.17449
-0.174685
-0.172759
-0.168207
-0.160293
-0.148128
-0.130129
-0.104656
-0.0726315
-0.166908
-0.168954
-0.107328
-0.136192
-0.193447
-0.267913
-0.369811
-0.491396
-0.626818
-0.77106
-0.907704
-1.02021
-1.12279
-1.21957
-1.30549
-1.41049
-1.47259
-1.80093
-2.33097
-2.32252
-2.29076
-1.624
-1.21808
-1.12578
-1.02736
-0.928587
-0.835982
-0.751963
-0.676906
-0.610053
-0.550341
-0.496759
-0.448435
-0.404604
-0.364639
-0.328113
-0.294437
-0.262456
-0.232343
-0.20903
-0.171946
-0.173653
-0.173763
-0.171735
-0.167043
-0.158921
-0.146481
-0.128331
-0.103822
-0.127782
-0.161169
-0.158842
-0.0794229
-0.117111
-0.177301
-0.259346
-0.372581
-0.504934
-0.660509
-0.826841
-0.981382
-1.10804
-1.22338
-1.33766
-1.46383
-1.64393
-1.70681
-2.01453
-2.46451
-2.45955
-1.82074
-1.39994
-1.29545
-1.1852
-1.07364
-0.967708
-0.871481
-0.785715
-0.70987
-0.6427
-0.582948
-0.529516
-0.481468
-0.437979
-0.398385
-0.362247
-0.328974
-0.297435
-0.267849
-0.244996
-0.17182
-0.173628
-0.173868
-0.172012
-0.167508
-0.159582
-0.147354
-0.129679
-0.109854
-0.184665
-0.159321
-0.105864
-0.0611562
-0.104036
-0.164285
-0.255265
-0.373036
-0.507657
-0.693595
-0.880528
-1.04557
-1.1823
-1.3101
-1.45146
-1.65942
-1.7702
-1.77036
-1.9584
-2.39824
-1.94693
-1.57477
-1.45502
-1.33359
-1.21101
-1.09368
-0.986421
-0.890854
-0.806599
-0.732441
-0.666923
-0.608738
-0.55678
-0.5101
-0.467869
-0.429437
-0.394382
-0.362151
-0.331698
-0.303236
-0.281123
-0.172334
-0.174421
-0.175013
-0.173594
-0.16959
-0.16224
-0.150672
-0.133897
-0.117623
-0.187979
-0.162063
-0.0385215
-0.0561216
-0.0959978
-0.159046
-0.259381
-0.370688
-0.525825
-0.723973
-0.927759
-1.09591
-1.23829
-1.37886
-1.55952
-1.74098
-1.78881
-1.78844
-1.82294
-1.81296
-1.69291
-1.5775
-1.45457
-1.32704
-1.20303
-1.08814
-0.985135
-0.89423
-0.814389
-0.744144
-0.682058
-0.626888
-0.577584
-0.533249
-0.493109
-0.456569
-0.423245
-0.39265
-0.363885
-0.337096
-0.315913
-0.173471
-0.176016
-0.177174
-0.176443
-0.173246
-0.166855
-0.156433
-0.140992
-0.125552
-0.142891
-0.170476
-0.0435896
-0.0698568
-0.094922
-0.160977
-0.268866
-0.378293
-0.547435
-0.80241
-0.968907
-1.13514
-1.27406
-1.44044
-1.60877
-1.73728
-1.74859
-1.7817
-1.77618
-1.72791
-1.63866
-1.52634
-1.40515
-1.28267
-1.16654
-1.06063
-0.966325
-0.883181
-0.809999
-0.745411
-0.688155
-0.637133
-0.591414
-0.550209
-0.512848
-0.478813
-0.447762
-0.419292
-0.392706
-0.368032
-0.347914
-0.175199
-0.178369
-0.180293
-0.180492
-0.178414
-0.173385
-0.164661
-0.151242
-0.135273
-0.104617
-0.107883
-0.103089
-0.1076
-0.102912
-0.168834
-0.27765
-0.422186
-0.84046
-1.2485
-1.08627
-1.15525
-1.28665
-1.45616
-1.59394
-1.64745
-1.69997
-1.71635
-1.6929
-1.63285
-1.54337
-1.43677
-1.32428
-1.21369
-1.11052
-1.01711
-0.933937
-0.860305
-0.795139
-0.737315
-0.685796
-0.639676
-0.598183
-0.560672
-0.526599
-0.495528
-0.467151
-0.441168
-0.417115
-0.394865
-0.375899
-0.177474
-0.181419
-0.184291
-0.185655
-0.185014
-0.181769
-0.175321
-0.164729
-0.148363
-0.123611
-0.122627
-0.16521
-0.111099
-0.120702
-0.196447
-0.289683
-0.485671
-1.05029
-1.28526
-1.44463
-1.15418
-1.27538
-1.43219
-1.53453
-1.56491
-1.60376
-1.60366
-1.56872
-1.50472
-1.41999
-1.32414
-1.22572
-1.13076
-1.04282
-0.963222
-0.891987
-0.828478
-0.77186
-0.721274
-0.675919
-0.635086
-0.598177
-0.564699
-0.534232
-0.506413
-0.480964
-0.45769
-0.436381
-0.416729
-0.398962
-0.180238
-0.185087
-0.189075
-0.191829
-0.192937
-0.191901
-0.188299
-0.181478
-0.169826
-0.150218
-0.21252
-0.197608
-0.120702
-0.153329
-0.222889
-0.300023
-0.458816
-0.916455
-1.29358
-1.49945
-1.13437
-1.24015
-1.36979
-1.43745
-1.45245
-1.4713
-1.45847
-1.41851
-1.35747
-1.28261
-1.20128
-1.11957
-1.04146
-0.969109
-0.903224
-0.843745
-0.790229
-0.742104
-0.69876
-0.659617
-0.624161
-0.591956
-0.562645
-0.53592
-0.511482
-0.489067
-0.468593
-0.450106
-0.433107
-0.416557
-0.183418
-0.189282
-0.19454
-0.198897
-0.202038
-0.203589
-0.20331
-0.200903
-0.195361
-0.204846
-0.255094
-0.210969
-0.154994
-0.188749
-0.25101
-0.328478
-0.443851
-0.60068
-1.25873
-1.47725
-1.26017
-1.17578
-1.27077
-1.32044
-1.31407
-1.31688
-1.29662
-1.25754
-1.20456
-1.14303
-1.07794
-1.01318
-0.951271
-0.893503
-0.840349
-0.791818
-0.747681
-0.707597
-0.671176
-0.638034
-0.607824
-0.580252
-0.555074
-0.532074
-0.511002
-0.49161
-0.473919
-0.45822
-0.443829
-0.428497
-0.186928
-0.193905
-0.20057
-0.206718
-0.212127
-0.216555
-0.219931
-0.222273
-0.223564
-0.309036
-0.293774
-0.193547
-0.197866
-0.232532
-0.287649
-0.379881
-0.471682
-0.609084
-0.875891
-1.44269
-1.26961
-1.08586
-1.15364
-1.19744
-1.16285
-1.15456
-1.1321
-1.09842
-1.05648
-1.00946
-0.960242
-0.91114
-0.863715
-0.818859
-0.776995
-0.738256
-0.702597
-0.66986
-0.639839
-0.61231
-0.587062
-0.563908
-0.542694
-0.523277
-0.505451
-0.488977
-0.473965
-0.460933
-0.44903
-0.434909
-0.190667
-0.198845
-0.207035
-0.215123
-0.222978
-0.230485
-0.237742
-0.245024
-0.255278
-0.34714
-0.335282
-0.281647
-0.247556
-0.287636
-0.374026
-0.44908
-0.506603
-0.651727
-1.14824
-1.40263
-1.18026
-0.986348
-1.03678
-1.05979
-1.01569
-0.995412
-0.975148
-0.949577
-0.919613
-0.886443
-0.851428
-0.815867
-0.780806
-0.746972
-0.714819
-0.684594
-0.656392
-0.630202
-0.605952
-0.583543
-0.562866
-0.543812
-0.526295
-0.510234
-0.495455
-0.481724
-0.469231
-0.458685
-0.449097
-0.43617
-0.194527
-0.203978
-0.213784
-0.223916
-0.234334
-0.245054
-0.256378
-0.268906
-0.307536
-0.385001
-0.379426
-0.379804
-0.301603
-0.351525
-0.46656
-0.518239
-0.558213
-0.980739
-1.24844
-1.3512
-1.14481
-0.883932
-0.911362
-0.92172
-0.898629
-0.847358
-0.832081
-0.815545
-0.796907
-0.77586
-0.752785
-0.728426
-0.703579
-0.678915
-0.654928
-0.63195
-0.610178
-0.589707
-0.570562
-0.55273
-0.536173
-0.520841
-0.506697
-0.493707
-0.481724
-0.47052
-0.460344
-0.452065
-0.444589
-0.432838
-0.198398
-0.20917
-0.220645
-0.232875
-0.245907
-0.2599
-0.275399
-0.293359
-0.35468
-0.42344
-0.425173
-0.431832
-0.357415
-0.422255
-0.521283
-0.524842
-0.600644
-1.10583
-1.21708
-1.28632
-1.19228
-0.782741
-0.778546
-0.792164
-0.754712
-0.715221
-0.705893
-0.697916
-0.689032
-0.677936
-0.664463
-0.649081
-0.632473
-0.615287
-0.598046
-0.581134
-0.564817
-0.549259
-0.534551
-0.52074
-0.507833
-0.495819
-0.484696
-0.474465
-0.465003
-0.456086
-0.448005
-0.441753
-0.436167
-0.425573
-0.202167
-0.214279
-0.227435
-0.241759
-0.25739
-0.274624
-0.294233
-0.317451
-0.366484
-0.43367
-0.462168
-0.439142
-0.413345
-0.532861
-0.570935
-0.560406
-0.589258
-0.707672
-1.15686
-1.2188
-1.04287
-0.68533
-0.658254
-0.643191
-0.612768
-0.600245
-0.596918
-0.596347
-0.595322
-0.592013
-0.586005
-0.577645
-0.567556
-0.556371
-0.54462
-0.532719
-0.520969
-0.509575
-0.49867
-0.488335
-0.478609
-0.469503
-0.461042
-0.453251
-0.446026
-0.439147
-0.432932
-0.428464
-0.424546
-0.415081
-0.205725
-0.21916
-0.233964
-0.250328
-0.268487
-0.288854
-0.312398
-0.340617
-0.374042
-0.407662
-0.521911
-0.440762
-0.475657
-0.582703
-0.6009
-0.622849
-0.694721
-0.610492
-0.652592
-1.14931
-0.77107
-0.597132
-0.559536
-0.528641
-0.509036
-0.502239
-0.504197
-0.50955
-0.514503
-0.517042
-0.516671
-0.513685
-0.508667
-0.502225
-0.494887
-0.487076
-0.479106
-0.471201
-0.463513
-0.456144
-0.44915
-0.442559
-0.43641
-0.430746
-0.42548
-0.420395
-0.415823
-0.412902
-0.410433
-0.402067
-0.208967
-0.223673
-0.240052
-0.258362
-0.278932
-0.302292
-0.329582
-0.362471
-0.400985
-0.436969
-0.559722
-0.482977
-0.543941
-0.624854
-0.636944
-0.77691
-0.762168
-0.596612
-0.60741
-0.694104
-0.729736
-0.51834
-0.475188
-0.442089
-0.423821
-0.420273
-0.426285
-0.435936
-0.445138
-0.451867
-0.455615
-0.456643
-0.455493
-0.452745
-0.44891
-0.4444
-0.439526
-0.434512
-0.429516
-0.424649
-0.419978
-0.415538
-0.411376
-0.407548
-0.403978
-0.400458
-0.397318
-0.395722
-0.394497
-0.387195
-0.211793
-0.227687
-0.245535
-0.265669
-0.288507
-0.314664
-0.345476
-0.382608
-0.427003
-0.48883
-0.598766
-0.519744
-0.565915
-0.63088
-0.727906
-0.795781
-0.682542
-0.580176
-0.568683
-0.548947
-0.579129
-0.446539
-0.402344
-0.369361
-0.353131
-0.352356
-0.361267
-0.37377
-0.385766
-0.395323
-0.401953
-0.405887
-0.407624
-0.407704
-0.406613
-0.404739
-0.402377
-0.399737
-0.396974
-0.394201
-0.391489
-0.388876
-0.38641
-0.384154
-0.382046
-0.379881
-0.377982
-0.377509
-0.377341
-0.371064
-0.214107
-0.231083
-0.250276
-0.272088
-0.297016
-0.325749
-0.359735
-0.400702
-0.451168
-0.571692
-0.611791
-0.552176
-0.581596
-0.646929
-0.832868
-0.809642
-0.604969
-0.56178
-0.533236
-0.523806
-0.467818
-0.39364
-0.340513
-0.309294
-0.295304
-0.296573
-0.307269
-0.321383
-0.334982
-0.346271
-0.354791
-0.360742
-0.364571
-0.366777
-0.367807
-0.368018
-0.367677
-0.366975
-0.366055
-0.365027
-0.36396
-0.362893
-0.361872
-0.360961
-0.360106
-0.359113
-0.358286
-0.358761
-0.359485
-0.354193
-0.215818
-0.233756
-0.254156
-0.27748
-0.304295
-0.335354
-0.372178
-0.416994
-0.475253
-0.59534
-0.603456
-0.578721
-0.606379
-0.648915
-0.846341
-0.816091
-0.592831
-0.544572
-0.614264
-0.610124
-0.524875
-0.33832
-0.290502
-0.261179
-0.248911
-0.251297
-0.26266
-0.277289
-0.291501
-0.303633
-0.313248
-0.320505
-0.325795
-0.329563
-0.332211
-0.334057
-0.335335
-0.33621
-0.336812
-0.33724
-0.337558
-0.337803
-0.338014
-0.338255
-0.338479
-0.338503
-0.338605
-0.339882
-0.341361
-0.337015
-0.216842
-0.235615
-0.257072
-0.281731
-0.310202
-0.343297
-0.382523
-0.43034
-0.49441
-0.614354
-0.649053
-0.601207
-0.625427
-0.656421
-0.851392
-0.78864
-0.580986
-0.565355
-0.627959
-0.57266
-0.518533
-0.301986
-0.250946
-0.223666
-0.212401
-0.21494
-0.225934
-0.240119
-0.25412
-0.266375
-0.276454
-0.284458
-0.290714
-0.295601
-0.299471
-0.302596
-0.305173
-0.30734
-0.309205
-0.310857
-0.312352
-0.313718
-0.314991
-0.316227
-0.31739
-0.318303
-0.319221
-0.321184
-0.323307
-0.319875
-0.217102
-0.23658
-0.258937
-0.284736
-0.314615
-0.34942
-0.390638
-0.440683
-0.506488
-0.630767
-0.669571
-0.618685
-0.643525
-0.833503
-0.848709
-0.806958
-0.593647
-0.538079
-0.603004
-0.542621
-0.487306
-0.325661
-0.220943
-0.195073
-0.184189
-0.185915
-0.195594
-0.208553
-0.221669
-0.23348
-0.243536
-0.251865
-0.258712
-0.264387
-0.26918
-0.273314
-0.276947
-0.280187
-0.283119
-0.285817
-0.288326
-0.290668
-0.292869
-0.294982
-0.296974
-0.29868
-0.300328
-0.302891
-0.305579
-0.303035
-0.216537
-0.23658
-0.259669
-0.286399
-0.31743
-0.353613
-0.396454
-0.448256
-0.513006
-0.617137
-0.683016
-0.629934
-0.662979
-0.852513
-0.838258
-0.796265
-0.708691
-0.518217
-0.512861
-0.516943
-0.403415
-0.291211
-0.199923
-0.202207
-0.165312
-0.162668
-0.170223
-0.181279
-0.192979
-0.203928
-0.213614
-0.22197
-0.229151
-0.235384
-0.240891
-0.245846
-0.250363
-0.254521
-0.258381
-0.261996
-0.265404
-0.268615
-0.27165
-0.274552
-0.277296
-0.279729
-0.282048
-0.285157
-0.288356
-0.286686
-0.215097
-0.235559
-0.259199
-0.286637
-0.318555
-0.355795
-0.399879
-0.453048
-0.516807
-0.586349
-0.664834
-0.635552
-0.660824
-0.823738
-0.825859
-0.781026
-0.719515
-0.514872
-0.399024
-0.381768
-0.266202
-0.243
-0.254031
-0.237275
-0.191805
-0.143055
-0.148153
-0.156869
-0.16683
-0.176673
-0.185786
-0.194004
-0.201374
-0.208034
-0.214137
-0.2198
-0.225098
-0.230077
-0.234776
-0.239229
-0.243459
-0.247472
-0.25128
-0.254919
-0.258367
-0.261486
-0.264445
-0.268071
-0.271755
-0.270953
-0.212747
-0.233468
-0.257468
-0.28538
-0.317913
-0.355909
-0.400865
-0.455074
-0.519596
-0.596507
-0.627514
-0.639625
-0.648833
-0.653886
-0.660515
-0.767204
-0.700377
-0.472939
-0.368565
-0.295226
-0.247235
-0.219447
-0.248124
-0.224707
-0.208413
-0.125279
-0.127736
-0.133864
-0.14198
-0.150647
-0.159145
-0.167194
-0.174724
-0.181781
-0.188443
-0.194776
-0.200814
-0.206574
-0.21207
-0.217322
-0.222341
-0.227123
-0.231675
-0.236027
-0.24016
-0.243949
-0.247538
-0.251677
-0.25584
-0.255909
-0.209466
-0.230276
-0.254431
-0.282578
-0.315448
-0.353912
-0.399421
-0.454441
-0.520481
-0.606278
-0.631367
-0.643905
-0.642651
-0.629501
-0.596742
-0.742592
-0.681199
-0.460395
-0.405582
-0.386903
-0.238638
-0.190874
-0.199361
-0.212199
-0.175179
-0.11535
-0.107524
-0.110863
-0.117203
-0.12479
-0.132795
-0.140787
-0.148565
-0.156083
-0.163351
-0.170384
-0.17718
-0.18373
-0.190028
-0.196079
-0.201884
-0.207435
-0.212731
-0.217797
-0.222619
-0.227084
-0.231312
-0.235976
-0.240632
-0.241579
-0.205246
-0.225964
-0.250059
-0.278198
-0.311127
-0.349772
-0.39553
-0.451065
-0.518619
-0.605764
-0.635239
-0.648604
-0.644939
-0.632535
-0.660124
-0.754988
-0.658375
-0.444199
-0.370848
-0.394958
-0.21783
-0.168449
-0.140801
-0.121192
-0.109332
-0.141609
-0.0850945
-0.0862019
-0.0911434
-0.098029
-0.105876
-0.114071
-0.122303
-0.130443
-0.13844
-0.146265
-0.15389
-0.161283
-0.168426
-0.175311
-0.181932
-0.188276
-0.19434
-0.200143
-0.205675
-0.210836
-0.215728
-0.220947
-0.226121
-0.227956
-0.200087
-0.220527
-0.244346
-0.272229
-0.304941
-0.343468
-0.389172
-0.44487
-0.513291
-0.603091
-0.641693
-0.652076
-0.648752
-0.644374
-0.804812
-0.746297
-0.669899
-0.441926
-0.348099
-0.379304
-0.174286
-0.138254
-0.112807
-0.0917824
-0.1173
-0.128961
-0.0566029
-0.0576657
-0.0622935
-0.0693177
-0.077598
-0.0864269
-0.095436
-0.104443
-0.113357
-0.122121
-0.130689
-0.139018
-0.147079
-0.154859
-0.162347
-0.16953
-0.176401
-0.182979
-0.189256
-0.195148
-0.200737
-0.206553
-0.212286
-0.215014
-0.193999
-0.213975
-0.237301
-0.26468
-0.296899
-0.335
-0.380345
-0.435882
-0.504666
-0.597045
-0.644462
-0.654619
-0.654221
-0.66718
-0.798917
-0.73916
-0.660036
-0.441225
-0.331654
-0.351864
-0.162065
-0.0993875
-0.0762286
-0.191715
-0.274067
-0.061727
-0.0213614
-0.0239341
-0.0297186
-0.0379652
-0.0474181
-0.0574239
-0.0676157
-0.0777932
-0.0878565
-0.0977424
-0.107397
-0.116777
-0.125851
-0.134603
-0.143024
-0.151101
-0.158831
-0.166229
-0.173294
-0.179954
-0.18628
-0.192737
-0.199074
-0.202699
-0.186999
-0.20633
-0.22895
-0.25558
-0.287029
-0.324381
-0.369031
-0.423998
-0.492234
-0.587633
-0.63403
-0.657151
-0.667575
-0.673057
-0.794466
-0.730238
-0.584968
-0.437654
-0.337794
-0.31344
-0.156139
-0.0501928
-0.120457
-0.307915
-0.285222
0.0127242
0.01977
0.0146867
0.00647313
-0.00388275
-0.0151961
-0.0269162
-0.0387011
-0.050367
-0.0618279
-0.0730293
-0.0839262
-0.0944806
-0.104667
-0.114476
-0.1239
-0.132932
-0.141571
-0.149835
-0.157729
-0.165195
-0.17229
-0.179427
-0.186403
-0.190937
-0.179112
-0.197626
-0.219337
-0.244976
-0.27537
-0.311632
-0.355202
-0.409075
-0.476013
-0.567662
-0.621724
-0.71441
-0.677184
-0.662232
-0.740207
-0.555623
-0.465798
-0.458236
-0.333877
-0.269197
-0.111257
-0.0144948
-0.260502
-0.258242
-0.24298
0.0683179
0.0668358
0.0576827
0.0459131
0.0327044
0.0189147
0.00499876
-0.00875287
-0.0222028
-0.0352955
-0.0479984
-0.0602851
-0.0721329
-0.0835289
-0.0944716
-0.104963
-0.115004