/*--------------------------------*- C++ -*----------------------------------*\
  =========                 |
  \\      /  F ield         | OpenFOAM: The Open Source CFD Toolbox
   \\    /   O peration     | Website:  https://openfoam.org
    \\  /    A nd           | Version:  9
     \\/     M anipulation  |
\*---------------------------------------------------------------------------*/
FoamFile
{
    format      ascii;
    class       surfaceScalarField;
    location    "0.16";
    object      phi;
}
// * * * * * * * * * * * * * * * * * * * * * * * * * * * * * * * * * * * * * //

dimensions      [0 3 -1 0 0 0 0];

internalField   nonuniform List<scalar> 
9850
(
-2.8991e-07
1.63083e-05
-3.40223e-07
1.64334e-05
-3.8876e-07
1.6585e-05
-4.323e-07
1.67637e-05
-4.65417e-07
1.69671e-05
-4.80468e-07
1.7188e-05
-4.76926e-07
1.74633e-05
-4.65236e-07
1.79684e-05
-3.87681e-07
1.87542e-05
-1.3281e-08
1.88049e-05
7.42433e-07
1.60967e-05
1.5701e-06
9.18832e-06
9.18912e-07
4.13786e-06
6.65427e-07
1.27083e-06
5.6645e-07
5.62157e-07
5.1012e-07
5.80472e-07
4.58917e-07
6.31366e-07
4.13568e-07
5.27001e-07
3.90089e-07
3.05869e-07
4.1107e-07
1.87265e-08
4.74909e-07
-1.9306e-07
5.69968e-07
-2.71826e-07
6.67984e-07
-2.14943e-07
7.43048e-07
-6.40956e-08
7.84653e-07
1.07016e-07
7.97037e-07
2.40637e-07
7.86387e-07
3.1575e-07
7.57335e-07
3.55348e-07
7.16532e-07
4.46571e-07
6.70249e-07
6.93223e-07
6.21367e-07
1.18462e-06
9.18218e-07
2.05026e-06
1.35501e-06
3.79321e-06
1.78889e-06
5.27075e-06
2.13382e-06
6.29526e-06
2.35318e-06
6.77304e-06
2.4605e-06
6.78593e-06
2.4949e-06
6.51382e-06
2.49488e-06
6.12518e-06
2.48483e-06
5.72543e-06
2.47495e-06
5.35872e-06
2.46702e-06
5.03244e-06
2.4598e-06
4.73979e-06
2.4519e-06
4.47233e-06
2.44267e-06
4.22415e-06
2.43205e-06
3.99189e-06
2.42027e-06
3.77379e-06
2.40766e-06
3.56874e-06
2.39439e-06
3.3758e-06
3.19439e-06
-2.3568e-07
1.63508e-05
-2.76346e-07
1.64741e-05
-3.12968e-07
1.66217e-05
-3.41743e-07
1.67925e-05
-3.56074e-07
1.69815e-05
-3.48549e-07
1.71805e-05
-3.17724e-07
1.74325e-05
-2.62544e-07
1.79133e-05
-1.24894e-07
1.86165e-05
2.82225e-07
1.83978e-05
1.05328e-06
1.53257e-05
1.71719e-06
8.52441e-06
1.13028e-06
4.72477e-06
7.34224e-07
1.66689e-06
5.72177e-07
7.24204e-07
5.25413e-07
6.27236e-07
4.92011e-07
6.64768e-07
4.44147e-07
5.74864e-07
3.97357e-07
3.52658e-07
3.8148e-07
3.4604e-08
4.13365e-07
-2.24945e-07
4.8788e-07
-3.46341e-07
5.81515e-07
-3.08578e-07
6.63136e-07
-1.45716e-07
7.1649e-07
5.36621e-08
7.41764e-07
2.15363e-07
7.41437e-07
3.16077e-07
7.13069e-07
3.83715e-07
6.52408e-07
5.07233e-07
5.54468e-07
7.91162e-07
5.32589e-07
1.2065e-06
6.90838e-07
1.89201e-06
1.02403e-06
3.46002e-06
1.4015e-06
4.89329e-06
1.72519e-06
5.97158e-06
1.95335e-06
6.54488e-06
2.08483e-06
6.65445e-06
2.14497e-06
6.45367e-06
2.16514e-06
6.10502e-06
2.16884e-06
5.72173e-06
2.16827e-06
5.35929e-06
2.16738e-06
5.03333e-06
2.16622e-06
4.74095e-06
2.1639e-06
4.47465e-06
2.15982e-06
4.22824e-06
2.15385e-06
3.99787e-06
2.1462e-06
3.78144e-06
2.13718e-06
3.57775e-06
2.12694e-06
3.38604e-06
3.20679e-06
-1.82471e-07
1.63861e-05
-2.1473e-07
1.65064e-05
-2.41061e-07
1.6648e-05
-2.57183e-07
1.68086e-05
-2.56264e-07
1.69805e-05
-2.31859e-07
1.71561e-05
-1.82679e-07
1.73833e-05
-9.94543e-08
1.783e-05
7.31229e-08
1.8444e-05
4.76209e-07
1.79947e-05
1.20191e-06
1.46e-05
1.69169e-06
8.03464e-06
1.54792e-06
4.86854e-06
8.25065e-07
2.38975e-06
5.89333e-07
9.59935e-07
5.50835e-07
6.65735e-07
5.46174e-07
6.69429e-07
5.08322e-07
6.12716e-07
4.48434e-07
4.12546e-07
3.98674e-07
8.43641e-08
3.9122e-07
-2.1749e-07
4.30001e-07
-3.85123e-07
5.03447e-07
-3.82024e-07
5.81022e-07
-2.23291e-07
6.3771e-07
-3.02542e-09
6.68187e-07
1.84885e-07
6.71026e-07
3.13238e-07
6.38172e-07
4.1657e-07
5.48087e-07
5.97317e-07
4.01435e-07
9.37814e-07
4.39796e-07
1.16813e-06
5.5676e-07
1.77505e-06
8.1033e-07
3.20644e-06
1.11415e-06
4.58947e-06
1.39795e-06
5.68778e-06
1.61429e-06
6.32853e-06
1.75238e-06
6.51636e-06
1.82681e-06
6.37925e-06
1.86115e-06
6.07068e-06
1.87571e-06
5.70716e-06
1.88275e-06
5.35225e-06
1.88742e-06
5.02866e-06
1.89082e-06
4.73754e-06
1.89261e-06
4.47286e-06
1.89232e-06
4.22853e-06
1.88975e-06
4.00043e-06
1.88499e-06
3.7862e-06
1.8782e-06
3.58454e-06
1.86945e-06
3.3948e-06
3.2168e-06
-1.31096e-07
1.64151e-05
-1.55919e-07
1.65312e-05
-1.73618e-07
1.66657e-05
-1.7983e-07
1.68149e-05
-1.67727e-07
1.69684e-05
-1.31751e-07
1.71201e-05
-7.20666e-08
1.73236e-05
2.48212e-08
1.77331e-05
2.14962e-07
1.82538e-05
5.95856e-07
1.76138e-05
1.26473e-06
1.39311e-05
1.78943e-06
7.50993e-06
2.16293e-06
4.49504e-06
1.01786e-06
3.53482e-06
6.6059e-07
1.3172e-06
6.14046e-07
7.12278e-07
6.28695e-07
6.5478e-07
6.06566e-07
6.34845e-07
5.47422e-07
4.7169e-07
4.74159e-07
1.57626e-07
4.25717e-07
-1.69047e-07
4.14506e-07
-3.73912e-07
4.47566e-07
-4.15083e-07
5.03932e-07
-2.79658e-07
5.48789e-07
-4.78824e-08
5.66483e-07
1.67192e-07
5.54223e-07
3.25498e-07
5.03118e-07
4.67674e-07
4.23836e-07
6.76599e-07
3.15914e-07
1.04574e-06
3.96739e-07
1.08731e-06
5.17888e-07
1.6539e-06
7.08261e-07
3.01607e-06
9.2727e-07
4.37046e-06
1.15136e-06
5.46369e-06
1.33619e-06
6.1437e-06
1.46468e-06
6.38787e-06
1.54203e-06
6.3019e-06
1.58386e-06
6.02886e-06
1.60584e-06
5.68518e-06
1.61871e-06
5.33938e-06
1.6278e-06
5.01958e-06
1.63485e-06
4.73049e-06
1.64e-06
4.46771e-06
1.64303e-06
4.2255e-06
1.64387e-06
3.9996e-06
1.64264e-06
3.78743e-06
1.63964e-06
3.58754e-06
1.63532e-06
3.39912e-06
3.21933e-06
-8.19128e-08
1.64386e-05
-1.00509e-07
1.65498e-05
-1.11327e-07
1.66765e-05
-1.10216e-07
1.68137e-05
-9.07976e-08
1.6949e-05
-4.82535e-08
1.70776e-05
1.58046e-08
1.72596e-05
1.16084e-07
1.76329e-05
3.11692e-07
1.80582e-05
6.65204e-07
1.72603e-05
1.22924e-06
1.33671e-05
1.72824e-06
7.01093e-06
1.97347e-06
4.24982e-06
1.22012e-06
4.28816e-06
9.14362e-07
1.62297e-06
7.8863e-07
8.3801e-07
7.56256e-07
6.87154e-07
7.3194e-07
6.59161e-07
6.83508e-07
5.20122e-07
6.02935e-07
2.38199e-07
5.19225e-07
-8.53371e-08
4.5046e-07
-3.05148e-07
4.24522e-07
-3.89145e-07
4.42101e-07
-2.97236e-07
4.60838e-07
-6.66193e-08
4.47702e-07
1.80327e-07
4.03865e-07
3.69336e-07
3.39024e-07
5.32515e-07
3.43632e-07
6.71992e-07
3.37319e-07
1.05205e-06
4.6703e-07
9.57599e-07
5.41596e-07
1.57933e-06
6.80315e-07
2.87735e-06
8.13306e-07
4.23747e-06
9.65311e-07
5.31169e-06
1.10588e-06
6.00313e-06
1.2139e-06
6.27985e-06
1.28632e-06
6.22947e-06
1.33073e-06
5.98445e-06
1.3575e-06
5.65841e-06
1.37489e-06
5.32199e-06
1.38764e-06
5.00683e-06
1.39772e-06
4.72041e-06
1.40563e-06
4.4598e-06
1.41138e-06
4.21975e-06
1.41494e-06
3.99603e-06
1.41644e-06
3.78594e-06
1.41605e-06
3.58794e-06
1.41406e-06
3.4011e-06
3.22081e-06
-3.52063e-08
1.64575e-05
-4.88026e-08
1.65634e-05
-5.44368e-08
1.66821e-05
-4.83208e-08
1.68076e-05
-2.49229e-08
1.69256e-05
1.97397e-08
1.70329e-05
8.30667e-08
1.71962e-05
1.78282e-07
1.75377e-05
3.65208e-07
1.78713e-05
6.85111e-07
1.69404e-05
1.13571e-06
1.29165e-05
1.59701e-06
6.54963e-06
1.96792e-06
3.8789e-06
1.74144e-06
4.51464e-06
1.28526e-06
2.07914e-06
1.04571e-06
1.07756e-06
9.22717e-07
8.10148e-07
8.77127e-07
7.04751e-07
8.43784e-07
5.53465e-07
7.67436e-07
3.14547e-07
6.60785e-07
2.13143e-08
5.36946e-07
-1.81308e-07
4.4284e-07
-2.9504e-07
4.09676e-07
-2.64072e-07
3.99438e-07
-5.6381e-08
3.62522e-07
2.17243e-07
3.13502e-07
4.18356e-07
2.89227e-07
5.5679e-07
2.83027e-07
6.78191e-07
5.27051e-07
8.08027e-07
5.78687e-07
9.05963e-07
6.05147e-07
1.55287e-06
6.74222e-07
2.80828e-06
7.28513e-07
4.18318e-06
8.09265e-07
5.23094e-06
9.03161e-07
5.90924e-06
9.87854e-07
6.19516e-06
1.05247e-06
6.16486e-06
1.0974e-06
5.93953e-06
1.12778e-06
5.62802e-06
1.14911e-06
5.30066e-06
1.16517e-06
4.99077e-06
1.17789e-06
4.70768e-06
1.18802e-06
4.44967e-06
1.19574e-06
4.21203e-06
1.20114e-06
3.99063e-06
1.20432e-06
3.78275e-06
1.20542e-06
3.58684e-06
1.20469e-06
3.40183e-06
3.22163e-06
8.87643e-09
1.64727e-05
-8.28889e-10
1.65731e-05
-2.78928e-09
1.66841e-05
6.30422e-09
1.67985e-05
3.09086e-08
1.6901e-05
7.37899e-08
1.69901e-05
1.31474e-07
1.71385e-05
2.13873e-07
1.74553e-05
3.77403e-07
1.77077e-05
6.56826e-07
1.6661e-05
1.02228e-06
1.2551e-05
1.46364e-06
6.10827e-06
1.92723e-06
3.41531e-06
2.20176e-06
4.24011e-06
1.53925e-06
2.74166e-06
1.25161e-06
1.3652e-06
1.08648e-06
9.75278e-07
1.03419e-06
7.5704e-07
1.01421e-06
5.73445e-07
9.4554e-07
3.83214e-07
8.26585e-07
1.40269e-07
6.66429e-07
-2.11518e-08
5.09812e-07
-1.38423e-07
4.18864e-07
-1.73125e-07
3.77856e-07
-1.53726e-08
3.21014e-07
2.74085e-07
2.81394e-07
4.57975e-07
4.67288e-07
3.70896e-07
6.33348e-07
5.12131e-07
9.35714e-07
5.05661e-07
9.21926e-07
9.19749e-07
7.32513e-07
1.74229e-06
5.91352e-07
2.94944e-06
6.04082e-07
4.17045e-06
6.43167e-07
5.19185e-06
7.06674e-07
5.84573e-06
7.7454e-07
6.12729e-06
8.33915e-07
6.10548e-06
8.80228e-07
5.89321e-06
9.14544e-07
5.5937e-06
9.39985e-07
5.27523e-06
9.59451e-07
4.97131e-06
9.74805e-07
4.69233e-06
9.8699e-07
4.43748e-06
9.9642e-07
4.2026e-06
1.00331e-06
3.98375e-06
1.0078e-06
3.77826e-06
1.00999e-06
3.58464e-06
1.01017e-06
3.40165e-06
3.22192e-06
5.03444e-08
1.64847e-05
4.35645e-08
1.65799e-05
4.40011e-08
1.66837e-05
5.44113e-08
1.67881e-05
7.80747e-08
1.68773e-05
1.16047e-07
1.69521e-05
1.6365e-07
1.70909e-05
2.26888e-07
1.7392e-05
3.56412e-07
1.75782e-05
5.88855e-07
1.64286e-05
8.96824e-07
1.22431e-05
1.23605e-06
5.76904e-06
1.60665e-06
3.04471e-06
2.02674e-06
3.82002e-06
1.51078e-06
3.25763e-06
1.39619e-06
1.47979e-06
1.28008e-06
1.09139e-06
1.21247e-06
8.24647e-07
1.191e-06
5.94914e-07
1.1172e-06
4.57012e-07
9.97859e-07
2.59613e-07
8.28589e-07
1.48119e-07
6.3886e-07
5.13056e-08
4.85194e-07
-1.94588e-08
3.8881e-07
8.10118e-08
3.22712e-07
3.40183e-07
3.86188e-07
3.94499e-07
3.13432e-07
4.4365e-07
4.59976e-07
3.65587e-07
6.60421e-07
3.05216e-07
7.04208e-07
8.75964e-07
5.53358e-07
1.89313e-06
4.48805e-07
3.05399e-06
4.34467e-07
4.18479e-06
4.58003e-07
5.16832e-06
5.08103e-07
5.79563e-06
5.69801e-07
6.06559e-06
6.29116e-07
6.04617e-06
6.78977e-07
5.84335e-06
7.18047e-07
5.55463e-06
7.47957e-07
5.24531e-06
7.71019e-07
4.94825e-06
7.89077e-07
4.67427e-06
8.03274e-07
4.42329e-06
8.14233e-07
4.19164e-06
8.22305e-07
3.97567e-06
8.27716e-07
3.77285e-06
8.30735e-07
3.58163e-06
8.32365e-07
3.40002e-06
3.21979e-06
8.93119e-08
1.64943e-05
8.46734e-08
1.65845e-05
8.65183e-08
1.66818e-05
9.70134e-08
1.67776e-05
1.18235e-07
1.68561e-05
1.49243e-07
1.69211e-05
1.83683e-07
1.70565e-05
2.23777e-07
1.73519e-05
3.13462e-07
1.74885e-05
4.9688e-07
1.62452e-05
7.69655e-07
1.19703e-05
9.58252e-07
5.58044e-06
1.17901e-06
2.82395e-06
1.58274e-06
3.4163e-06
1.71436e-06
3.12601e-06
1.65665e-06
1.5375e-06
1.42294e-06
1.3251e-06
1.37258e-06
8.75007e-07
1.32509e-06
6.42409e-07
1.26076e-06
5.21339e-07
1.1489e-06
3.7147e-07
9.9848e-07
2.9854e-07
8.5266e-07
1.97125e-07
6.52521e-07
1.8068e-07
3.74014e-07
3.59519e-07
2.01171e-07
5.13025e-07
3.59156e-07
2.36514e-07
5.37279e-07
2.65528e-07
6.73935e-07
2.2893e-07
5.79714e-07
3.99436e-07
5.58679e-07
8.96999e-07
4.13893e-07
2.03792e-06
2.88092e-07
3.17979e-06
2.58386e-07
4.21449e-06
2.77128e-07
5.14958e-06
3.22737e-07
5.75002e-06
3.82808e-07
6.00552e-06
4.4403e-07
5.98495e-06
4.97885e-07
5.7895e-06
5.41506e-07
5.51101e-06
5.75542e-07
5.21128e-06
6.01909e-07
4.92188e-06
6.22442e-07
4.65374e-06
6.38436e-07
4.40729e-06
6.50685e-07
4.17939e-06
6.59678e-07
3.96668e-06
6.65825e-07
3.76671e-06
6.6989e-07
3.57756e-06
6.73788e-07
3.39612e-06
3.21461e-06
1.25961e-07
1.65019e-05
1.22875e-07
1.65876e-05
1.25442e-07
1.66793e-05
1.35273e-07
1.67678e-05
1.53276e-07
1.68381e-05
1.76541e-07
1.68978e-05
1.96759e-07
1.70363e-05
2.1311e-07
1.73356e-05
2.64563e-07
1.74371e-05
4.08017e-07
1.61017e-05
6.37595e-07
1.17407e-05
7.08906e-07
5.50913e-06
8.40875e-07
2.69199e-06
1.22004e-06
3.03713e-06
1.45578e-06
2.89026e-06
1.45859e-06
1.53469e-06
1.52747e-06
1.25622e-06
1.48219e-06
9.20287e-07
1.39443e-06
7.30168e-07
1.33322e-06
5.82548e-07
1.26042e-06
4.44273e-07
1.1518e-06
4.07158e-07
1.03039e-06
3.18536e-07
8.14333e-07
3.96741e-07
6.38968e-07
5.34885e-07
6.7756e-07
4.74432e-07
7.63144e-07
1.50931e-07
6.55638e-07
3.73032e-07
5.0524e-07
3.79328e-07
3.7958e-07
5.25094e-07
2.64234e-07
1.01234e-06
2.97438e-07
2.00472e-06
1.90109e-07
3.28712e-06
1.18133e-07
4.28647e-06
1.23171e-07
5.14454e-06
1.63658e-07
5.70953e-06
2.22766e-07
5.94641e-06
2.85453e-07
5.92226e-06
3.42119e-07
5.73283e-06
3.88946e-07
5.46418e-06
4.25949e-07
5.17428e-06
4.54751e-07
4.89308e-06
4.77139e-07
4.63135e-06
4.94492e-07
4.38994e-06
5.07728e-07
4.16616e-06
5.17469e-07
3.95694e-06
5.24355e-07
3.75982e-06
5.29609e-07
3.57231e-06
5.35265e-07
3.39047e-06
3.20858e-06
1.6051e-07
1.65078e-05
1.58582e-07
1.65895e-05
1.61499e-07
1.66763e-05
1.70372e-07
1.67589e-05
1.85068e-07
1.68234e-05
2.01014e-07
1.68819e-05
2.08186e-07
1.70291e-05
2.04044e-07
1.73397e-05
2.25582e-07
1.74155e-05
3.36003e-07
1.59913e-05
5.27868e-07
1.15488e-05
5.33958e-07
5.50305e-06
5.52088e-07
2.67386e-06
8.94908e-07
2.69431e-06
1.22202e-06
2.56315e-06
1.31212e-06
1.4446e-06
1.42299e-06
1.14535e-06
1.43575e-06
9.07524e-07
1.42015e-06
7.45771e-07
1.35967e-06
6.43031e-07
1.30805e-06
4.95892e-07
1.23489e-06
4.80315e-07
1.09568e-06
4.57742e-07
9.64454e-07
5.27968e-07
8.12818e-07
6.86522e-07
7.04776e-07
5.82474e-07
5.49236e-07
3.0647e-07
4.97055e-07
4.25214e-07
3.85895e-07
4.90487e-07
2.63638e-07
6.47351e-07
1.86632e-07
1.08935e-06
1.45857e-07
2.04549e-06
5.57156e-08
3.37726e-06
-4.64694e-09
4.34683e-06
-5.55093e-09
5.14544e-06
3.37083e-08
5.67028e-06
9.29591e-08
5.88716e-06
1.56547e-07
5.85867e-06
2.146e-07
5.67478e-06
2.63e-07
5.41579e-06
3.01493e-07
5.13578e-06
3.31538e-07
4.86303e-06
3.54876e-07
4.60801e-06
3.72922e-07
4.37189e-06
3.8667e-07
4.15241e-06
3.96856e-07
3.94675e-06
4.04318e-07
3.75236e-06
4.10439e-07
3.56618e-06
4.16687e-07
3.38422e-06
3.20342e-06
1.9319e-07
1.65125e-05
1.92181e-07
1.65905e-05
1.9535e-07
1.66732e-05
2.0336e-07
1.67509e-05
2.15278e-07
1.68115e-05
2.25348e-07
1.68718e-05
2.22624e-07
1.70318e-05
2.04377e-07
1.7358e-05
2.07371e-07
1.74125e-05
2.92725e-07
1.59059e-05
4.3418e-07
1.14074e-05
3.69056e-07
5.56817e-06
3.50829e-07
2.69209e-06
6.82644e-07
2.3625e-06
1.0572e-06
2.1886e-06
1.15793e-06
1.34387e-06
1.26652e-06
1.03676e-06
1.33367e-06
8.40369e-07
1.35078e-06
7.28658e-07
1.3337e-06
6.60118e-07
1.29281e-06
5.36784e-07
1.21924e-06
5.53881e-07
1.09687e-06
5.80115e-07
9.64901e-07
6.59934e-07
8.72184e-07
7.79238e-07
7.52382e-07
7.02275e-07
5.4131e-07
5.17543e-07
4.20224e-07
5.46301e-07
2.98154e-07
6.12556e-07
1.69149e-07
7.76354e-07
6.05415e-09
1.25244e-06
-1.42244e-07
2.19379e-06
-1.37468e-07
3.37249e-06
-1.44618e-07
4.35398e-06
-1.22332e-07
5.12316e-06
-7.17525e-08
5.6197e-06
-7.60442e-09
5.82301e-06
5.77965e-08
5.79327e-06
1.16376e-07
5.6162e-06
1.64859e-07
5.3673e-06
2.03303e-07
5.09734e-06
2.33238e-07
4.8331e-06
2.56422e-07
4.58483e-06
2.74293e-07
4.35402e-06
2.8789e-07
4.13881e-06
2.98038e-07
3.9366e-06
3.05702e-07
3.74469e-06
3.12186e-07
3.5597e-06
3.18287e-07
3.37812e-06
3.1992e-06
2.24202e-07
1.6516e-05
2.24017e-07
1.65907e-05
2.27533e-07
1.66697e-05
2.35073e-07
1.67434e-05
2.45191e-07
1.68014e-05
2.51519e-07
1.68655e-05
2.43232e-07
1.70401e-05
2.18606e-07
1.73826e-05
2.12265e-07
1.74189e-05
2.78651e-07
1.58395e-05
3.67701e-07
1.13183e-05
2.71267e-07
5.6646e-06
2.4274e-07
2.72061e-06
5.24103e-07
2.08114e-06
8.91464e-07
1.82124e-06
1.02874e-06
1.20659e-06
1.15233e-06
9.13172e-07
1.24232e-06
7.50389e-07
1.29323e-06
6.77739e-07
1.29321e-06
6.60146e-07
1.25375e-06
5.7624e-07
1.18181e-06
6.25824e-07
1.07201e-06
6.89913e-07
9.57895e-07
7.74048e-07
8.84485e-07
8.52648e-07
7.75416e-07
8.11345e-07
5.90251e-07
7.02708e-07
4.39791e-07
6.9676e-07
2.88677e-07
7.63669e-07
9.42865e-08
9.70745e-07
-5.99797e-08
1.40671e-06
-1.98878e-07
2.33269e-06
-2.32762e-07
3.40637e-06
-2.26665e-07
4.34788e-06
-1.9277e-07
5.08926e-06
-1.36287e-07
5.56321e-06
-7.04663e-08
5.75719e-06
-6.19311e-09
5.729e-06
5.00787e-08
5.55993e-06
9.60598e-08
5.32132e-06
1.32233e-07
5.06117e-06
1.60237e-07
4.80509e-06
1.81818e-07
4.56325e-06
1.98389e-07
4.33745e-06
2.10987e-07
4.12621e-06
2.20489e-07
3.9271e-06
2.27903e-07
3.73728e-06
2.34328e-07
3.55328e-06
2.40015e-07
3.37243e-06
3.19568e-06
2.53707e-07
1.65185e-05
2.5435e-07
1.65901e-05
2.58418e-07
1.66656e-05
2.66046e-07
1.67357e-05
2.75575e-07
1.67919e-05
2.80622e-07
1.68604e-05
2.71543e-07
1.70492e-05
2.48557e-07
1.74056e-05
2.43141e-07
1.74243e-05
2.99052e-07
1.57836e-05
3.46121e-07
1.12713e-05
2.39657e-07
5.77107e-06
2.1184e-07
2.74843e-06
4.33231e-07
1.85975e-06
7.52341e-07
1.50213e-06
9.2888e-07
1.03005e-06
1.06633e-06
7.75726e-07
1.16325e-06
6.53469e-07
1.2185e-06
6.22483e-07
1.22143e-06
6.5722e-07
1.18474e-06
6.12925e-07
1.12046e-06
6.90113e-07
1.0323e-06
7.7807e-07
9.43525e-07
8.62821e-07
8.72311e-07
9.23862e-07
7.7203e-07
9.11626e-07
6.20591e-07
8.54146e-07
4.73754e-07
8.43596e-07
3.2198e-07
9.15443e-07
1.27646e-07
1.16508e-06
-9.5698e-08
1.63005e-06
-2.23099e-07
2.46009e-06
-2.48527e-07
3.4318e-06
-2.36185e-07
4.33554e-06
-2.00506e-07
5.05358e-06
-1.47246e-07
5.50995e-06
-8.76336e-08
5.69758e-06
-3.08297e-08
5.67219e-06
1.80503e-08
5.51105e-06
5.75182e-08
5.28185e-06
8.82891e-08
5.0304e-06
1.11939e-07
4.78144e-06
1.30061e-07
4.54512e-06
1.43924e-07
4.32359e-06
1.54486e-07
4.11565e-06
1.62609e-07
3.91898e-06
1.69257e-07
3.73063e-06
1.75233e-07
3.5473e-06
1.80359e-07
3.36731e-06
3.19273e-06
2.81804e-07
1.65201e-05
2.83318e-07
1.65885e-05
2.88184e-07
1.66607e-05
2.96502e-07
1.67274e-05
3.06683e-07
1.67817e-05
3.12904e-07
1.68542e-05
3.07664e-07
1.70544e-05
2.93973e-07
1.74193e-05
2.9969e-07
1.74186e-05
3.53629e-07
1.57297e-05
3.69949e-07
1.12549e-05
2.63623e-07
5.8774e-06
2.32604e-07
2.77945e-06
4.05234e-07
1.68711e-06
6.77758e-07
1.2296e-06
8.6592e-07
8.41892e-07
9.96453e-07
6.45195e-07
1.08101e-06
5.6891e-07
1.12389e-06
5.79606e-07
1.12382e-06
6.57284e-07
1.09346e-06
6.43291e-07
1.04348e-06
7.40089e-07
9.79543e-07
8.42009e-07
9.11864e-07
9.30499e-07
8.45528e-07
9.90198e-07
7.54989e-07
1.00216e-06
6.24155e-07
9.8498e-07
4.72903e-07
9.94848e-07
2.99612e-07
1.08873e-06
9.02189e-08
1.37447e-06
-1.38012e-07
1.85829e-06
-2.02288e-07
2.52436e-06
-2.14737e-07
3.44425e-06
-1.96238e-07
4.31704e-06
-1.60061e-07
5.0174e-06
-1.13454e-07
5.46335e-06
-6.47622e-08
5.64889e-06
-2.02901e-08
5.62772e-06
1.68172e-08
5.47394e-06
4.60665e-08
5.2526e-06
6.84225e-08
5.00804e-06
8.53335e-08
4.76453e-06
9.81414e-08
4.53232e-06
1.07883e-07
4.31385e-06
1.15362e-07
4.10817e-06
1.21355e-07
3.91299e-06
1.26677e-07
3.72531e-06
1.3178e-07
3.5422e-06
1.3614e-07
3.36295e-06
3.19032e-06
3.08536e-07
1.65208e-05
3.10954e-07
1.65861e-05
3.16826e-07
1.66549e-05
3.26359e-07
1.67179e-05
3.38255e-07
1.67698e-05
3.47735e-07
1.68447e-05
3.50029e-07
1.70522e-05
3.5139e-07
1.74179e-05
3.75125e-07
1.73949e-05
4.33063e-07
1.56718e-05
4.27488e-07
1.12605e-05
3.20764e-07
5.98412e-06
2.87024e-07
2.81319e-06
4.29854e-07
1.54428e-06
6.59189e-07
1.00027e-06
8.25998e-07
6.75086e-07
9.33931e-07
5.37262e-07
9.98331e-07
5.04509e-07
1.02921e-06
5.4873e-07
1.0288e-06
6.57692e-07
1.00775e-06
6.64337e-07
9.74242e-07
7.73601e-07
9.32199e-07
8.84051e-07
8.83884e-07
9.78813e-07
8.27636e-07
1.04645e-06
7.47907e-07
1.08189e-06
6.31404e-07
1.10148e-06
4.84322e-07
1.14193e-06
3.18575e-07
1.25448e-06
1.46289e-07
1.54676e-06
-3.5829e-08
2.0404e-06
-1.00332e-07
2.58886e-06
-1.17896e-07
3.46181e-06
-1.08776e-07
4.30792e-06
-8.13991e-08
4.99003e-06
-4.70168e-08
5.42896e-06
-1.33508e-08
5.61522e-06
1.53735e-08
5.599e-06
3.77915e-08
5.45152e-06
5.43252e-08
5.23607e-06
6.61714e-08
4.99619e-06
7.46271e-08
4.75608e-06
8.07491e-08
4.52619e-06
8.53009e-08
4.3093e-06
8.88865e-08
4.10458e-06
9.21234e-08
3.90975e-06
9.55917e-08
3.72184e-06
9.93792e-08
3.53841e-06
1.02721e-07
3.3596e-06
3.18849e-06
3.33894e-07
1.65207e-05
3.37195e-07
1.65828e-05
3.44186e-07
1.66479e-05
3.55275e-07
1.67068e-05
3.69599e-07
1.67555e-05
3.83702e-07
1.68306e-05
3.95696e-07
1.70402e-05
4.14818e-07
1.73988e-05
4.5964e-07
1.735e-05
5.24026e-07
1.56074e-05
5.08649e-07
1.12759e-05
3.9706e-07
6.09571e-06
3.6465e-07
2.8456e-06
4.8366e-07
1.42528e-06
6.65405e-07
8.18526e-07
7.98821e-07
5.41671e-07
8.79676e-07
4.56406e-07
9.3058e-07
4.53604e-07
9.57094e-07
5.22216e-07
9.6308e-07
6.51706e-07
9.54725e-07
6.72691e-07
9.3835e-07
7.89975e-07
9.15548e-07
9.06854e-07
8.84482e-07
1.00988e-06
8.39739e-07
1.09119e-06
7.69909e-07
1.15172e-06
6.64943e-07
1.20645e-06
5.25999e-07
1.28087e-06
3.7098e-07
1.4095e-06
2.4433e-07
1.67341e-06
1.27057e-07
2.15768e-06
5.91075e-08
2.65681e-06
2.29234e-08
3.498e-06
1.32875e-08
4.31756e-06
2.29049e-08
4.98041e-06
3.92281e-08
5.41264e-06
5.41109e-08
5.60034e-06
6.45815e-08
5.58852e-06
7.05143e-08
5.44559e-06
7.29532e-08
5.23363e-06
7.31812e-08
4.99596e-06
7.22761e-08
4.75698e-06
7.09756e-08
4.52749e-06
6.97464e-08
4.31053e-06
6.8958e-08
4.10537e-06
6.90132e-08
3.9097e-06
7.02114e-08
3.72064e-06
7.23332e-08
3.53629e-06
7.44968e-08
3.35744e-06
3.18725e-06
3.5783e-07
1.652e-05
3.61912e-07
1.65787e-05
3.69997e-07
1.66398e-05
3.82725e-07
1.66941e-05
3.99746e-07
1.67384e-05
4.18959e-07
1.68114e-05
4.41153e-07
1.7018e-05
4.77786e-07
1.73622e-05
5.42885e-07
1.72849e-05
6.13151e-07
1.55371e-05
6.00622e-07
1.12884e-05
4.9292e-07
6.20341e-06
4.58875e-07
2.87965e-06
5.48982e-07
1.33517e-06
6.79621e-07
6.87885e-07
7.78373e-07
4.42918e-07
8.4428e-07
3.90499e-07
8.88697e-07
4.09188e-07
9.19995e-07
4.90918e-07
9.39601e-07
6.32099e-07
9.47337e-07
6.64954e-07
9.48712e-07
7.886e-07
9.42981e-07
9.12584e-07
9.261e-07
1.02676e-06
8.91208e-07
1.12608e-06
8.2913e-07
1.2138e-06
7.32283e-07
1.30329e-06
5.99044e-07
1.41411e-06
4.39745e-07
1.5688e-06
2.93725e-07
1.81943e-06
2.03052e-07
2.24835e-06
1.25156e-07
2.73471e-06
1.40937e-07
3.48222e-06
1.3392e-07
4.32457e-06
1.29142e-07
4.98519e-06
1.26806e-07
5.41497e-06
1.22182e-07
5.60496e-06
1.14057e-07
5.59665e-06
1.03379e-07
5.45626e-06
9.16945e-08
5.24532e-06
8.02899e-08
5.00737e-06
6.99939e-08
4.76728e-06
6.12227e-08
4.53626e-06
5.41476e-08
4.3176e-06
4.88903e-08
4.11063e-06
4.56082e-08
3.91298e-06
4.43104e-08
3.72194e-06
4.45172e-08
3.53608e-06
4.52349e-08
3.35672e-06
3.18684e-06
3.8027e-07
1.65188e-05
3.84943e-07
1.65741e-05
3.93943e-07
1.66308e-05
4.08119e-07
1.66799e-05
4.27651e-07
1.67189e-05
4.51642e-07
1.67874e-05
4.83118e-07
1.69865e-05
5.35007e-07
1.73103e-05
6.1764e-07
1.72023e-05
6.99078e-07
1.54557e-05
6.93941e-07
1.12936e-05
6.01669e-07
6.29568e-06
5.58908e-07
2.92241e-06
6.15423e-07
1.27866e-06
7.02933e-07
6.00373e-07
7.65121e-07
3.80728e-07
8.24939e-07
3.30682e-07
8.74211e-07
3.59917e-07
9.18488e-07
4.4664e-07
9.57382e-07
5.93205e-07
9.83371e-07
6.38964e-07
1.00274e-06
7.69233e-07
1.01252e-06
9.02804e-07
1.00742e-06
1.03186e-06
9.80613e-07
1.15288e-06
9.24954e-07
1.26946e-06
8.35568e-07
1.39268e-06
7.12247e-07
1.53743e-06
5.64532e-07
1.71651e-06
4.3197e-07
1.95199e-06
3.71085e-07
2.30923e-06
3.01367e-07
2.80443e-06
2.7766e-07
3.50592e-06
2.53667e-07
4.34857e-06
2.25311e-07
5.01354e-06
2.00853e-07
5.43943e-06
1.76353e-07
5.62946e-06
1.50661e-07
5.62234e-06
1.24704e-07
5.48222e-06
1.00192e-07
5.26983e-06
7.82406e-08
5.02932e-06
5.93904e-08
4.78613e-06
4.37454e-08
4.55191e-06
3.11921e-08
4.33015e-06
2.15866e-08
4.12023e-06
1.47882e-08
3.91978e-06
1.04458e-08
3.72628e-06
7.74488e-09
3.53878e-06
5.71397e-09
3.35875e-06
3.18798e-06
4.01138e-07
1.65174e-05
4.06128e-07
1.65691e-05
4.15713e-07
1.66212e-05
4.30907e-07
1.66647e-05
4.52353e-07
1.66975e-05
4.80132e-07
1.67596e-05
5.18908e-07
1.69477e-05
5.82513e-07
1.72467e-05
6.78375e-07
1.71064e-05
7.71067e-07
1.5363e-05
7.76418e-07
1.12882e-05
6.96862e-07
6.37524e-06
6.47933e-07
2.97134e-06
6.74619e-07
1.25197e-06
7.26361e-07
5.4863e-07
7.76242e-07
3.30848e-07
8.27749e-07
2.79176e-07
8.84932e-07
3.02735e-07
9.46224e-07
3.85348e-07
1.00722e-06
5.32207e-07
1.05178e-06
5.94406e-07
1.08899e-06
7.32018e-07
1.1134e-06
8.78395e-07
1.11905e-06
1.02621e-06
1.09958e-06
1.17236e-06
1.04934e-06
1.3197e-06
9.65402e-07
1.47661e-06
8.49121e-07
1.65371e-06
7.09713e-07
1.85592e-06
5.79236e-07
2.08247e-06
5.23197e-07
2.36527e-06
4.46532e-07
2.88109e-06
4.08554e-07
3.5439e-06
3.50941e-07
4.40618e-06
2.94214e-07
5.07027e-06
2.46483e-07
5.48716e-06
2.0342e-07
5.67252e-06
1.6231e-07
5.66345e-06
1.23835e-07
5.52069e-06
8.90118e-08
5.30465e-06
5.8641e-08
5.05969e-06
3.29772e-08
4.81179e-06
1.18985e-08
4.57299e-06
-4.85736e-09
4.34691e-06
-1.75242e-08
4.1329e-06
-2.63089e-08
3.92856e-06
-3.15876e-08
3.73156e-06
-3.40196e-08
3.54121e-06
-3.40505e-08
3.35879e-06
3.18536e-06
4.20375e-07
1.65161e-05
4.2534e-07
1.65641e-05
4.35047e-07
1.66115e-05
4.50635e-07
1.66491e-05
4.73081e-07
1.6675e-05
5.03173e-07
1.67295e-05
5.46508e-07
1.69044e-05
6.17169e-07
1.7176e-05
7.20282e-07
1.70033e-05
8.19e-07
1.52643e-05
8.35835e-07
1.12714e-05
7.67126e-07
6.44394e-06
7.21032e-07
3.01743e-06
7.26976e-07
1.24602e-06
7.50078e-07
5.2553e-07
7.90544e-07
2.90383e-07
8.4378e-07
2.2594e-07
9.12734e-07
2.3378e-07
9.93505e-07
3.04575e-07
1.07837e-06
4.4734e-07
1.1403e-06
5.32481e-07
1.19557e-06
6.76744e-07
1.23373e-06
8.4024e-07
1.25016e-06
1.00977e-06
1.2381e-06
1.18442e-06
1.19247e-06
1.36533e-06
1.11099e-06
1.5581e-06
9.93659e-07
1.77105e-06
8.43137e-07
2.00644e-06
6.693e-07
2.2563e-06
5.20826e-07
2.51374e-06
4.58848e-07
2.94307e-06
3.79105e-07
3.62364e-06
3.51109e-07
4.43418e-06
2.99938e-07
5.12144e-06
2.44322e-07
5.54278e-06
1.90503e-07
5.72634e-06
1.39517e-07
5.71444e-06
9.25875e-08
5.56762e-06
5.08209e-08
5.34642e-06
1.47683e-08
5.09574e-06
-1.55236e-08
4.84208e-06
-4.02993e-08
4.59776e-06
-5.98709e-08
4.36648e-06
-7.44913e-08
4.14752e-06
-8.44322e-08
3.9385e-06
-9.02229e-08
3.73735e-06
-9.27284e-08
3.54372e-06
-9.29081e-08
3.35896e-06
3.18451e-06
4.37958e-07
1.65151e-05
4.42503e-07
1.65596e-05
4.51776e-07
1.66022e-05
4.67e-07
1.66339e-05
4.89317e-07
1.66527e-05
5.19962e-07
1.66989e-05
5.64827e-07
1.68595e-05
6.37818e-07
1.7103e-05
7.42985e-07
1.68982e-05
8.47189e-07
1.51601e-05
8.69909e-07
1.12487e-05
8.15543e-07
6.49831e-06
7.69599e-07
3.06337e-06
7.63205e-07
1.25242e-06
7.798e-07
5.08937e-07
8.10704e-07
2.59479e-07
8.66505e-07
1.70138e-07
9.5004e-07
1.50243e-07
1.05075e-06
2.03869e-07
1.16051e-06
3.37579e-07
1.24688e-06
4.46108e-07
1.31596e-06
6.07665e-07
1.36495e-06
7.91251e-07
1.3919e-06
9.82822e-07
1.38764e-06
1.18867e-06
1.34664e-06
1.40633e-06
1.2676e-06
1.63713e-06
1.15181e-06
1.88684e-06
1.00347e-06
2.15478e-06
8.30157e-07
2.42962e-06
6.52505e-07
2.6914e-06
5.24821e-07
3.07075e-06
4.00955e-07
3.74751e-06
3.33417e-07
4.50171e-06
2.71976e-07
5.18288e-06
2.05824e-07
5.60893e-06
1.41491e-07
5.79068e-06
8.20554e-08
5.77387e-06
2.88571e-08
5.62082e-06
-1.75624e-08
5.39283e-06
-5.72043e-08
5.13538e-06
-9.03789e-08
4.87526e-06
-1.17489e-07
4.62487e-06
-1.38867e-07
4.38786e-06
-1.54737e-07
4.16339e-06
-1.65408e-07
3.94917e-06
-1.71569e-07
3.74351e-06
-1.74341e-07
3.54649e-06
-1.75003e-07
3.35963e-06
3.1844e-06
4.53913e-07
1.65148e-05
4.57607e-07
1.65559e-05
4.65842e-07
1.6594e-05
4.79874e-07
1.66198e-05
5.00846e-07
1.66317e-05
5.30195e-07
1.66695e-05
5.73673e-07
1.6816e-05
6.449e-07
1.70318e-05
7.49275e-07
1.67938e-05
8.56609e-07
1.50527e-05
8.85768e-07
1.12195e-05
8.42041e-07
6.54204e-06
7.92925e-07
3.11249e-06
7.91826e-07
1.25352e-06
8.03802e-07
4.96961e-07
8.2787e-07
2.3541e-07
8.90125e-07
1.07882e-07
9.93864e-07
4.6504e-08
1.12309e-06
7.4643e-08
1.25985e-06
2.00818e-07
1.35929e-06
3.46667e-07
1.44194e-06
5.25015e-07
1.5009e-06
7.32287e-07
1.5362e-06
9.47521e-07
1.53936e-06
1.18552e-06
1.50268e-06
1.44301e-06
1.42434e-06
1.71547e-06
1.30827e-06
2.00291e-06
1.16398e-06
2.29907e-06
1.00247e-06
2.59113e-06
8.16475e-07
2.87739e-06
6.37862e-07
3.24937e-06
4.87398e-07
3.89797e-06
3.49994e-07
4.63912e-06
2.44864e-07
5.28801e-06
1.49922e-07
5.70387e-06
6.62297e-08
5.87437e-06
-5.36964e-09
5.84547e-06
-6.57293e-08
5.68118e-06
-1.16332e-07
5.44344e-06
-1.58571e-07
5.17762e-06
-1.9355e-07
4.91023e-06
-2.22017e-07
4.65334e-06
-2.44374e-07
4.41021e-06
-2.60835e-07
4.17985e-06
-2.71793e-07
3.96013e-06
-2.78156e-07
3.74988e-06
-2.81291e-07
3.54962e-06
-2.82573e-07
3.36091e-06
3.18482e-06
4.68316e-07
1.65156e-05
4.70718e-07
1.65535e-05
4.77308e-07
1.65874e-05
4.89305e-07
1.66078e-05
5.07728e-07
1.66133e-05
5.33964e-07
1.66433e-05
5.73322e-07
1.67767e-05
6.38746e-07
1.69664e-05
7.38295e-07
1.66942e-05
8.43925e-07
1.49471e-05
8.94875e-07
1.11685e-05
8.64967e-07
6.57195e-06
8.23681e-07
3.15377e-06
8.15842e-07
1.26136e-06
8.11258e-07
5.01544e-07
8.35521e-07
2.11146e-07
9.15789e-07
2.76138e-08
1.04464e-06
-8.23427e-08
1.20613e-06
-8.68497e-08
1.36735e-06
3.95962e-08
1.48877e-06
2.25252e-07
1.57797e-06
4.35809e-07
1.64212e-06
6.68134e-07
1.6819e-06
9.07749e-07
1.68917e-06
1.17824e-06
1.65326e-06
1.47891e-06
1.5693e-06
1.79943e-06
1.44238e-06
2.12982e-06
1.28655e-06
2.4549e-06
1.11674e-06
2.76095e-06
9.34683e-07
3.05944e-06
7.18844e-07
3.46521e-06
5.53778e-07
4.06304e-06
3.61376e-07
4.83152e-06
1.9982e-07
5.44957e-06
6.69056e-08
5.83679e-06
-4.06655e-08
5.98194e-06
-1.25804e-07
5.93061e-06
-1.93118e-07
5.74849e-06
-2.46916e-07
5.49724e-06
-2.90497e-07
5.2212e-06
-3.26022e-07
4.94576e-06
-3.54668e-07
4.68198e-06
-3.76927e-07
4.43247e-06
-3.93058e-07
4.19598e-06
-4.03625e-07
3.9707e-06
-4.09781e-07
3.75603e-06
-4.13011e-07
3.55285e-06
-4.14584e-07
3.36248e-06
3.18538e-06
4.81293e-07
1.65176e-05
4.81978e-07
1.65528e-05
4.86348e-07
1.6583e-05
4.95512e-07
1.65987e-05
5.10266e-07
1.65986e-05
5.31694e-07
1.66219e-05
5.64411e-07
1.6744e-05
6.20286e-07
1.69105e-05
7.09493e-07
1.6605e-05
8.09937e-07
1.48466e-05
8.82683e-07
1.10958e-05
8.71063e-07
6.58357e-06
8.51458e-07
3.17338e-06
8.30372e-07
1.28244e-06
8.11087e-07
5.20828e-07
8.42067e-07
1.80166e-07
9.35744e-07
-6.60628e-08
1.09567e-06
-2.42266e-07
1.29194e-06
-2.83118e-07
1.48495e-06
-1.53421e-07
1.623e-06
8.72068e-08
1.72619e-06
3.32611e-07
1.79798e-06
5.96345e-07
1.83332e-06
8.7241e-07
1.83475e-06
1.17682e-06
1.79286e-06
1.5208e-06
1.69623e-06
1.89606e-06
1.54942e-06
2.27663e-06
1.37397e-06
2.63035e-06
1.19551e-06
2.93941e-06
1.03056e-06
3.22439e-06
8.00096e-07
3.69567e-06
5.61912e-07
4.30122e-06
3.15855e-07
5.07758e-06
1.03657e-07
5.66177e-06
-6.42174e-08
6.00466e-06
-1.9202e-07
6.10974e-06
-2.87077e-07
6.02567e-06
-3.57918e-07