/*--------------------------------*- C++ -*----------------------------------*\
  =========                 |
  \\      /  F ield         | OpenFOAM: The Open Source CFD Toolbox
   \\    /   O peration     | Website:  https://openfoam.org
    \\  /    A nd           | Version:  9
     \\/     M anipulation  |
\*---------------------------------------------------------------------------*/
FoamFile
{
    format      ascii;
    class       volScalarField;
    location    "0.16";
    object      rAU;
}
// * * * * * * * * * * * * * * * * * * * * * * * * * * * * * * * * * * * * * //

dimensions      [-1 3 1 0 0 0 0];

internalField   nonuniform List<scalar> 
5000
(
2.06072e-05
2.0545e-05
2.04739e-05
2.03946e-05
2.03093e-05
2.02224e-05
2.01231e-05
1.99521e-05
1.96982e-05
1.96772e-05
1.95592e-05
2.09887e-05
6.62189e-07
3.65264e-08
2.8846e-08
2.88664e-08
2.88682e-08
2.89742e-08
2.91472e-08
2.93359e-08
2.91039e-08
2.89476e-08
2.88781e-08
2.88777e-08
2.86821e-08
2.8481e-08
2.83545e-08
2.82795e-08
2.8155e-08
3.28951e-08
2.2533e-07
1.58643e-05
1.89326e-05
1.92782e-05
1.8656e-05
1.7958e-05
1.75468e-05
1.73531e-05
1.72587e-05
1.71829e-05
1.70878e-05
1.69648e-05
1.68176e-05
1.66519e-05
1.64717e-05
1.62785e-05
1.60725e-05
1.58537e-05
1.56217e-05
1.63935e-05
2.06089e-05
2.05502e-05
2.0484e-05
2.04116e-05
2.03364e-05
2.02634e-05
2.01794e-05
2.00251e-05
1.98118e-05
1.97819e-05
1.97721e-05
2.23776e-05
2.98872e-06
4.15682e-08
2.87346e-08
2.88236e-08
2.8822e-08
2.89193e-08
2.91093e-08
2.93465e-08
2.91017e-08
2.89358e-08
2.88674e-08
2.88977e-08
2.88051e-08
2.85649e-08
2.84023e-08
2.82966e-08
2.81612e-08
3.54196e-08
3.61496e-07
1.72088e-05
1.78954e-05
1.98643e-05
1.91573e-05
1.83836e-05
1.78928e-05
1.76399e-05
1.75129e-05
1.74247e-05
1.73282e-05
1.72074e-05
1.70623e-05
1.68977e-05
1.67179e-05
1.65248e-05
1.63192e-05
1.61009e-05
1.58696e-05
1.66752e-05
2.06131e-05
2.0558e-05
2.04969e-05
2.04317e-05
2.03668e-05
2.0307e-05
2.0237e-05
2.01002e-05
1.98919e-05
1.98809e-05
2.05401e-05
2.30581e-05
1.23174e-05
5.73919e-08
2.86157e-08
2.87799e-08
2.87808e-08
2.88478e-08
2.90311e-08
2.92991e-08
2.90931e-08
2.89208e-08
2.88531e-08
2.88987e-08
2.89439e-08
2.86746e-08
2.84821e-08
2.8344e-08
2.81851e-08
4.45081e-08
3.32568e-06
1.88972e-05
1.71667e-05
2.02729e-05
1.96258e-05
1.87757e-05
1.82251e-05
1.7923e-05
1.77657e-05
1.7664e-05
1.75646e-05
1.74453e-05
1.73026e-05
1.71398e-05
1.6961e-05
1.67687e-05
1.65639e-05
1.63467e-05
1.61168e-05
1.69585e-05
2.06192e-05
2.05678e-05
2.05118e-05
2.04537e-05
2.03986e-05
2.03509e-05
2.02929e-05
2.01567e-05
1.9936e-05
1.99935e-05
2.10368e-05
2.3415e-05
2.19098e-05
1.03783e-07
2.96077e-08
2.87057e-08
2.87328e-08
2.87636e-08
2.89201e-08
2.91933e-08
2.90699e-08
2.89e-08
2.88369e-08
2.88988e-08
2.90399e-08
2.88021e-08
2.85975e-08
2.84412e-08
2.90675e-08
8.21206e-08
1.6044e-05
1.98571e-05
1.86222e-05
2.03615e-05
2.00269e-05
1.91198e-05
1.85302e-05
1.81929e-05
1.80114e-05
1.78975e-05
1.77946e-05
1.76764e-05
1.75359e-05
1.7375e-05
1.71973e-05
1.70054e-05
1.68002e-05
1.65819e-05
1.63498e-05
1.72221e-05
2.06267e-05
2.0579e-05
2.0528e-05
2.04764e-05
2.04302e-05
2.0393e-05
2.03338e-05
2.01808e-05
1.99726e-05
2.01059e-05
2.1241e-05
2.36614e-05
2.45599e-05
4.55826e-07
3.31431e-08
2.85062e-08
2.86224e-08
2.86598e-08
2.87913e-08
2.90451e-08
2.90315e-08
2.88783e-08
2.88279e-08
2.89048e-08
2.90894e-08
2.89158e-08
2.87165e-08
2.85681e-08
3.73341e-08
4.19281e-07
2.02612e-05
1.96728e-05
1.99873e-05
2.05112e-05
2.03375e-05
1.94103e-05
1.88041e-05
1.8446e-05
1.82475e-05
1.81238e-05
1.80176e-05
1.78999e-05
1.77614e-05
1.76026e-05
1.74264e-05
1.72356e-05
1.70313e-05
1.68139e-05
1.65831e-05
1.74968e-05
2.06352e-05
2.05911e-05
2.05446e-05
2.04989e-05
2.04605e-05
2.04208e-05
2.03459e-05
2.01942e-05
2.00218e-05
2.01986e-05
2.08972e-05
2.38857e-05
2.51437e-05
5.38153e-06
5.43596e-08
2.828e-08
2.84284e-08
2.85298e-08
2.86575e-08
2.88758e-08
2.89665e-08
2.88632e-08
2.88354e-08
2.892e-08
2.91354e-08
2.89681e-08
2.87695e-08
3.20909e-08
1.13407e-07
1.67573e-05
2.25378e-05
1.9723e-05
1.95055e-05
2.07292e-05
2.05442e-05
1.96573e-05
1.90507e-05
1.86837e-05
1.84744e-05
1.83432e-05
1.82336e-05
1.81158e-05
1.79787e-05
1.78218e-05
1.76475e-05
1.74582e-05
1.72554e-05
1.70394e-05
1.68098e-05
1.77616e-05
2.06288e-05
2.05963e-05
2.05574e-05
2.05136e-05
2.0469e-05
2.04227e-05
2.03502e-05
2.02122e-05
2.00761e-05
2.02898e-05
2.08889e-05
2.42093e-05
2.54049e-05
1.72931e-05
4.40471e-07
3.98622e-08
2.82818e-08
2.83907e-08
2.85271e-08
2.87042e-08
2.87991e-08
2.88596e-08
2.88623e-08
2.89453e-08
2.91709e-08
2.89597e-08
3.15278e-08
8.60403e-08
1.09145e-05
2.25296e-05
2.25539e-05
2.19377e-05
1.92045e-05
2.04773e-05
2.07409e-05
1.98826e-05
1.92819e-05
1.89112e-05
1.86946e-05
1.85566e-05
1.84431e-05
1.83239e-05
1.81873e-05
1.80316e-05
1.78587e-05
1.76709e-05
1.74694e-05
1.72546e-05
1.70261e-05
1.80141e-05
2.06101e-05
2.05785e-05
2.05414e-05
2.05008e-05
2.04613e-05
2.04218e-05
2.03563e-05
2.02307e-05
2.01289e-05
2.0368e-05
2.10576e-05
2.45588e-05
2.57955e-05
2.44366e-05
1.20859e-05
2.26015e-07
3.90481e-08
2.83182e-08
2.84007e-08
2.85364e-08
2.85544e-08
2.87276e-08
2.88408e-08
2.89747e-08
2.91638e-08
3.63049e-08
1.03373e-07
1.32551e-05
2.37379e-05
1.61345e-05
1.99073e-05
2.22765e-05
1.92742e-05
2.05752e-05
2.09512e-05
2.00985e-05
1.95043e-05
1.91316e-05
1.89083e-05
1.87634e-05
1.86448e-05
1.85229e-05
1.83855e-05
1.82301e-05
1.8058e-05
1.78713e-05
1.7671e-05
1.74572e-05
1.72297e-05
1.82509e-05
2.05931e-05
2.05626e-05
2.05274e-05
2.049e-05
2.04551e-05
2.04215e-05
2.03617e-05
2.02459e-05
2.01744e-05
2.04532e-05
2.12239e-05
2.48129e-05
2.61724e-05
2.5655e-05
2.46394e-05
1.38563e-05
2.96241e-07
5.42074e-08
3.38065e-08
3.02726e-08
2.94687e-08
2.99974e-08
3.19697e-08
3.75345e-08
5.74492e-08
2.12866e-07
2.13408e-05
2.71585e-05
2.37345e-05
1.60116e-05
1.57957e-05
2.22103e-05
2.01089e-05
2.08532e-05
2.11633e-05
2.02967e-05
1.97136e-05
1.93404e-05
1.91117e-05
1.89599e-05
1.88355e-05
1.87098e-05
1.85705e-05
1.84144e-05
1.82425e-05
1.80562e-05
1.78566e-05
1.76437e-05
1.74177e-05
1.84708e-05
2.05777e-05
2.05483e-05
2.05149e-05
2.04803e-05
2.04495e-05
2.04204e-05
2.03643e-05
2.02549e-05
2.02078e-05
2.05214e-05
2.13618e-05
2.47642e-05
2.64488e-05
2.61224e-05
2.60409e-05
2.61228e-05
2.16316e-05
2.72715e-06
2.39517e-07
1.19318e-07
9.32894e-08
9.74506e-08
1.28853e-07
2.56275e-07
1.92709e-06
2.12826e-05
2.29054e-05
2.70998e-05
2.6902e-05
1.7901e-05
1.57343e-05
1.93612e-05
2.30628e-05
2.1069e-05
2.13013e-05
2.04545e-05
1.99027e-05
1.95312e-05
1.92986e-05
1.91406e-05
1.90105e-05
1.88806e-05
1.87387e-05
1.85813e-05
1.84088e-05
1.82224e-05
1.80229e-05
1.78108e-05
1.75874e-05
1.86715e-05
2.05636e-05
2.05353e-05
2.05036e-05
2.04715e-05
2.04438e-05
2.04176e-05
2.03626e-05
2.02559e-05
2.02271e-05
2.03604e-05
2.14782e-05
2.44554e-05
2.66344e-05
2.65177e-05
2.64129e-05
2.69423e-05
2.65161e-05
2.63926e-05
2.40834e-05
2.22002e-05
2.09264e-05
2.09582e-05
2.12512e-05
2.29947e-05
2.30947e-05
2.31018e-05
2.64741e-05
2.72516e-05
2.71739e-05
2.34053e-05
1.57715e-05
1.63128e-05
2.35459e-05
2.21736e-05
2.13885e-05
2.05964e-05
2.00696e-05
1.97e-05
1.94644e-05
1.93009e-05
1.91653e-05
1.90312e-05
1.88865e-05
1.87275e-05
1.85542e-05
1.83674e-05
1.81679e-05
1.79569e-05
1.77367e-05
1.88476e-05
2.05506e-05
2.05234e-05
2.04931e-05
2.0463e-05
2.04377e-05
2.04127e-05
2.03564e-05
2.02489e-05
2.02264e-05
2.02787e-05
2.18417e-05
2.45137e-05
2.67516e-05
2.68443e-05
2.67319e-05
2.71858e-05
2.72394e-05
2.71068e-05
2.66521e-05
2.58695e-05
2.50339e-05
2.46724e-05
2.45123e-05
2.47209e-05
2.52448e-05
2.6353e-05
2.71841e-05
2.71995e-05
2.71337e-05
2.62249e-05
2.08554e-05
1.92034e-05
2.3469e-05
2.23196e-05
2.12742e-05
2.0596e-05
2.01613e-05
1.98455e-05
1.96058e-05
1.94368e-05
1.92961e-05
1.91583e-05
1.90112e-05
1.88508e-05
1.86766e-05
1.84895e-05
1.82902e-05
1.80805e-05
1.7863e-05
1.89951e-05
2.05387e-05
2.05124e-05
2.04834e-05
2.04549e-05
2.04311e-05
2.0406e-05
2.03463e-05
2.02352e-05
2.02155e-05
2.05922e-05
2.24374e-05
2.45791e-05
2.68562e-05
2.71106e-05
2.70501e-05
2.73466e-05
2.74428e-05
2.74542e-05
2.74497e-05
2.74288e-05
2.71332e-05
2.69932e-05
2.6904e-05
2.67926e-05
2.67186e-05
2.67752e-05
2.69659e-05
2.70164e-05
2.69644e-05
2.55934e-05
2.46896e-05
2.46325e-05
2.33428e-05
2.22677e-05
2.12803e-05
2.06158e-05
2.01747e-05
1.99123e-05
1.9716e-05
1.95431e-05
1.93989e-05
1.92586e-05
1.91101e-05
1.89491e-05
1.87748e-05
1.85878e-05
1.83891e-05
1.81809e-05
1.79653e-05
1.91136e-05
2.05277e-05
2.05022e-05
2.04743e-05
2.04471e-05
2.04242e-05
2.03979e-05
2.03336e-05
2.02171e-05
2.02045e-05
2.07766e-05
2.25039e-05
2.49415e-05
2.68829e-05
2.73007e-05
2.73278e-05
2.75132e-05
2.75808e-05
2.75853e-05
2.75804e-05
2.75402e-05
2.72364e-05
2.71014e-05
2.69858e-05
2.68694e-05
2.67571e-05
2.67377e-05
2.6809e-05
2.68291e-05
2.67678e-05
2.41518e-05
2.11398e-05
2.45387e-05
2.3207e-05
2.2283e-05
2.13456e-05
2.06742e-05
2.02257e-05
1.99657e-05
1.97815e-05
1.96142e-05
1.94698e-05
1.93296e-05
1.91818e-05
1.90218e-05
1.88487e-05
1.86628e-05
1.84656e-05
1.82591e-05
1.80451e-05
1.92052e-05
2.05175e-05
2.04929e-05
2.04659e-05
2.04397e-05
2.04173e-05
2.03893e-05
2.03199e-05
2.01978e-05
2.01953e-05
2.07758e-05
2.24774e-05
2.50838e-05
2.68334e-05
2.7422e-05
2.75402e-05
2.76665e-05
2.76803e-05
2.7683e-05
2.76756e-05
2.76107e-05
2.72954e-05
2.71397e-05
2.69962e-05
2.68587e-05
2.67377e-05
2.6676e-05
2.66776e-05
2.66739e-05
2.66003e-05
2.35292e-05
2.01181e-05
2.44056e-05
2.33875e-05
2.23473e-05
2.14246e-05
2.07599e-05
2.0306e-05
2.0023e-05
1.98189e-05
1.96498e-05
1.95087e-05
1.9372e-05
1.92275e-05
1.90707e-05
1.89003e-05
1.8717e-05
1.85223e-05
1.83184e-05
1.81059e-05
1.92748e-05
2.05081e-05
2.04843e-05
2.04583e-05
2.04331e-05
2.04109e-05
2.0381e-05
2.03069e-05
2.01801e-05
2.0183e-05
2.07451e-05
2.18489e-05
2.49646e-05
2.66451e-05
2.74915e-05
2.76926e-05
2.77934e-05
2.77237e-05
2.77601e-05
2.7756e-05
2.76709e-05
2.7345e-05
2.71689e-05
2.70019e-05
2.68427e-05
2.67044e-05
2.66083e-05
2.65563e-05
2.65119e-05
2.64055e-05
2.35829e-05
1.99579e-05
2.26965e-05
2.35393e-05
2.24347e-05
2.15442e-05
2.08649e-05
2.03805e-05
2.00456e-05
1.98169e-05
1.9655e-05
1.95206e-05
1.93901e-05
1.92515e-05
1.90999e-05
1.89342e-05
1.87551e-05
1.85643e-05
1.83637e-05
1.81531e-05
1.93292e-05
2.04994e-05
2.04766e-05
2.04515e-05
2.04273e-05
2.04055e-05
2.03742e-05
2.02965e-05
2.0167e-05
2.0172e-05
2.07e-05
2.1517e-05
2.43518e-05
2.64701e-05
2.75296e-05
2.78009e-05
2.78671e-05
2.78065e-05
2.78493e-05
2.78183e-05
2.7716e-05
2.73784e-05
2.71836e-05
2.69963e-05
2.68153e-05
2.66535e-05
2.6523e-05
2.64228e-05
2.63313e-05
2.61945e-05
2.44613e-05
1.97469e-05
1.96073e-05
2.34879e-05
2.24214e-05
2.15713e-05
2.08515e-05
2.03429e-05
2.00084e-05
1.97903e-05
1.96381e-05
1.9513e-05
1.93914e-05
1.92608e-05
1.91164e-05
1.89571e-05
1.87836e-05
1.85979e-05
1.84016e-05
1.81936e-05
1.93766e-05
2.04915e-05
2.04696e-05
2.04456e-05
2.04226e-05
2.04015e-05
2.03694e-05
2.02898e-05
2.01602e-05
2.01686e-05
2.06255e-05
2.1468e-05
2.37689e-05
2.63952e-05
2.7541e-05
2.78694e-05
2.77665e-05
2.78712e-05
2.79359e-05
2.78616e-05
2.77432e-05
2.73895e-05
2.71762e-05
2.69689e-05
2.67655e-05
2.65774e-05
2.64121e-05
2.6267e-05
2.61277e-05
2.59627e-05
2.55169e-05
2.06111e-05
1.89514e-05
2.28674e-05
2.23573e-05
2.14724e-05
2.07709e-05
2.02788e-05
1.99564e-05
1.97503e-05
1.96095e-05
1.94957e-05
1.93846e-05
1.92637e-05
1.91281e-05
1.89765e-05
1.88102e-05
1.86308e-05
1.84397e-05
1.82351e-05
1.94265e-05
2.04842e-05
2.04634e-05
2.04407e-05
2.04191e-05
2.03991e-05
2.03672e-05
2.02875e-05
2.01605e-05
2.01738e-05
2.05183e-05
2.14274e-05
2.36687e-05
2.63768e-05
2.7531e-05
2.78415e-05
2.78103e-05
2.79663e-05
2.79765e-05
2.78908e-05
2.77568e-05
2.73821e-05
2.71493e-05
2.69207e-05
2.66933e-05
2.64768e-05
2.62762e-05
2.60878e-05
2.58996e-05
2.56908e-05
2.53862e-05
2.29887e-05
1.87345e-05
1.94265e-05
2.22123e-05
2.13471e-05
2.06873e-05
2.0212e-05
1.99026e-05
1.97093e-05
1.95809e-05
1.94791e-05
1.93796e-05
1.92695e-05
1.91437e-05
1.90012e-05
1.88432e-05
1.86715e-05
1.84871e-05
1.82877e-05
1.94917e-05
2.04776e-05
2.0458e-05
2.04368e-05
2.04168e-05
2.03985e-05
2.03677e-05
2.02897e-05
2.01677e-05
2.01881e-05
2.05105e-05
2.13976e-05
2.35894e-05
2.63792e-05
2.75073e-05
2.77237e-05
2.78328e-05
2.80323e-05
2.80064e-05
2.79128e-05
2.77647e-05
2.7365e-05
2.71121e-05
2.68602e-05
2.66062e-05
2.63589e-05
2.61222e-05
2.58931e-05
2.5662e-05
2.54174e-05
2.51278e-05
2.36204e-05
1.85603e-05
1.78937e-05
2.19485e-05
2.12521e-05
2.06131e-05
2.01562e-05
1.98609e-05
1.96799e-05
1.95636e-05
1.94737e-05
1.93858e-05
1.92867e-05
1.91707e-05
1.9022e-05
1.88455e-05
1.86619e-05
1.84709e-05
1.82688e-05
1.54858e-05
2.04715e-05
2.04532e-05
2.04337e-05
2.04157e-05
2.03995e-05
2.03707e-05
2.02961e-05
2.01814e-05
2.02106e-05
2.05776e-05
2.13825e-05
2.35264e-05
2.63527e-05
2.74652e-05
2.77239e-05
2.79416e-05
2.80814e-05
2.80335e-05
2.79337e-05
2.77213e-05
2.72584e-05
2.70455e-05
2.67954e-05
2.65134e-05
2.62327e-05
2.59586e-05
2.56898e-05
2.54201e-05
2.51468e-05
2.48699e-05
2.34895e-05
1.84715e-05
1.78157e-05
2.03936e-05
2.12171e-05
2.05754e-05
2.01275e-05
1.98432e-05
1.96725e-05
1.95672e-05
1.94885e-05
1.93941e-05
1.92596e-05
1.91016e-05
1.8934e-05
1.87585e-05
1.85764e-05
1.83868e-05
1.81857e-05
1.53823e-05
2.04658e-05
2.04489e-05
2.04312e-05
2.04155e-05
2.04019e-05
2.03759e-05
2.03058e-05
2.02001e-05
2.024e-05
2.06281e-05
2.13845e-05
2.36892e-05
2.62293e-05
2.72921e-05
2.77169e-05
2.80708e-05
2.81033e-05
2.80489e-05
2.77867e-05
2.75674e-05
2.71121e-05
2.68194e-05
2.65774e-05
2.64118e-05
2.61054e-05
2.57925e-05
2.5483e-05
2.51723e-05
2.48579e-05
2.45412e-05
2.18002e-05
1.82809e-05
1.76689e-05
1.89114e-05
2.11759e-05
2.05511e-05
2.01166e-05
1.98474e-05
1.96892e-05
1.95706e-05
1.94365e-05
1.92912e-05
1.91422e-05
1.89845e-05
1.88179e-05
1.86439e-05
1.84633e-05
1.82743e-05
1.80725e-05
1.5241e-05
2.04604e-05
2.0445e-05
2.04293e-05
2.04161e-05
2.04054e-05
2.03828e-05
2.03181e-05
2.02225e-05
2.02744e-05
2.0663e-05
2.14002e-05
2.42623e-05
2.58308e-05
2.69354e-05
2.78217e-05
2.80763e-05
2.81196e-05
2.79038e-05
2.77752e-05
2.75938e-05
2.71052e-05
2.6787e-05
2.64601e-05
2.61302e-05
2.59175e-05
2.56305e-05
2.52815e-05
2.49336e-05
2.45867e-05
2.4227e-05
2.01443e-05
1.80831e-05
1.84144e-05
1.97027e-05
2.1103e-05
2.05161e-05
2.01119e-05
1.98485e-05
1.96327e-05
1.94434e-05
1.92889e-05
1.91438e-05
1.89952e-05
1.88383e-05
1.8673e-05
1.85006e-05
1.83211e-05
1.81318e-05
1.79281e-05
1.50627e-05
2.04551e-05
2.04413e-05
2.04276e-05
2.0417e-05
2.04094e-05
2.03906e-05
2.03319e-05
2.02471e-05
2.03128e-05
2.07393e-05
2.1476e-05
2.4314e-05
2.57912e-05
2.71234e-05
2.78992e-05
2.8088e-05
2.79983e-05
2.78942e-05
2.78103e-05
2.77837e-05
2.72909e-05
2.68768e-05
2.64054e-05
2.60437e-05
2.56666e-05
2.5404e-05
2.50884e-05
2.47097e-05
2.43448e-05
2.39886e-05
2.05422e-05
1.78513e-05
1.89802e-05
2.11061e-05
2.10023e-05
2.04765e-05
2.00608e-05
1.97137e-05
1.94515e-05
1.92643e-05
1.91115e-05
1.89678e-05
1.88204e-05
1.8665e-05
1.85016e-05
1.83311e-05
1.81526e-05
1.79626e-05
1.77566e-05
1.48534e-05
2.04499e-05
2.04376e-05
2.0426e-05
2.0418e-05
2.04136e-05
2.03987e-05
2.0346e-05
2.02722e-05
2.03532e-05
2.08722e-05
2.21536e-05
2.43106e-05
2.57664e-05
2.73486e-05
2.78858e-05
2.80485e-05
2.79919e-05
2.78441e-05
2.78635e-05
2.77968e-05
2.73304e-05
2.69435e-05
2.65413e-05
2.60521e-05
2.55716e-05
2.52537e-05
2.49026e-05
2.44949e-05
2.41195e-05
2.37692e-05
2.11928e-05
1.76041e-05
1.77116e-05
2.12955e-05
2.0892e-05
2.03689e-05
1.98643e-05
1.94863e-05
1.92343e-05
1.90544e-05
1.89065e-05
1.8766e-05
1.86211e-05
1.84684e-05
1.83078e-05
1.81398e-05
1.79622e-05
1.77712e-05
1.75627e-05
1.46192e-05
2.04445e-05
2.04337e-05
2.0424e-05
2.04186e-05
2.04173e-05
2.04062e-05
2.03594e-05
2.02962e-05
2.03929e-05
2.08976e-05
2.228e-05
2.42558e-05
2.59584e-05
2.73637e-05
2.78635e-05
2.79697e-05
2.79405e-05
2.78606e-05
2.76846e-05
2.76089e-05
2.72853e-05
2.69311e-05
2.65139e-05
2.60885e-05
2.56366e-05
2.51645e-05
2.47151e-05
2.42844e-05
2.39063e-05
2.35726e-05
2.0291e-05
1.73963e-05
1.69338e-05
2.11094e-05
2.06982e-05
2.01113e-05
1.9573e-05
1.9219e-05
1.89863e-05
1.8819e-05
1.86789e-05
1.85434e-05
1.84024e-05
1.82535e-05
1.80967e-05
1.79312e-05
1.7754e-05
1.75612e-05
1.73493e-05
1.43633e-05
2.04387e-05
2.04294e-05
2.04216e-05
2.04185e-05
2.04201e-05
2.04125e-05
2.0371e-05
2.03177e-05
2.04305e-05
2.08513e-05
2.17734e-05
2.36565e-05
2.61135e-05
2.73612e-05
2.78111e-05
2.80227e-05
2.80077e-05
2.77107e-05
2.74807e-05
2.73989e-05
2.71328e-05
2.69416e-05
2.64951e-05
2.60384e-05
2.55571e-05
2.50506e-05
2.45404e-05
2.40758e-05
2.37015e-05
2.33394e-05
1.79707e-05
1.72233e-05
1.67967e-05
2.10237e-05
2.03551e-05
1.9728e-05
1.92405e-05
1.89247e-05
1.87182e-05
1.85673e-05
1.84368e-05
1.83074e-05
1.81714e-05
1.80271e-05
1.78739e-05
1.771e-05
1.75316e-05
1.73352e-05
1.71187e-05
1.40896e-05
2.04325e-05
2.04244e-05
2.04183e-05
2.04174e-05
2.04216e-05
2.0417e-05
2.03799e-05
2.0336e-05
2.04652e-05
2.08951e-05
2.17193e-05
2.36387e-05
2.61366e-05
2.73619e-05
2.7869e-05
2.82355e-05
2.79502e-05
2.75457e-05
2.72825e-05
2.72083e-05
2.697e-05
2.69492e-05
2.65088e-05
2.6022e-05
2.54984e-05
2.49394e-05
2.4377e-05
2.38728e-05
2.35011e-05
2.01859e-05
1.74472e-05
1.70668e-05
1.69386e-05
2.08169e-05
1.98798e-05
1.93132e-05
1.88895e-05
1.86204e-05
1.84436e-05
1.83103e-05
1.81899e-05
1.80669e-05
1.79361e-05
1.77961e-05
1.76454e-05
1.74809e-05
1.72992e-05
1.70978e-05
1.68761e-05
1.38047e-05
2.04257e-05
2.04187e-05
2.0414e-05
2.0415e-05
2.04213e-05
2.04191e-05
2.03856e-05
2.035e-05
2.0496e-05
2.10373e-05
2.17776e-05
2.36884e-05
2.61932e-05
2.73682e-05
2.79448e-05
2.83613e-05
2.78629e-05
2.73861e-05
2.71019e-05
2.70513e-05
2.6842e-05
2.69059e-05
2.65657e-05
2.60513e-05
2.54835e-05
2.48698e-05
2.4245e-05
2.37002e-05
2.1504e-05
1.75927e-05
1.72959e-05
1.69592e-05
1.90343e-05
2.02405e-05
1.94316e-05
1.88936e-05
1.8543e-05
1.8323e-05
1.8176e-05
1.80592e-05
1.7948e-05
1.78311e-05
1.7705e-05
1.75679e-05
1.74172e-05
1.72498e-05
1.7063e-05
1.68557e-05
1.66288e-05
1.3518e-05
2.04182e-05
2.0412e-05
2.04085e-05
2.04109e-05
2.04189e-05
2.04183e-05
2.03874e-05
2.03588e-05
2.05217e-05
2.1187e-05
2.18425e-05
2.37431e-05
2.62007e-05
2.73539e-05
2.79874e-05
2.84173e-05
2.77702e-05
2.72056e-05
2.69118e-05
2.69082e-05
2.67575e-05
2.68589e-05
2.66764e-05
2.61381e-05
2.55255e-05
2.48256e-05
2.41709e-05
2.28137e-05
1.7959e-05
1.74618e-05
1.71795e-05
1.69699e-05
2.04353e-05
1.9621e-05
1.89415e-05
1.84953e-05
1.8219e-05
1.80465e-05
1.79263e-05
1.78236e-05
1.77201e-05
1.76083e-05
1.74853e-05
1.73488e-05
1.71957e-05
1.70233e-05
1.68303e-05
1.66172e-05
1.63854e-05
1.3239e-05
2.04099e-05
2.04043e-05
2.04016e-05
2.04051e-05
2.04142e-05
2.04145e-05
2.03849e-05
2.03618e-05
2.05397e-05
2.12462e-05
2.19102e-05
2.37992e-05
2.62347e-05
2.73559e-05
2.80431e-05
2.84547e-05
2.76228e-05
2.6962e-05
2.67125e-05
2.68022e-05
2.67071e-05
2.68565e-05
2.6845e-05
2.62916e-05
2.56404e-05
2.4544e-05
2.36141e-05
2.08859e-05
1.77947e-05
1.74485e-05
1.71017e-05
1.92998e-05
1.97937e-05
1.90244e-05
1.84828e-05
1.81402e-05
1.79329e-05
1.78018e-05
1.77035e-05
1.76117e-05
1.7514e-05
1.74055e-05
1.72833e-05
1.71446e-05
1.69866e-05
1.6808e-05
1.66087e-05
1.63901e-05
1.61537e-05
1.29759e-05
2.04006e-05
2.03954e-05
2.03932e-05
2.03974e-05
2.04071e-05
2.04074e-05
2.03781e-05
2.03594e-05
2.05433e-05
2.08214e-05
2.19644e-05
2.38514e-05
2.63427e-05
2.73577e-05
2.81089e-05
2.8478e-05
2.74984e-05
2.6818e-05
2.65914e-05
2.67351e-05
2.67131e-05
2.69099e-05
2.70644e-05
2.65111e-05
2.5614e-05
2.41426e-05
2.34001e-05
2.10009e-05
1.79318e-05
1.74929e-05
1.94375e-05
1.99728e-05
1.9129e-05
1.85041e-05
1.80952e-05
1.78461e-05
1.76968e-05
1.75976e-05
1.75147e-05
1.74301e-05
1.73358e-05
1.72279e-05
1.71035e-05
1.69598e-05
1.67953e-05
1.66098e-05
1.64043e-05
1.61805e-05
1.59397e-05
1.26371e-05
2.03905e-05
2.03853e-05
2.03833e-05
2.03877e-05
2.03975e-05
2.03972e-05
2.03674e-05
2.03523e-05
2.05206e-05
2.05579e-05
2.20137e-05
2.43433e-05
2.63803e-05
2.73089e-05
2.80802e-05
2.84024e-05
2.74201e-05
2.6778e-05
2.65175e-05
2.67201e-05
2.68212e-05
2.70864e-05
2.73405e-05
2.66416e-05
2.52475e-05
2.44626e-05
2.42915e-05
2.24137e-05
1.89348e-05
1.98167e-05
2.01085e-05
1.92549e-05
1.85619e-05
1.80909e-05
1.7797e-05
1.76232e-05
1.7517e-05
1.74388e-05
1.73649e-05
1.72836e-05
1.71892e-05
1.70785e-05
1.69487e-05
1.67979e-05
1.66257e-05
1.64332e-05
1.62219e-05
1.59931e-05
1.57479e-05
1.23021e-05
2.03794e-05
2.0374e-05
2.03718e-05
2.03761e-05
2.03853e-05
2.03839e-05
2.0353e-05
2.03414e-05
2.05116e-05
2.06174e-05
2.20596e-05
2.48223e-05
2.63306e-05
2.7137e-05
2.78531e-05
2.80939e-05
2.72706e-05
2.66619e-05
2.64554e-05
2.67678e-05
2.70334e-05
2.73778e-05
2.76015e-05
2.66286e-05
2.55315e-05
2.51928e-05
2.43762e-05
2.27976e-05
2.13334e-05
2.03527e-05
1.94077e-05
1.86704e-05
1.81396e-05
1.77977e-05
1.75931e-05
1.74729e-05
1.73938e-05
1.73267e-05
1.72557e-05
1.71733e-05
1.7075e-05
1.6958e-05
1.682e-05
1.66606e-05
1.64806e-05
1.62813e-05
1.60643e-05
1.58307e-05
1.55812e-05
1.20174e-05
2.03673e-05
2.03614e-05
2.03587e-05
2.03625e-05
2.03708e-05
2.03676e-05
2.03351e-05
2.03266e-05
2.05179e-05
2.10804e-05
2.21156e-05
2.48199e-05
2.60565e-05
2.68651e-05
2.76206e-05
2.77754e-05
2.70137e-05
2.64784e-05
2.60138e-05
2.68522e-05
2.72831e-05
2.77539e-05
2.76689e-05
2.68007e-05
2.57403e-05
2.48321e-05
2.33392e-05
2.19358e-05
2.06923e-05
1.96506e-05
1.88435e-05
1.82571e-05
1.78619e-05
1.76188e-05
1.74764e-05
1.7389e-05
1.73232e-05
1.72588e-05
1.71855e-05
1.70976e-05
1.69916e-05
1.68652e-05
1.67175e-05
1.65491e-05
1.63612e-05
1.61556e-05
1.59332e-05
1.56948e-05
1.5441e-05
1.17824e-05
2.03542e-05
2.03476e-05
2.03442e-05
2.03469e-05
2.03538e-05
2.03484e-05
2.03137e-05
2.03073e-05
2.05337e-05
2.13785e-05
2.27134e-05
2.43837e-05
2.56346e-05
2.65643e-05
2.74164e-05
2.75386e-05
2.63959e-05
2.41356e-05
2.28959e-05
2.62379e-05
2.75973e-05
2.82118e-05
2.76639e-05
2.64193e-05
2.53374e-05
2.38612e-05
2.24018e-05
2.10998e-05
1.99941e-05
1.91098e-05
1.84536e-05
1.80005e-05
1.77102e-05
1.75366e-05
1.74326e-05
1.73612e-05
1.72983e-05
1.72303e-05
1.71499e-05
1.70527e-05
1.6936e-05
1.67985e-05
1.66404e-05
1.64631e-05
1.6268e-05
1.60563e-05
1.58287e-05
1.55858e-05
1.53279e-05
1.15949e-05
2.03403e-05
2.03327e-05
2.03281e-05
2.03295e-05
2.03346e-05
2.03264e-05
2.0289e-05
2.02838e-05
2.05409e-05
2.13933e-05
2.26725e-05
2.39866e-05
2.55208e-05
2.62704e-05
2.71366e-05
2.73417e-05
2.56427e-05
2.22797e-05
2.2481e-05
2.36958e-05
2.78239e-05
2.82387e-05
2.69706e-05
2.56658e-05
2.4506e-05
2.29925e-05
2.16145e-05
2.04349e-05
1.94757e-05
1.87422e-05
1.82202e-05
1.78743e-05
1.76596e-05
1.75299e-05
1.74454e-05
1.73779e-05
1.73107e-05
1.72342e-05
1.71431e-05
1.70339e-05
1.69047e-05
1.67557e-05
1.65877e-05
1.64021e-05
1.62003e-05
1.59828e-05
1.57503e-05
1.55029e-05
1.5241e-05
1.14519e-05
2.03255e-05
2.03167e-05
2.03107e-05
2.03104e-05
2.03132e-05
2.03019e-05
2.02613e-05
2.02562e-05
2.05208e-05
2.13867e-05
2.22696e-05
2.38378e-05
2.53713e-05
2.59581e-05
2.69532e-05
2.72551e-05
2.57118e-05
2.30467e-05
2.2269e-05
2.30405e-05
2.76519e-05
2.77936e-05
2.62778e-05
2.49515e-05
2.37171e-05
2.22635e-05
2.09933e-05
1.99461e-05
1.91278e-05
1.8527e-05
1.81148e-05
1.78491e-05
1.76842e-05
1.75783e-05
1.74998e-05
1.74283e-05
1.73519e-05
1.72637e-05
1.71594e-05
1.70367e-05
1.68949e-05
1.67349e-05
1.65577e-05
1.63647e-05
1.61566e-05
1.59337e-05
1.56964e-05
1.54449e-05
1.51793e-05
1.13499e-05
2.03099e-05
2.02997e-05
2.0292e-05
2.02898e-05
2.029e-05
2.02753e-05
2.02311e-05
2.0225e-05
2.04907e-05
2.10834e-05
2.21958e-05
2.39389e-05
2.50896e-05
2.57099e-05
2.68605e-05
2.71269e-05
2.57856e-05
2.5211e-05
2.2289e-05
2.28635e-05
2.60586e-05
2.72035e-05
2.57086e-05
2.42496e-05
2.30496e-05
2.16841e-05
2.05329e-05
1.96158e-05
1.89247e-05
1.84344e-05
1.81067e-05
1.78966e-05
1.77608e-05
1.76643e-05
1.75832e-05
1.75026e-05
1.74141e-05
1.73121e-05
1.71937e-05
1.70575e-05
1.69039e-05
1.67339e-05
1.65486e-05
1.63488e-05
1.61349e-05
1.59071e-05
1.56653e-05
1.54099e-05
1.51409e-05
1.12852e-05
2.02937e-05
2.02818e-05
2.02722e-05
2.02677e-05
2.0265e-05
2.02467e-05
2.01989e-05
2.01913e-05
2.0449e-05
2.06673e-05
2.21414e-05
2.41292e-05
2.48091e-05
2.54868e-05
2.67715e-05
2.69396e-05
2.5595e-05
2.50348e-05
2.44941e-05
2.27254e-05
2.53951e-05
2.67082e-05
2.51815e-05
2.35996e-05
2.25138e-05
2.12479e-05
2.02154e-05
1.94184e-05
1.88362e-05
1.84336e-05
1.81671e-05
1.79921e-05
1.78703e-05
1.7774e-05
1.76851e-05
1.75929e-05
1.74906e-05
1.73744e-05
1.7242e-05
1.70935e-05
1.69293e-05
1.67506e-05
1.65581e-05
1.63522e-05
1.6133e-05
1.59005e-05
1.56546e-05
1.53956e-05
1.51237e-05
1.12538e-05
2.02768e-05
2.02631e-05
2.02514e-05
2.02444e-05
2.02387e-05
2.02167e-05
2.01651e-05
2.01555e-05
2.03721e-05
2.06208e-05
2.20578e-05
2.35753e-05
2.45466e-05
2.52511e-05
2.63343e-05
2.67044e-05
2.54537e-05
2.46453e-05
2.25938e-05
2.25885e-05
2.55325e-05
2.62639e-05
2.46623e-05
2.31034e-05
2.20271e-05
2.0938e-05
2.00168e-05
1.93252e-05
1.88323e-05
1.84961e-05
1.82712e-05
1.81161e-05
1.79986e-05
1.7897e-05
1.77978e-05
1.76927e-05
1.75765e-05
1.74464e-05
1.73015e-05
1.7142e-05
1.69688e-05
1.67826e-05
1.65837e-05
1.63723e-05
1.61483e-05
1.59115e-05
1.56621e-05
1.53999e-05
1.51253e-05
1.12522e-05
2.02596e-05
2.02439e-05
2.02299e-05
2.022e-05
2.02111e-05
2.01854e-05
2.01301e-05
2.01177e-05
2.01772e-05
2.05757e-05
2.19644e-05
2.3065e-05
2.43116e-05
2.50022e-05
2.5893e-05
2.65063e-05
2.52069e-05
2.22958e-05
2.14299e-05
2.24749e-05
2.49945e-05
2.5858e-05
2.42806e-05
2.27217e-05
2.15366e-05
2.07326e-05
1.99112e-05
1.93087e-05
1.88863e-05
1.85983e-05
1.84e-05
1.82544e-05
1.81353e-05
1.80257e-05
1.79153e-05
1.77973e-05
1.7668e-05
1.75255e-05
1.73696e-05
1.72009e-05
1.702e-05
1.68273e-05
1.66228e-05
1.64065e-05
1.61783e-05
1.59378e-05
1.56852e-05
1.54203e-05
1.51435e-05
1.12765e-05
2.0242e-05
2.02242e-05
2.02077e-05
2.01949e-05
2.01825e-05
2.0153e-05
2.00941e-05
2.00783e-05
2.00827e-05
2.05229e-05
2.18629e-05
2.28937e-05
2.41092e-05
2.47346e-05
2.57849e-05
2.68715e-05
2.49843e-05
2.11811e-05
2.13698e-05
2.24472e-05
2.37651e-05
2.55284e-05
2.40567e-05
2.24416e-05
2.14161e-05
2.06097e-05
1.98742e-05
1.93447e-05
1.89763e-05
1.87219e-05
1.85395e-05
1.83972e-05
1.82735e-05
1.81552e-05
1.80337e-05
1.79038e-05
1.77627e-05
1.76095e-05
1.74444e-05
1.72679e-05
1.70806e-05
1.68823e-05
1.6673e-05
1.64525e-05
1.62206e-05
1.5977e-05
1.57216e-05
1.54546e-05
1.51759e-05
1.13235e-05
2.02242e-05
2.02042e-05
2.0185e-05
2.01691e-05
2.01531e-05
2.01199e-05
2.00573e-05
2.0037e-05
2.01773e-05
2.07487e-05
2.17811e-05
2.3124e-05
2.39204e-05
2.42135e-05
2.56998e-05
2.69794e-05
2.52135e-05
2.3718e-05
2.15414e-05
2.24471e-05
2.40925e-05
2.52703e-05
2.38823e-05
2.25096e-05
2.14367e-05
2.05494e-05
1.9885e-05
1.94134e-05
1.90852e-05
1.88539e-05
1.86806e-05
1.85381e-05
1.84088e-05
1.82819e-05
1.81502e-05
1.80097e-05
1.78586e-05
1.76966e-05
1.75239e-05
1.73411e-05
1.71483e-05
1.69454e-05
1.6732e-05
1.6508e-05
1.62729e-05
1.60267e-05
1.57692e-05
1.55004e-05
1.52202e-05
1.13899e-05
2.02064e-05
2.01841e-05
2.01621e-05
2.01429e-05
2.01232e-05
2.00863e-05
2.00198e-05
1.9994e-05
2.02401e-05
2.10157e-05
2.15976e-05
2.32702e-05
2.36902e-05
2.41038e-05
2.57245e-05
2.68684e-05
2.45737e-05
2.45009e-05
2.45843e-05
2.24638e-05
2.5348e-05
2.50581e-05
2.37055e-05
2.24503e-05
2.13706e-05
2.05329e-05
1.99261e-05
1.94996e-05
1.92012e-05
1.89854e-05
1.88172e-05
1.86731e-05
1.85383e-05
1.84036e-05
1.82631e-05
1.81137e-05
1.79544e-05
1.77851e-05
1.76064e-05
1.74185e-05
1.72212e-05
1.70144e-05
1.67977e-05
1.65707e-05
1.63332e-05
1.6085e-05
1.58258e-05
1.55556e-05
1.52745e-05
1.14727e-05
2.01887e-05
2.0164e-05
2.01392e-05
2.01165e-05
2.00931e-05
2.00523e-05
1.99818e-05
1.99503e-05
2.01909e-05
2.09726e-05
2.14662e-05
2.31384e-05
2.34414e-05
2.40184e-05
2.55887e-05
2.58965e-05
2.41243e-05
2.45265e-05
2.47518e-05
2.53122e-05
2.50123e-05
2.48983e-05
2.3568e-05
2.23577e-05
2.13308e-05
2.05452e-05
1.9984e-05
1.95922e-05
1.93158e-05
1.91109e-05
1.89457e-05
1.87997e-05
1.86601e-05
1.85188e-05
1.8371e-05
1.82145e-05
1.80486e-05
1.78737e-05
1.76902e-05
1.74981e-05
1.72974e-05
1.70875e-05
1.68681e-05
1.66389e-05
1.63996e-05
1.61498e-05
1.58894e-05
1.56184e-05
1.53365e-05
1.15691e-05
2.01713e-05
2.01441e-05
2.01163e-05
2.00902e-05
2.00628e-05
2.00183e-05
1.99436e-05
1.99057e-05
2.01309e-05
2.06572e-05
2.13919e-05
2.30056e-05
2.34721e-05
2.41777e-05
2.49652e-05
2.60489e-05
2.48931e-05
2.45941e-05
2.47501e-05
2.60856e-05
2.57125e-05
2.48022e-05
2.34767e-05
2.23031e-05
2.13197e-05
2.0575e-05
2.00489e-05
1.96835e-05
1.94236e-05
1.92268e-05
1.90638e-05
1.89163e-05
1.87729e-05
1.86264e-05
1.84729e-05
1.83108e-05
1.814e-05
1.79608e-05
1.77737e-05
1.75785e-05
1.73751e-05
1.7163e-05
1.69417e-05
1.67109e-05
1.64702e-05
1.62195e-05
1.59584e-05
1.56868e-05
1.54046e-05
1.16765e-05
2.01543e-05
2.01247e-05
2.00939e-05
2.00642e-05
2.00329e-05
1.99845e-05
1.99057e-05
1.986e-05
2.00575e-05
2.02915e-05
2.14501e-05
2.2883e-05
2.34883e-05
2.41804e-05
2.4189e-05
2.59933e-05
2.57398e-05
2.47034e-05
2.47548e-05
2.58638e-05
2.60591e-05
2.46537e-05
2.34221e-05
2.22773e-05
2.13278e-05
2.06138e-05
2.01138e-05
1.97685e-05
1.95214e-05
1.93311e-05
1.91703e-05
1.9022e-05
1.88759e-05
1.87257e-05
1.8568e-05
1.84019e-05
1.82275e-05
1.80453e-05
1.78557e-05
1.76584e-05
1.74531e-05
1.72394e-05
1.70169e-05
1.67852e-05
1.65438e-05
1.62925e-05
1.60311e-05
1.57594e-05
1.54772e-05
1.17925e-05
2.01379e-05
2.01059e-05
2.00721e-05
2.00388e-05
2.00036e-05
1.99514e-05
1.98687e-05
1.98149e-05
1.99696e-05
2.0201e-05
2.14668e-05
2.27701e-05
2.34249e-05
2.42206e-05
2.40801e-05
2.58276e-05
2.60775e-05
2.48233e-05
2.39872e-05
2.47356e-05
2.51649e-05
2.46506e-05
2.33945e-05
2.22707e-05
2.13471e-05
2.06552e-05
2.0174e-05
1.9844e-05
1.96072e-05
1.94227e-05
1.92644e-05
1.91163e-05
1.89688e-05
1.88162e-05
1.86558e-05
1.84871e-05
1.83104e-05
1.81264e-05
1.79352e-05
1.77366e-05
1.75303e-05
1.73158e-05
1.70927e-05
1.68605e-05
1.66189e-05
1.63675e-05
1.61062e-05
1.58347e-05
1.55527e-05
1.1915e-05
2.01223e-05
2.00879e-05
2.00512e-05
2.00143e-05
1.99751e-05
1.99194e-05
1.9833e-05
1.97712e-05
1.98945e-05
2.01097e-05
2.11986e-05
2.26238e-05
2.33275e-05
2.41062e-05