/*--------------------------------*- C++ -*----------------------------------*\
  =========                 |
  \\      /  F ield         | OpenFOAM: The Open Source CFD Toolbox
   \\    /   O peration     | Website:  https://openfoam.org
    \\  /    A nd           | Version:  9
     \\/     M anipulation  |
\*---------------------------------------------------------------------------*/
FoamFile
{
    format      ascii;
    class       surfaceVectorField;
    location    "0.16";
    object      Uf;
}
// * * * * * * * * * * * * * * * * * * * * * * * * * * * * * * * * * * * * * //

dimensions      [0 1 -1 0 0 0 0];

internalField   nonuniform List<vector> 
9850
(
(-0.247825 0 0.133257)
(-0.235147 0 0.126645)
(-0.260403 0 0.156512)
(-0.246716 0 0.1475)
(-0.272537 0 0.18449)
(-0.257866 0 0.172768)
(-0.283422 0 0.217171)
(-0.267955 0 0.20255)
(-0.291702 0 0.253939)
(-0.275919 0 0.23645)
(-0.295464 0 0.297131)
(-0.279634 0 0.273269)
(-0.294579 0 0.363837)
(-0.277171 0 0.319146)
(-0.291656 0 0.475406)
(-0.272091 0 0.403333)
(-0.272268 0 0.561992)
(-0.259294 0 0.534291)
(-0.178668 0 0.371797)
(-0.201844 0 0.542752)
(0.010261 0 -0.405316)
(-0.129254 0 0.0913858)
(0.217177 0 -1.47204)
(0.286238 0 -1.06002)
(0.0543806 0 -2.18926)
(0.133609 0 -1.90176)
(-0.00899048 0 -2.45822)
(0.0219699 0 -2.3796)
(-0.0337348 0 -2.50314)
(-0.0231471 0 -2.49771)
(-0.0478173 0 -2.49438)
(-0.0416851 0 -2.49466)
(-0.060618 0 -2.49896)
(-0.050851 0 -2.48618)
(-0.0719553 0 -2.52577)
(-0.0627192 0 -2.50357)
(-0.0778251 0 -2.56592)
(-0.0741456 0 -2.54043)
(-0.0725799 0 -2.60884)
(-0.0790294 0 -2.58828)
(-0.0566201 0 -2.63314)
(-0.0728884 0 -2.63078)
(-0.0328553 0 -2.63433)
(-0.055716 0 -2.64956)
(-0.00835134 0 -2.61261)
(-0.0316348 0 -2.63965)
(0.0104147 0 -2.57776)
(-0.00815273 0 -2.6065)
(0.020816 0 -2.54252)
(0.00823458 0 -2.56498)
(0.023912 0 -2.51622)
(0.0164086 0 -2.52907)
(0.0212495 0 -2.49992)
(0.0180254 0 -2.50561)
(0.0139863 0 -2.47895)
(0.0140444 0 -2.49012)
(0.00378579 0 -2.42313)
(0.00217399 0 -2.45789)
(-0.00778506 0 -2.29723)
(-0.00970232 0 -2.374)
(-0.0200055 0 -2.02831)
(-0.0273103 0 -2.2017)
(0.0542072 0 -1.49303)
(-0.0321704 0 -1.88389)
(0.163405 0 -0.825412)
(0.072842 0 -1.21833)
(0.271875 0 -0.259263)
(0.173588 0 -0.59007)
(0.358108 0 0.138362)
(0.271331 0 -0.084017)
(0.412948 0 0.349535)
(0.343455 0 0.23837)
(0.439779 0 0.412412)
(0.38449 0 0.382579)
(0.448379 0 0.389468)
(0.40232 0 0.403101)
(0.448372 0 0.334069)
(0.407231 0 0.362318)
(0.445859 0 0.276945)
(0.406948 0 0.304733)
(0.44339 0 0.229238)
(0.405551 0 0.251963)
(0.441408 0 0.19135)
(0.404374 0 0.209581)
(0.439602 0 0.160213)
(0.403414 0 0.175868)
(0.437629 0 0.132945)
(0.402336 0 0.14757)
(0.435321 0 0.107831)
(0.400901 0 0.122244)
(0.432665 0 0.0841178)
(0.39903 0 0.0986063)
(0.429721 0 0.0615547)
(0.396774 0 0.0761522)
(0.426567 0 0.0400183)
(0.39417 0 0.0547249)
(0.423251 0 0.0193142)
(0.391574 0 0.0342281)
(0.386823 0 0.0147861)
(-0.234267 0 0.140907)
(-0.222774 0 0.133727)
(-0.244434 0 0.163807)
(-0.232316 0 0.154278)
(-0.253589 0 0.190996)
(-0.240945 0 0.178872)
(-0.260783 0 0.222091)
(-0.247991 0 0.207346)
(-0.264366 0 0.256078)
(-0.252248 0 0.238838)
(-0.262484 0 0.295755)
(-0.25142 0 0.272014)
(-0.254778 0 0.359361)
(-0.243313 0 0.314008)
(-0.240983 0 0.463138)
(-0.232257 0 0.394136)
(-0.206571 0 0.518804)
(-0.212998 0 0.51135)
(-0.104791 0 0.273107)
(-0.13223 0 0.474899)
(0.0879739 0 -0.538686)
(-0.0660515 0 -0.0371248)
(0.25395 0 -1.46273)
(0.309792 0 -1.17067)
(0.107223 0 -2.07986)
(0.225289 0 -1.80394)
(0.00820861 0 -2.41632)
(0.0534866 0 -2.31359)
(-0.0323031 0 -2.48863)
(-0.0168207 0 -2.47071)
(-0.0439941 0 -2.48643)
(-0.0407464 0 -2.48687)
(-0.0523446 0 -2.49114)
(-0.0419466 0 -2.48061)
(-0.0643105 0 -2.51872)
(-0.0499119 0 -2.4956)
(-0.0760079 0 -2.56332)
(-0.0636259 0 -2.53263)
(-0.0799773 0 -2.61494)
(-0.0754858 0 -2.58564)
(-0.072006 0 -2.64799)
(-0.078631 0 -2.63729)
(-0.0533773 0 -2.65499)
(-0.0701566 0 -2.66551)
(-0.0299685 0 -2.63313)
(-0.0516943 0 -2.66066)
(-0.0095633 0 -2.59315)
(-0.0293765 0 -2.62571)
(0.0037752 0 -2.55105)
(-0.0113949 0 -2.57815)
(0.0100937 0 -2.51812)
(-0.000923461 0 -2.53562)
(0.0100119 0 -2.4954)
(0.00297172 0 -2.50552)
(0.00292006 0 -2.46834)
(-6.50258e-05 0 -2.48204)
(-0.0122453 0 -2.40559)
(-0.0139746 0 -2.43975)
(-0.0367302 0 -2.27395)
(-0.0325324 0 -2.34328)
(-0.0422001 0 -2.04876)
(-0.0604867 0 -2.1945)
(-0.00263782 0 -1.59141)
(-0.060318 0 -1.9385)
(0.0806614 0 -0.96761)
(0.017058 0 -1.33894)
(0.175028 0 -0.402285)
(0.0930624 0 -0.733395)
(0.255949 0 0.0242475)
(0.180537 0 -0.212939)
(0.31299 0 0.275399)
(0.249801 0 0.143044)
(0.34586 0 0.374302)
(0.293454 0 0.324957)
(0.360896 0 0.375477)
(0.316405 0 0.375452)
(0.365937 0 0.332046)
(0.326245 0 0.352595)
(0.366862 0 0.278871)
(0.329603 0 0.302861)
(0.36672 0 0.231616)
(0.330658 0 0.252265)
(0.366497 0 0.19356)
(0.331215 0 0.210078)
(0.366207 0 0.162763)
(0.331655 0 0.176546)
(0.365628 0 0.136432)
(0.331832 0 0.148991)
(0.364607 0 0.112581)
(0.331563 0 0.124871)
(0.363114 0 0.0901929)
(0.330761 0 0.102631)
(0.361202 0 0.0688622)
(0.329449 0 0.0815617)
(0.358948 0 0.0484573)
(0.327666 0 0.0614113)
(0.356387 0 0.0292158)
(0.325689 0 0.0421957)
(0.321711 0 0.0248982)
(-0.220965 0 0.147187)
(-0.210627 0 0.139611)
(-0.22903 0 0.169453)
(-0.218372 0 0.159655)
(-0.235613 0 0.195375)
(-0.224857 0 0.18326)
(-0.239643 0 0.224327)
(-0.229326 0 0.210033)
(-0.239413 0 0.255113)
(-0.230527 0 0.238685)
(-0.233312 0 0.290833)
(-0.226401 0 0.267948)
(-0.221017 0 0.349802)
(-0.214505 0 0.305811)
(-0.200211 0 0.443721)
(-0.198905 0 0.380266)
(-0.157067 0 0.470011)
(-0.177996 0 0.482586)
(-0.0562949 0 0.171239)
(-0.0851356 0 0.407718)
(0.125131 0 -0.662172)
(-0.0190421 0 -0.158075)
(0.247575 0 -1.49691)
(0.283029 0 -1.2523)
(0.211633 0 -2.01758)
(0.349636 0 -1.77998)
(0.0309189 0 -2.36256)
(0.113194 0 -2.19311)
(-0.028014 0 -2.47089)
(-0.00414811 0 -2.43142)
(-0.0376386 0 -2.48132)
(-0.0321182 0 -2.48045)
(-0.0388039 0 -2.48563)
(-0.0276715 0 -2.47983)
(-0.0482669 0 -2.51025)
(-0.0301629 0 -2.48929)
(-0.0632387 0 -2.55587)
(-0.043031 0 -2.52265)
(-0.0756787 0 -2.61409)
(-0.0592073 0 -2.57735)
(-0.0775424 0 -2.65619)
(-0.071091 0 -2.63577)
(-0.067847 0 -2.6716)
(-0.0737992 0 -2.6738)
(-0.0494855 0 -2.65294)
(-0.0655632 0 -2.67714)
(-0.0300918 0 -2.61024)
(-0.0487729 0 -2.64397)
(-0.0159199 0 -2.56245)
(-0.0321769 0 -2.59215)
(-0.00830048 0 -2.523)
(-0.0223127 0 -2.54351)
(-0.00759069 0 -2.49244)
(-0.0198233 0 -2.50629)
(-0.0158044 0 -2.45365)
(-0.0252472 0 -2.47267)
(-0.0383256 0 -2.37455)
(-0.0393278 0 -2.41282)
(-0.0749885 0 -2.26014)
(-0.0614654 0 -2.29729)
(-0.0653984 0 -2.07346)
(-0.0878307 0 -2.20712)
(-0.0361574 0 -1.66231)
(-0.0725074 0 -1.97886)
(0.0272352 0 -1.08435)
(-0.0150386 0 -1.43073)
(0.103191 0 -0.528533)
(0.0420332 0 -0.848759)
(0.17414 0 -0.0838958)
(0.113191 0 -0.325975)
(0.228226 0 0.19816)
(0.17366 0 0.0526561)
(0.262749 0 0.328167)
(0.215115 0 0.264438)
(0.281355 0 0.352621)
(0.2397 0 0.341237)
(0.289939 0 0.322667)
(0.252362 0 0.336036)
(0.293581 0 0.275403)
(0.258297 0 0.295492)
(0.295341 0 0.230017)
(0.26128 0 0.248528)
(0.296507 0 0.192514)
(0.263225 0 0.207479)
(0.297358 0 0.162329)
(0.264751 0 0.174557)
(0.297806 0 0.137039)
(0.265888 0 0.147893)
(0.297732 0 0.114563)
(0.266527 0 0.125059)
(0.297091 0 0.0936817)
(0.2666 0 0.104358)
(0.295901 0 0.0738595)
(0.266114 0 0.0849258)
(0.294203 0 0.055008)
(0.265116 0 0.0664458)
(0.292015 0 0.0379638)
(0.26393 0 0.0490029)
(0.26122 0 0.0330712)
(-0.208121 0 0.15217)
(-0.198861 0 0.144442)
(-0.214327 0 0.173579)
(-0.205028 0 0.163793)
(-0.218752 0 0.19805)
(-0.209718 0 0.18621)
(-0.220305 0 0.224587)
(-0.212139 0 0.21107)
(-0.217279 0 0.251845)
(-0.211028 0 0.236667)
(-0.208285 0 0.283445)
(-0.20474 0 0.261952)
(-0.193364 0 0.337184)
(-0.190849 0 0.295863)
(-0.169142 0 0.420291)
(-0.172096 0 0.364119)
(-0.121607 0 0.420932)
(-0.151988 0 0.450896)
(-0.0263832 0 0.0782278)
(-0.0564093 0 0.344236)
(0.140834 0 -0.759795)
(0.0141814 0 -0.269553)
(0.272011 0 -1.55397)
(0.232732 0 -1.33975)
(0.365385 0 -1.96336)
(0.402594 0 -1.84223)
(0.0791173 0 -2.26413)
(0.181781 0 -2.00227)
(-0.0101999 0 -2.44314)
(0.0333763 0 -2.37187)
(-0.0218358 0 -2.47981)
(0.00476074 0 -2.47269)
(-0.0181735 0 -2.48404)
(-0.00177376 0 -2.48228)
(-0.0237058 0 -2.50238)
(-0.0037864 0 -2.4856)
(-0.0384919 0 -2.54509)
(-0.0134786 0 -2.51279)
(-0.0568074 0 -2.60598)
(-0.03021 0 -2.56513)
(-0.0689181 0 -2.65522)
(-0.0486976 0 -2.62589)
(-0.0717207 0 -2.68009)
(-0.0635423 0 -2.67141)
(-0.0634559 0 -2.66792)
(-0.0697887 0 -2.68456)
(-0.0493642 0 -2.6253)
(-0.0636648 0 -2.65724)
(-0.03815 0 -2.57284)
(-0.0521755 0 -2.60323)
(-0.0337266 0 -2.52677)
(-0.0468601 0 -2.5481)
(-0.0367916 0 -2.48654)
(-0.0510503 0 -2.50296)
(-0.0495677 0 -2.43229)
(-0.0622678 0 -2.45811)
(-0.0693882 0 -2.3363)
(-0.071432 0 -2.38912)
(-0.0963689 0 -2.24065)
(-0.0836358 0 -2.26344)
(-0.0761627 0 -2.10269)
(-0.089879 0 -2.23371)
(-0.0458753 0 -1.73088)
(-0.0586846 0 -2.02067)
(0.001718 0 -1.17723)
(-0.0241308 0 -1.49964)
(0.0564701 0 -0.630618)
(0.0167369 0 -0.931917)
(0.112492 0 -0.178182)
(0.0656978 0 -0.415228)
(0.1587 0 0.125509)
(0.112907 0 -0.0245667)
(0.190823 0 0.280362)
(0.148462 0 0.208126)
(0.210161 0 0.325218)
(0.171739 0 0.305678)
(0.220617 0 0.308384)
(0.185322 0 0.315867)
(0.226113 0 0.267857)
(0.192827 0 0.284373)
(0.229331 0 0.225281)
(0.197248 0 0.2417)
(0.231603 0 0.188935)
(0.200312 0 0.202423)
(0.233365 0 0.159618)
(0.202723 0 0.170442)
(0.234653 0 0.135434)
(0.204638 0 0.144739)
(0.235411 0 0.114345)
(0.206029 0 0.123112)
(0.235619 0 0.0950111)
(0.206861 0 0.103798)
(0.235312 0 0.0767842)
(0.207144 0 0.085793)
(0.234562 0 0.0595077)
(0.206921 0 0.0686708)
(0.233482 0 0.0428316)
(0.206541 0 0.0523641)
(0.205187 0 0.0351321)
(-0.195826 0 0.156127)
(-0.187553 0 0.148363)
(-0.200475 0 0.176519)
(-0.192384 0 0.166892)
(-0.203179 0 0.199369)
(-0.195635 0 0.188012)
(-0.202901 0 0.223356)
(-0.196526 0 0.210885)
(-0.198047 0 0.247062)
(-0.19381 0 0.233429)
(-0.187411 0 0.274724)
(-0.186312 0 0.254862)
(-0.171396 0 0.32332)
(-0.172031 0 0.285186)
(-0.146326 0 0.395362)
(-0.151673 0 0.347407)
(-0.0974243 0 0.373907)
(-0.133368 0 0.418294)
(-0.00904639 0 -0.0038633)
(-0.0428581 0 0.285317)
(0.131964 0 -0.848919)
(0.0320168 0 -0.36356)
(0.256714 0 -1.6276)
(0.180118 0 -1.42292)
(0.31802 0 -1.91944)
(0.365204 0 -1.8831)
(0.129684 0 -2.15611)
(0.257768 0 -1.87671)
(0.0532431 0 -2.41069)
(0.113214 0 -2.32091)
(0.0218102 0 -2.47602)
(0.0734494 0 -2.45174)
(0.0137166 0 -2.48288)
(0.0405083 0 -2.47688)
(0.0076378 0 -2.49589)
(0.0282248 0 -2.48155)
(-0.00447024 0 -2.5333)
(0.0217833 0 -2.50472)
(-0.0246135 0 -2.59182)
(0.00817965 0 -2.55171)
(-0.0455411 0 -2.64374)
(-0.0138198 0 -2.60881)
(-0.0627323 0 -2.67658)
(-0.0395683 0 -2.65669)
(-0.0692168 0 -2.67341)
(-0.0624468 0 -2.67874)
(-0.0648221 0 -2.63394)
(-0.07121 0 -2.66138)
(-0.0601379 0 -2.5771)
(-0.0679249 0 -2.60786)
(-0.0634218 0 -2.52292)
(-0.0690102 0 -2.54469)
(-0.0743811 0 -2.47253)
(-0.0797178 0 -2.49105)
(-0.0905912 0 -2.41025)
(-0.0922996 0 -2.43963)
(-0.0894393 0 -2.31349)
(-0.0951715 0 -2.39049)
(-0.0910175 0 -2.25729)
(-0.089324 0 -2.26146)
(-0.0585899 0 -2.14643)
(-0.0516762 0 -2.27638)
(-0.0399482 0 -1.77934)
(-0.0378906 0 -2.0464)
(-0.00526856 0 -1.24168)
(-0.0222153 0 -1.54986)
(0.0279791 0 -0.702779)
(0.00495291 0 -0.982415)
(0.0659805 0 -0.251154)
(0.0304177 0 -0.475772)
(0.101122 0 0.0643795)
(0.0626313 0 -0.0832961)
(0.128128 0 0.236346)
(0.0903506 0 0.160784)
(0.146233 0 0.296997)
(0.11065 0 0.272385)
(0.157336 0 0.291427)
(0.124044 0 0.294451)
(0.164029 0 0.25744)
(0.132503 0 0.27083)
(0.168375 0 0.218086)
(0.138064 0 0.232474)
(0.171562 0 0.183301)
(0.142096 0 0.195327)
(0.174083 0 0.155044)
(0.145274 0 0.164555)
(0.176061 0 0.131964)
(0.147835 0 0.139892)
(0.177498 0 0.112148)
(0.14982 0 0.119422)
(0.178389 0 0.0941904)
(0.151229 0 0.101397)
(0.178762 0 0.0773419)
(0.152075 0 0.084737)
(0.178665 0 0.0613089)
(0.152384 0 0.0689603)
(0.178168 0 0.0446595)
(0.152403 0 0.0539082)
(0.151607 0 0.0363418)
(-0.184149 0 0.159199)
(-0.176762 0 0.151519)
(-0.187548 0 0.178486)
(-0.180497 0 0.169159)
(-0.188957 0 0.199664)
(-0.182637 0 0.188952)
(-0.187428 0 0.221138)
(-0.182468 0 0.209866)
(-0.181578 0 0.241462)
(-0.178789 0 0.229529)
(-0.170412 0 0.265558)
(-0.170847 0 0.247418)
(-0.154581 0 0.309518)
(-0.157486 0 0.274632)
(-0.130777 0 0.370773)
(-0.137371 0 0.331538)
(-0.0840452 0 0.329794)
(-0.121706 0 0.38714)
(-0.00406946 0 -0.0744601)
(-0.0418965 0 0.231999)
(0.108579 0 -0.933935)
(0.0330112 0 -0.43866)
(0.223905 0 -1.69316)
(0.137277 0 -1.4998)
(0.316633 0 -1.87322)
(0.311 0 -1.94492)
(0.260012 0 -2.03543)
(0.358759 0 -1.83897)
(0.145968 0 -2.34153)
(0.213215 0 -2.24488)
(0.0860806 0 -2.45282)
(0.141088 0 -2.41181)
(0.055332 0 -2.47557)
(0.0875614 0 -2.45638)
(0.0439345 0 -2.49045)
(0.0644862 0 -2.47395)
(0.0355987 0 -2.52301)
(0.0604085 0 -2.49916)
(0.0165118 0 -2.57422)
(0.0512866 0 -2.53898)
(-0.010151 0 -2.62253)
(0.0284879 0 -2.58706)
(-0.0411109 0 -2.6589)
(-0.00485634 0 -2.6302)
(-0.0646373 0 -2.66603)
(-0.0429739 0 -2.65762)
(-0.0729283 0 -2.63405)
(-0.0680925 0 -2.65357)
(-0.0754878 0 -2.57407)
(-0.07579 0 -2.60533)
(-0.0847167 0 -2.51138)
(-0.083274 0 -2.53513)
(-0.0969718 0 -2.45566)
(-0.0968373 0 -2.47773)
(-0.103041 0 -2.39985)
(-0.100294 0 -2.43271)
(-0.104591 0 -2.31929)
(-0.0768343 0 -2.38864)
(-0.0435846 0 -2.27889)
(-0.027829 0 -2.33799)
(-0.0306756 0 -2.16788)
(0.0277754 0 -2.29337)
(-0.0240605 0 -1.80454)
(0.00348211 0 -2.05553)
(-0.00679193 0 -1.27728)
(-0.0203744 0 -1.57486)
(0.00678095 0 -0.74417)
(-0.0138785 0 -1.00303)
(0.0269689 0 -0.299114)
(-0.00373666 0 -0.507935)
(0.0504429 0 0.0185515)
(0.0161821 0 -0.122526)
(0.0716163 0 0.199261)
(0.0367344 0 0.123667)
(0.0877708 0 0.270265)
(0.0542031 0 0.24268)
(0.0990017 0 0.273254)
(0.0672854 0 0.272788)
(0.106599 0 0.24495)
(0.0765757 0 0.255458)
(0.111931 0 0.208854)
(0.083218 0 0.221158)
(0.115945 0 0.175892)
(0.0881942 0 0.186391)
(0.119126 0 0.14888)
(0.0921103 0 0.157125)
(0.121658 0 0.126952)
(0.0952525 0 0.133689)
(0.123589 0 0.108364)
(0.0977259 0 0.114459)
(0.124938 0 0.0917077)
(0.0995692 0 0.0977584)
(0.125733 0 0.0761822)
(0.100813 0 0.082489)
(0.126007 0 0.0614189)
(0.101493 0 0.0681453)
(0.125826 0 0.0453269)
(0.101768 0 0.0544727)
(0.101286 0 0.037011)
(-0.173128 0 0.161545)
(-0.166515 0 0.15404)
(-0.175555 0 0.179711)
(-0.169374 0 0.170776)
(-0.176045 0 0.199263)
(-0.170691 0 0.189278)
(-0.173771 0 0.218392)
(-0.169857 0 0.20835)
(-0.16762 0 0.235658)
(-0.165774 0 0.225428)
(-0.1569 0 0.256672)
(-0.158008 0 0.240271)
(-0.142479 0 0.296797)
(-0.146526 0 0.265018)
(-0.121879 0 0.348245)
(-0.128589 0 0.317805)
(-0.0809966 0 0.289777)
(-0.11676 0 0.359885)
(-0.0111409 0 -0.133321)
(-0.0506155 0 0.18543)
(0.0802222 0 -1.00699)
(0.0197194 0 -0.499568)
(0.190563 0 -1.76035)
(0.102579 0 -1.57336)
(0.30646 0 -1.89668)
(0.211897 0 -2.02219)
(0.375092 0 -1.98797)
(0.37296 0 -1.88472)
(0.209464 0 -2.27078)
(0.264341 0 -2.13446)
(0.137554 0 -2.41104)
(0.180453 0 -2.36387)
(0.0962717 0 -2.45754)
(0.131015 0 -2.42886)
(0.0831994 0 -2.48502)
(0.107865 0 -2.46523)
(0.0782045 0 -2.51573)
(0.102602 0 -2.49583)
(0.0610377 0 -2.55582)
(0.0948743 0 -2.52754)
(0.0312991 0 -2.59443)
(0.0723421 0 -2.5628)
(-0.00874003 0 -2.628)
(0.0359321 0 -2.59593)
(-0.0478944 0 -2.64393)
(-0.0113145 0 -2.62247)
(-0.0706313 0 -2.62354)
(-0.0494609 0 -2.63216)
(-0.0808834 0 -2.56312)
(-0.073686 0 -2.5952)
(-0.0950939 0 -2.49515)
(-0.0897883 0 -2.52041)
(-0.104999 0 -2.44636)
(-0.0999514 0 -2.46696)
(-0.0585252 0 -2.41206)
(-0.0916283 0 -2.48569)
(-0.0170102 0 -2.40065)
(-0.0676943 0 -2.43829)
(0.0585811 0 -2.3597)
(-0.00317088 0 -2.43282)
(0.0551342 0 -2.17995)
(0.0437817 0 -2.28883)
(0.00778104 0 -1.80376)
(0.012109 0 -1.99017)
(-0.0275092 0 -1.28481)
(-0.039323 0 -1.52376)
(-0.0243269 0 -0.76084)
(-0.0491781 0 -1.00786)
(-0.0145556 0 -0.3254)
(-0.0438533 0 -0.523503)
(0.00132125 0 -0.0133419)
(-0.0310046 0 -0.149059)
(0.0182878 0 0.168949)
(-0.014888 0 0.0939244)
(0.0331314 0 0.245318)
(0.00107423 0 0.215385)
(0.0447098 0 0.254193)
(0.0144079 0 0.250454)
(0.0532886 0 0.230602)
(0.0247431 0 0.238101)
(0.0596489 0 0.197713)
(0.0325582 0 0.20766)
(0.0645153 0 0.166838)
(0.0385319 0 0.175558)
(0.068354 0 0.141332)
(0.0432116 0 0.148161)
(0.0714002 0 0.120723)
(0.0469277 0 0.126228)
(0.0737578 0 0.103456)
(0.0498484 0 0.108402)
(0.07548 0 0.0881761)
(0.0520575 0 0.0931171)
(0.076603 0 0.0740995)
(0.0535997 0 0.0793147)
(0.0771511 0 0.0608448)
(0.0545271 0 0.0665205)
(0.0771948 0 0.0456937)
(0.0550522 0 0.0543373)
(0.055105 0 0.0372442)
(-0.162761 0 0.163325)
(-0.156812 0 0.156046)
(-0.164456 0 0.18041)
(-0.158985 0 0.171906)
(-0.164347 0 0.198446)
(-0.159717 0 0.189205)
(-0.161744 0 0.21548)
(-0.158528 0 0.206616)
(-0.155829 0 0.230153)
(-0.154478 0 0.221485)
(-0.146336 0 0.248743)
(-0.147366 0 0.233941)
(-0.134435 0 0.286102)
(-0.138364 0 0.257084)
(-0.118625 0 0.329531)
(-0.124174 0 0.307265)
(-0.0862443 0 0.255763)
(-0.117471 0 0.338297)
(-0.0281336 0 -0.18191)
(-0.0665349 0 0.14669)
(0.0488587 0 -1.06685)
(-0.00322434 0 -0.550896)
(0.133666 0 -1.82881)
(0.0701678 0 -1.6299)
(0.226316 0 -1.99404)
(0.102288 0 -2.08395)
(0.331339 0 -2.00806)
(0.273147 0 -1.95474)
(0.202347 0 -2.20328)
(0.258662 0 -2.04847)
(0.1737 0 -2.36786)
(0.226201 0 -2.34477)
(0.144672 0 -2.43169)
(0.172641 0 -2.40951)
(0.12777 0 -2.47361)
(0.151478 0 -2.45396)
(0.122403 0 -2.50682)
(0.142981 0 -2.49225)
(0.103953 0 -2.53643)
(0.132886 0 -2.51524)
(0.0741175 0 -2.56304)
(0.111786 0 -2.53845)
(0.0317998 0 -2.58866)
(0.0768442 0 -2.55972)
(-0.0156322 0 -2.60755)
(0.0327228 0 -2.57989)
(-0.0540488 0 -2.59756)
(-0.00761244 0 -2.59599)
(-0.0781449 0 -2.54414)
(-0.058136 0 -2.5714)
(-0.0946693 0 -2.48697)
(-0.101315 0 -2.50329)
(-0.0788003 0 -2.4743)
(-0.10654 0 -2.48421)
(-0.0969892 0 -2.48581)
(-0.0750597 0 -2.46495)
(-0.0603534 0 -2.48314)
(-0.0433646 0 -2.4821)
(-0.0102421 0 -2.38382)
(-0.0301904 0 -2.49568)
(0.000704651 0 -2.12637)
(-0.0137103 0 -2.30323)
(-0.0370077 0 -1.73201)
(-0.0269089 0 -1.93811)
(-0.0631461 0 -1.25226)
(-0.0755409 0 -1.48592)
(-0.0667305 0 -0.762606)
(-0.0908891 0 -1.00242)
(-0.0608466 0 -0.340675)
(-0.0877202 0 -0.532876)
(-0.0483216 0 -0.0375704)
(-0.0780587 0 -0.169991)
(-0.032897 0 0.142172)
(-0.0637448 0 0.0668841)
(-0.0180683 0 0.220649)
(-0.0481054 0 0.188116)
(-0.00560312 0 0.233599)
(-0.0340239 0 0.226409)
(0.00416439 0 0.214115)
(-0.022503 0 0.218337)
(0.011642 0 0.18452)
(-0.0135024 0 0.191788)
(0.0174074 0 0.156076)
(-0.00654393 0 0.162721)
(0.021922 0 0.132426)
(-0.00111625 0 0.137616)
(0.0254713 0 0.113402)
(0.00314871 0 0.117532)
(0.028211 0 0.0976382)
(0.00647395 0 0.101361)
(0.0302291 0 0.0838791)
(0.00898886 0 0.0876772)
(0.0315817 0 0.0713956)
(0.0107567 0 0.07549)
(0.0323364 0 0.0597123)
(0.011842 0 0.0642818)
(0.032744 0 0.0454932)
(0.0126513 0 0.053069)
(0.0136629 0 0.0355115)
(-0.153019 0 0.164671)
(-0.147631 0 0.15764)
(-0.154179 0 0.180752)
(-0.149275 0 0.172679)
(-0.153718 0 0.197432)
(-0.149605 0 0.188898)
(-0.151094 0 0.212679)
(-0.148277 0 0.204866)
(-0.145789 0 0.225329)
(-0.144551 0 0.217949)
(-0.138037 0 0.242335)
(-0.138401 0 0.228772)
(-0.129427 0 0.278235)
(-0.132115 0 0.251345)
(-0.119403 0 0.315916)
(-0.122529 0 0.300583)
(-0.0969818 0 0.229195)
(-0.121664 0 0.323349)
(-0.0511273 0 -0.222831)
(-0.0856237 0 0.11612)
(0.0170665 0 -1.11391)
(-0.0296777 0 -0.596359)
(0.0642156 0 -1.88131)
(0.0356636 0 -1.66133)
(0.119406 0 -2.06095)
(0.0154484 0 -2.12075)
(0.220338 0 -2.0383)
(0.154794 0 -2.02202)
(0.253242 0 -2.18642)
(0.211403 0 -2.0704)
(0.238816 0 -2.35167)
(0.226126 0 -2.33516)
(0.180388 0 -2.41727)
(0.199379 0 -2.37056)
(0.167798 0 -2.45874)
(0.184571 0 -2.44557)
(0.155924 0 -2.49081)
(0.171063 0 -2.48434)
(0.139842 0 -2.51461)
(0.157784 0 -2.50452)
(0.111878 0 -2.53232)
(0.140509 0 -2.51564)
(0.0742726 0 -2.54996)
(0.112763 0 -2.52753)
(0.0378177 0 -2.56493)
(0.0792818 0 -2.54717)
(-0.012217 0 -2.55797)
(0.0419802 0 -2.54887)
(-0.0818439 0 -2.52073)
(-0.0257798 0 -2.50262)
(-0.125055 0 -2.49658)
(-0.069178 0 -2.45851)
(-0.0855584 0 -2.50253)
(-0.0481876 0 -2.52714)
(-0.0410276 0 -2.51088)
(-0.030394 0 -2.51572)
(-0.00686359 0 -2.49785)
(-0.0129278 0 -2.52296)
(-0.0304187 0 -2.3838)
(-0.0455686 0 -2.46613)
(-0.0356777 0 -2.09021)
(-0.0707274 0 -2.29631)
(-0.071874 0 -1.6718)
(-0.0711602 0 -1.88815)
(-0.103324 0 -1.21909)
(-0.103879 0 -1.44038)
(-0.110751 0 -0.760311)
(-0.126796 0 -0.991138)
(-0.106065 0 -0.353452)
(-0.12881 0 -0.540341)
(-0.094663 0 -0.059922)
(-0.120847 0 -0.189046)
(-0.0796454 0 0.115605)
(-0.107255 0 0.0405581)
(-0.0643397 0 0.194637)
(-0.0914957 0 0.159972)
(-0.0508761 0 0.210805)
(-0.0766611 0 0.20044)
(-0.0399708 0 0.195248)
(-0.0641379 0 0.196273)
(-0.0314619 0 0.169191)
(-0.0541642 0 0.17373)
(-0.0248701 0 0.14358)
(-0.0463922 0 0.148046)
(-0.0197367 0 0.122179)
(-0.0403402 0 0.125629)
(-0.0157384 0 0.105056)
(-0.0356176 0 0.107738)
(-0.0126762 0 0.0910384)
(-0.0319628 0 0.0934924)
(-0.0104279 0 0.0789748)
(-0.029206 0 0.0816172)
(-0.00889113 0 0.0680932)
(-0.0272474 0 0.0711449)
(-0.00787491 0 0.0573603)
(-0.0259916 0 0.0612674)
(-0.00690028 0 0.0426908)
(-0.0248875 0 0.0500364)
(-0.0230432 0 0.0312829)
(-0.143857 0 0.165683)
(-0.138941 0 0.158904)
(-0.144628 0 0.180862)
(-0.140175 0 0.173192)
(-0.143987 0 0.196371)
(-0.140229 0 0.18847)
(-0.141529 0 0.210167)
(-0.138887 0 0.203228)
(-0.137028 0 0.221402)
(-0.13562 0 0.214949)
(-0.131212 0 0.237764)
(-0.130544 0 0.224896)
(-0.126158 0 0.273603)
(-0.126858 0 0.247975)
(-0.12207 0 0.307774)
(-0.12189 0 0.297858)
(-0.109207 0 0.209832)
(-0.126506 0 0.314774)
(-0.0733431 0 -0.257674)
(-0.103051 0 0.0922108)
(-0.0159487 0 -1.14633)
(-0.0530947 0 -0.634622)
(0.00187917 0 -1.90702)
(-0.00204387 0 -1.67322)
(0.0348715 0 -2.09746)
(-0.0487102 0 -2.14274)
(0.129663 0 -2.07004)
(0.0519196 0 -2.08522)
(0.188598 0 -2.23666)
(0.137662 0 -2.1097)
(0.189299 0 -2.38154)
(0.168255 0 -2.33562)
(0.206521 0 -2.40597)
(0.18713 0 -2.38204)
(0.195201 0 -2.45837)
(0.191022 0 -2.43802)
(0.173261 0 -2.4885)
(0.183022 0 -2.46971)
(0.157959 0 -2.504)
(0.169754 0 -2.49431)
(0.139758 0 -2.51271)
(0.155367 0 -2.50079)
(0.112604 0 -2.52401)
(0.137005 0 -2.50429)
(0.0822511 0 -2.5307)
(0.110681 0 -2.51992)
(0.0282359 0 -2.51274)
(0.0735155 0 -2.49801)
(-0.0156054 0 -2.48222)
(0.0188235 0 -2.45932)
(-0.00595727 0 -2.51945)
(-0.00628493 0 -2.46851)
(0.0154387 0 -2.53769)
(0.00297226 0 -2.55039)
(-0.0114377 0 -2.5063)
(-0.0219069 0 -2.48508)
(-0.0490374 0 -2.47763)
(-0.0417411 0 -2.47799)
(-0.0804522 0 -2.36392)
(-0.0814245 0 -2.42673)
(-0.109289 0 -2.07947)
(-0.117329 0 -2.25837)
(-0.100988 0 -1.64978)
(-0.117071 0 -1.89961)
(-0.12782 0 -1.19541)
(-0.129632 0 -1.40153)
(-0.145814 0 -0.75568)
(-0.157381 0 -0.963809)
(-0.144555 0 -0.365607)
(-0.163742 0 -0.542348)
(-0.134433 0 -0.0821628)
(-0.156863 0 -0.205962)
(-0.119656 0 0.0882563)
(-0.143671 0 0.0146536)
(-0.103984 0 0.167017)
(-0.127749 0 0.131153)
(-0.0898175 0 0.185968)
(-0.112413 0 0.173114)
(-0.0781107 0 0.174309)
(-0.0992624 0 0.172585)
(-0.0688599 0 0.152023)
(-0.0886782 0 0.154095)
(-0.0616596 0 0.129587)
(-0.0803872 0 0.132015)
(-0.0560626 0 0.110774)
(-0.0739319 0 0.112558)
(-0.0517243 0 0.0958372)
(-0.0689124 0 0.0971103)
(-0.0484153 0 0.0837841)
(-0.0650444 0 0.0849894)
(-0.04598 0 0.0735289)
(-0.0621297 0 0.0750527)
(-0.0442586 0 0.0640709)
(-0.0600203 0 0.0662774)
(-0.042945 0 0.0536491)
(-0.0585663 0 0.057371)
(-0.0415311 0 0.038124)
(-0.0572238 0 0.0456375)
(-0.0551514 0 0.026363)
(-0.13522 0 0.166439)
(-0.130704 0 0.159902)
(-0.135702 0 0.180824)
(-0.13161 0 0.173515)
(-0.134972 0 0.195346)
(-0.131461 0 0.187983)
(-0.132754 0 0.208015)
(-0.130147 0 0.201749)
(-0.12908 0 0.218415)
(-0.127336 0 0.212498)
(-0.125094 0 0.235032)
(-0.123253 0 0.222238)
(-0.123301 0 0.272072)
(-0.12174 0 0.24678)
(-0.124336 0 0.304503)
(-0.120646 0 0.298548)
(-0.118952 0 0.196533)
(-0.129234 0 0.311184)
(-0.0913465 0 -0.285937)
(-0.115349 0 0.0738081)
(-0.0433803 0 -1.16599)
(-0.0700433 0 -0.6666)
(-0.0418578 0 -1.91298)
(-0.0398384 0 -1.67423)
(-0.0373253 0 -2.12788)
(-0.0960358 0 -2.14576)
(0.0483796 0 -2.1198)
(-0.0261178 0 -2.14235)
(0.130157 0 -2.24351)
(0.0785927 0 -2.16421)
(0.152682 0 -2.36822)
(0.127453 0 -2.35064)
(0.180399 0 -2.41337)
(0.147492 0 -2.40051)
(0.18359 0 -2.45873)
(0.167008 0 -2.44015)
(0.17969 0 -2.48175)
(0.174164 0 -2.46711)
(0.164569 0 -2.49588)
(0.168104 0 -2.48423)
(0.151664 0 -2.50009)
(0.157166 0 -2.49026)
(0.133375 0 -2.50744)
(0.143264 0 -2.48864)
(0.0985729 0 -2.4989)
(0.119165 0 -2.48868)
(0.0657663 0 -2.45061)
(0.0828846 0 -2.46711)
(0.0278572 0 -2.4259)
(0.0478231 0 -2.42187)
(0.000846735 0 -2.48615)
(0.0240046 0 -2.44052)
(-0.0380382 0 -2.50702)
(-0.0120602 0 -2.50813)
(-0.0510836 0 -2.47066)
(-0.0543009 0 -2.47021)
(-0.0788735 0 -2.43547)
(-0.07204 0 -2.44476)
(-0.109438 0 -2.32626)
(-0.104006 0 -2.38838)
(-0.128689 0 -2.06461)
(-0.144979 0 -2.23304)
(-0.138883 0 -1.63256)
(-0.167416 0 -1.88554)
(-0.161418 0 -1.16453)
(-0.176686 0 -1.3689)
(-0.176509 0 -0.743122)
(-0.192806 0 -0.940889)
(-0.176735 0 -0.374537)
(-0.195217 0 -0.541988)
(-0.16692 0 -0.103587)
(-0.186936 0 -0.222364)
(-0.152108 0 0.0606383)
(-0.172884 0 -0.0113133)
(-0.136211 0 0.138511)
(-0.156452 0 0.101921)
(-0.121697 0 0.159924)
(-0.140789 0 0.145119)
(-0.109597 0 0.15209)
(-0.127384 0 0.148103)
(-0.099974 0 0.133681)
(-0.116588 0 0.133671)
(-0.0924628 0 0.114612)
(-0.108129 0 0.115293)
(-0.0866282 0 0.0985927)
(-0.101554 0 0.0989321)
(-0.0821167 0 0.0860206)
(-0.0964567 0 0.0860582)
(-0.0786797 0 0.0760522)
(-0.0925401 0 0.0761572)
(-0.0761333 0 0.0676098)
(-0.0895888 0 0.0681884)
(-0.0742679 0 0.0593736)
(-0.0874124 0 0.0610028)
(-0.0727375 0 0.049081)
(-0.0858135 0 0.0528319)
(-0.0711756 0 0.0334061)
(-0.0843622 0 0.0407786)
(-0.0824341 0 0.0221542)
(-0.12705 0 0.166993)
(-0.122882 0 0.160679)
(-0.127302 0 0.180684)
(-0.12351 0 0.173682)
(-0.12651 0 0.194386)
(-0.123189 0 0.187455)
(-0.124507 0 0.206213)
(-0.121879 0 0.200414)
(-0.121528 0 0.216264)
(-0.119412 0 0.210513)
(-0.11901 0 0.233869)
(-0.116078 0 0.220559)
(-0.119691 0 0.27304)
(-0.116069 0 0.247235)
(-0.124253 0 0.304807)
(-0.117608 0 0.301589)
(-0.123505 0 0.187762)
(-0.128035 0 0.310686)
(-0.102166 0 -0.307909)
(-0.120618 0 0.0595827)
(-0.0668023 0 -1.17652)
(-0.0804656 0 -0.690176)
(-0.0830834 0 -1.90901)
(-0.0709899 0 -1.66338)
(-0.0876401 0 -2.15848)
(-0.124378 0 -2.14272)
(-0.00468622 0 -2.18347)
(-0.0759075 0 -2.19766)
(0.0889537 0 -2.27476)
(0.0338562 0 -2.22664)
(0.114135 0 -2.37961)
(0.0914678 0 -2.36743)
(0.141282 0 -2.42658)
(0.111527 0 -2.41861)
(0.158071 0 -2.45589)
(0.137542 0 -2.45134)
(0.162349 0 -2.47214)
(0.153845 0 -2.46996)
(0.158077 0 -2.48046)
(0.157017 0 -2.48139)
(0.147854 0 -2.4772)
(0.150284 0 -2.48192)
(0.129463 0 -2.47057)
(0.136596 0 -2.4729)
(0.0988694 0 -2.45377)
(0.113157 0 -2.46121)
(0.065878 0 -2.42072)
(0.0800269 0 -2.43605)
(0.0426986 0 -2.41308)
(0.053263 0 -2.39898)
(0.0127482 0 -2.45297)
(0.0352677 0 -2.40949)
(-0.0400199 0 -2.46666)
(-0.00649108 0 -2.45078)
(-0.0702914 0 -2.43971)
(-0.0541528 0 -2.4357)
(-0.100809 0 -2.39744)
(-0.0828308 0 -2.40826)
(-0.13306 0 -2.28853)
(-0.120117 0 -2.34793)
(-0.173834 0 -2.03262)
(-0.165425 0 -2.17938)
(-0.210908 0 -1.60564)
(-0.207152 0 -1.83436)
(-0.209714 0 -1.14226)
(-0.221329 0 -1.37063)
(-0.211502 0 -0.734145)
(-0.223321 0 -0.938174)
(-0.20593 0 -0.384103)
(-0.219962 0 -0.550864)
(-0.193285 0 -0.125765)
(-0.209108 0 -0.243496)
(-0.177248 0 0.0324867)
(-0.193628 0 -0.0394268)
(-0.160898 0 0.109585)
(-0.176797 0 0.0718549)
(-0.146253 0 0.133474)
(-0.161232 0 0.11687)
(-0.134133 0 0.129464)
(-0.148097 0 0.123579)
(-0.124522 0 0.114963)
(-0.137596 0 0.113273)
(-0.117038 0 0.0993275)
(-0.129408 0 0.0986316)
(-0.111242 0 0.0861786)
(-0.123072 0 0.0853964)
(-0.106774 0 0.0760299)
(-0.11818 0 0.0751138)
(-0.103375 0 0.0681586)
(-0.114433 0 0.0674222)
(-0.100838 0 0.0614498)
(-0.111605 0 0.06135)
(-0.0989218 0 0.0542914)
(-0.109477 0 0.0555854)
(-0.0973008 0 0.0442552)
(-0.107837 0 0.0480243)
(-0.0957756 0 0.0290858)
(-0.1064 0 0.0360337)
(-0.104667 0 0.0187088)
(-0.119297 0 0.167378)
(-0.11544 0 0.161265)
(-0.119343 0 0.180456)
(-0.115818 0 0.173712)
(-0.118464 0 0.193471)
(-0.115325 0 0.186871)
(-0.116579 0 0.204677)
(-0.113946 0 0.199156)
(-0.11405 0 0.214732)
(-0.111645 0 0.208828)
(-0.112468 0 0.233789)
(-0.108715 0 0.219504)
(-0.114539 0 0.275556)
(-0.109395 0 0.248615)
(-0.120696 0 0.307123)
(-0.11208 0 0.305693)
(-0.122281 0 0.181889)
(-0.122081 0 0.311743)
(-0.105684 0 -0.323868)
(-0.117976 0 0.0485183)
(-0.083422 0 -1.17909)
(-0.0838264 0 -0.705018)
(-0.107531 0 -1.9)
(-0.0892751 0 -1.64731)
(-0.114662 0 -2.18424)
(-0.133776 0 -2.13797)
(-0.0443215 0 -2.24354)
(-0.100646 0 -2.24455)
(0.0475186 0 -2.31887)
(-0.00317357 0 -2.28787)
(0.0818388 0 -2.4027)
(0.0571942 0 -2.39031)
(0.112736 0 -2.4432)
(0.0853098 0 -2.43921)
(0.135232 0 -2.46529)
(0.114731 0 -2.46634)
(0.147961 0 -2.4769)
(0.134772 0 -2.47845)
(0.147954 0 -2.47887)
(0.141956 0 -2.48138)
(0.13809 0 -2.47053)
(0.136647 0 -2.47387)
(0.120105 0 -2.45532)
(0.123164 0 -2.45751)
(0.0926552 0 -2.43327)
(0.101942 0 -2.43657)
(0.0641264 0 -2.40499)
(0.0743827 0 -2.40918)
(0.045774 0 -2.39373)
(0.0524786 0 -2.38085)
(0.0185066 0 -2.41115)
(0.0354212 0 -2.38124)
(-0.0277846 0 -2.41953)
(-0.000711038 0 -2.40047)
(-0.0653995 0 -2.40001)
(-0.043861 0 -2.39281)
(-0.103178 0 -2.35181)
(-0.0780129 0 -2.36308)
(-0.151776 0 -2.23564)
(-0.121098 0 -2.28696)
(-0.190342 0 -1.98098)
(-0.171985 0 -2.12863)
(-0.225067 0 -1.58245)
(-0.21831 0 -1.78643)
(-0.233538 0 -1.14318)
(-0.236095 0 -1.35836)
(-0.232014 0 -0.740253)
(-0.23578 0 -0.940489)
(-0.22354 0 -0.400683)
(-0.230383 0 -0.564365)
(-0.209419 0 -0.15119)
(-0.218665 0 -0.267095)
(-0.192964 0 0.00319058)
(-0.203237 0 -0.0682736)
(-0.176896 0 0.0806044)
(-0.187292 0 0.0423074)
(-0.162828 0 0.107424)
(-0.172911 0 0.0897347)
(-0.151332 0 0.107367)
(-0.160962 0 0.10032)
(-0.142289 0 0.0967732)