/*--------------------------------*- C++ -*----------------------------------*\
  =========                 |
  \\      /  F ield         | OpenFOAM: The Open Source CFD Toolbox
   \\    /   O peration     | Website:  https://openfoam.org
    \\  /    A nd           | Version:  9
     \\/     M anipulation  |
\*---------------------------------------------------------------------------*/
FoamFile
{
    format      ascii;
    class       volScalarField;
    location    "0.1";
    object      alpha.water;
}
// * * * * * * * * * * * * * * * * * * * * * * * * * * * * * * * * * * * * * //

dimensions      [0 0 0 0 0 0 0];

internalField   nonuniform List<scalar> 
20000
(
5.35251e-319
5.11733e-319
4.89204e-319
4.67613e-319
4.46922e-319
4.271e-319
4.08118e-319
3.89936e-319
3.72535e-319
3.55885e-319
3.39967e-319
3.24739e-319
3.10184e-319
2.96281e-319
2.83001e-319
2.70333e-319
2.58258e-319
2.46756e-319
2.35818e-319
2.25442e-319
2.1559e-319
2.06183e-319
1.97112e-319
1.88259e-319
1.79583e-319
1.71164e-319
1.6318e-319
1.5565e-319
1.48575e-319
1.41935e-319
1.16599e-319
1.16758e-319
1.16837e-319
1.16837e-319
1.16817e-319
1.16837e-319
1.16896e-319
1.16975e-319
1.17094e-319
1.17212e-319
1.1735e-319
1.17489e-319
1.17637e-319
1.17785e-319
1.17943e-319
1.18121e-319
1.18299e-319
1.18516e-319
1.18754e-319
1.19011e-319
1.19228e-319
1.19406e-319
1.19485e-319
1.19465e-319
1.19386e-319
1.19248e-319
1.1907e-319
1.18872e-319
1.18665e-319
1.18477e-319
1.18339e-319
1.18279e-319
1.18378e-319
1.18773e-319
1.19505e-319
1.20157e-319
1.19969e-319
1.1903e-319
1.18141e-319
1.17607e-319
1.43062e-319
1.49761e-319
1.56816e-319
1.64247e-319
1.72014e-319
1.80166e-319
1.88694e-319
1.97597e-319
2.06915e-319
2.16648e-319
2.26826e-319
2.37458e-319
2.48574e-319
2.60195e-319
2.72349e-319
2.85066e-319
2.98356e-319
3.12249e-319
3.26775e-319
3.41953e-319
3.57822e-319
3.74383e-319
3.91695e-319
4.09758e-319
4.28592e-319
4.48256e-319
4.6875e-319
4.90113e-319
5.12366e-319
5.35547e-319
5.35251e-319
5.11733e-319
4.89224e-319
4.67623e-319
4.46932e-319
4.2711e-319
4.08118e-319
3.89936e-319
3.72545e-319
3.55895e-319
3.39967e-319
3.24739e-319
3.10174e-319
2.96271e-319
2.83001e-319
2.70323e-319
2.58238e-319
2.46746e-319
2.35808e-319
2.25432e-319
2.1559e-319
2.06183e-319
1.97112e-319
1.88259e-319
1.79573e-319
1.71164e-319
1.6318e-319
1.5565e-319
1.48575e-319
1.41925e-319
1.16599e-319
1.16758e-319
1.16837e-319
1.16837e-319
1.16817e-319
1.16837e-319
1.16896e-319
1.16975e-319
1.17094e-319
1.17212e-319
1.1735e-319
1.17489e-319
1.17637e-319
1.17785e-319
1.17943e-319
1.18121e-319
1.18309e-319
1.18516e-319
1.18763e-319
1.19011e-319
1.19238e-319
1.19406e-319
1.19485e-319
1.19465e-319
1.19386e-319
1.19248e-319
1.1907e-319
1.18872e-319
1.18665e-319
1.18477e-319
1.18339e-319
1.18279e-319
1.18378e-319
1.18783e-319
1.19514e-319
1.20137e-319
1.19949e-319
1.1903e-319
1.18141e-319
1.17607e-319
1.43062e-319
1.49761e-319
1.56826e-319
1.64247e-319
1.72024e-319
1.80166e-319
1.88694e-319
1.97606e-319
2.06915e-319
2.16658e-319
2.26826e-319
2.37468e-319
2.48574e-319
2.60205e-319
2.72369e-319
2.85076e-319
2.98366e-319
3.12259e-319
3.26795e-319
3.41972e-319
3.57832e-319
3.74403e-319
3.91705e-319
4.09768e-319
4.28612e-319
4.48276e-319
4.68769e-319
4.90133e-319
5.12386e-319
5.35567e-319
5.35261e-319
5.11733e-319
4.89224e-319
4.67623e-319
4.46932e-319
4.2711e-319
4.08118e-319
3.89936e-319
3.72545e-319
3.55885e-319
3.39957e-319
3.2473e-319
3.10174e-319
2.96262e-319
2.82981e-319
2.70313e-319
2.58238e-319
2.46736e-319
2.35808e-319
2.25432e-319
2.1559e-319
2.06183e-319
1.97112e-319
1.88249e-319
1.79563e-319
1.71164e-319
1.6317e-319
1.5565e-319
1.48575e-319
1.41925e-319
1.16599e-319
1.16758e-319
1.16837e-319
1.16837e-319
1.16817e-319
1.16837e-319
1.16896e-319
1.16975e-319
1.17094e-319
1.17212e-319
1.1735e-319
1.17489e-319
1.17637e-319
1.17785e-319
1.17943e-319
1.18121e-319
1.18309e-319
1.18526e-319
1.18763e-319
1.19011e-319
1.19238e-319
1.19406e-319
1.19475e-319
1.19465e-319
1.19386e-319
1.19248e-319
1.1907e-319
1.18872e-319
1.18655e-319
1.18477e-319
1.18339e-319
1.18279e-319
1.18398e-319
1.18793e-319
1.19514e-319
1.20117e-319
1.1992e-319
1.1903e-319
1.18141e-319
1.17607e-319
1.43062e-319
1.49761e-319
1.56826e-319
1.64247e-319
1.72024e-319
1.80176e-319
1.88694e-319
1.97606e-319
2.06925e-319
2.16658e-319
2.26835e-319
2.37468e-319
2.48594e-319
2.60214e-319
2.72369e-319
2.85086e-319
2.98376e-319
3.12269e-319
3.26805e-319
3.41992e-319
3.57852e-319
3.74423e-319
3.91725e-319
4.09788e-319
4.28641e-319
4.48295e-319
4.68809e-319
4.90172e-319
5.12425e-319
5.35607e-319
5.35251e-319
5.11733e-319
4.89224e-319
4.67623e-319
4.46932e-319
4.2711e-319
4.08118e-319
3.89936e-319
3.72535e-319
3.55885e-319
3.39957e-319
3.2472e-319
3.10165e-319
2.96262e-319
2.82981e-319
2.70303e-319
2.58218e-319
2.46727e-319
2.35798e-319
2.25432e-319
2.15581e-319
2.06183e-319
1.97112e-319
1.88239e-319
1.79563e-319
1.71164e-319
1.6317e-319
1.55641e-319
1.48575e-319
1.41925e-319
1.16599e-319
1.16758e-319
1.16837e-319
1.16837e-319
1.16817e-319
1.16837e-319
1.16896e-319
1.16975e-319
1.17094e-319
1.17212e-319
1.1735e-319
1.17489e-319
1.17647e-319
1.17785e-319
1.17943e-319
1.18121e-319
1.18319e-319
1.18536e-319
1.18773e-319
1.19011e-319
1.19238e-319
1.19396e-319
1.19465e-319
1.19465e-319
1.19376e-319
1.19238e-319
1.1907e-319
1.18862e-319
1.18665e-319
1.18477e-319
1.18339e-319
1.18289e-319
1.18408e-319
1.18813e-319
1.19505e-319
1.20097e-319
1.199e-319
1.1902e-319
1.18161e-319
1.17627e-319
1.43062e-319
1.49761e-319
1.56836e-319
1.64247e-319
1.72034e-319
1.80176e-319
1.88694e-319
1.97606e-319
2.06934e-319
2.16668e-319
2.26845e-319
2.37487e-319
2.48594e-319
2.60234e-319
2.72388e-319
2.85096e-319
2.98396e-319
3.12289e-319
3.26824e-319
3.42012e-319
3.57881e-319
3.74442e-319
3.91755e-319
4.09818e-319
4.28671e-319
4.48335e-319
4.68849e-319
4.90212e-319
5.12484e-319
5.35666e-319
5.35241e-319
5.11733e-319
4.89204e-319
4.67623e-319
4.46922e-319
4.2709e-319
4.08108e-319
3.89926e-319
3.72525e-319
3.55866e-319
3.39937e-319
3.2471e-319
3.10155e-319
2.96242e-319
2.82961e-319
2.70293e-319
2.58218e-319
2.46717e-319
2.35788e-319
2.25422e-319
2.15571e-319
2.06174e-319
1.97103e-319
1.88239e-319
1.79563e-319
1.71164e-319
1.6316e-319
1.55631e-319
1.48575e-319
1.41915e-319
1.16599e-319
1.16758e-319
1.16837e-319
1.16837e-319
1.16817e-319
1.16837e-319
1.16886e-319
1.16975e-319
1.17094e-319
1.17212e-319
1.1735e-319
1.17489e-319
1.17647e-319
1.17785e-319
1.17953e-319
1.18121e-319
1.18319e-319
1.18536e-319
1.18773e-319
1.19011e-319
1.19228e-319
1.19396e-319
1.19465e-319
1.19455e-319
1.19366e-319
1.19238e-319
1.1906e-319
1.18862e-319
1.18665e-319
1.18487e-319
1.18348e-319
1.18299e-319
1.18418e-319
1.18823e-319
1.19505e-319
1.20068e-319
1.1988e-319
1.1902e-319
1.18161e-319
1.17627e-319
1.43081e-319
1.49771e-319
1.56836e-319
1.64257e-319
1.72034e-319
1.80176e-319
1.88713e-319
1.97626e-319
2.06934e-319
2.16677e-319
2.26855e-319
2.37487e-319
2.48614e-319
2.60244e-319
2.72408e-319
2.85115e-319
2.98416e-319
3.12309e-319
3.26854e-319
3.42032e-319
3.57901e-319
3.74482e-319
3.91794e-319
4.09857e-319
4.28721e-319
4.48394e-319
4.68898e-319
4.90271e-319
5.12544e-319
5.35725e-319
5.35211e-319
5.11704e-319
4.89184e-319
4.67603e-319
4.46912e-319
4.2708e-319
4.08088e-319
3.89907e-319
3.72506e-319
3.55846e-319
3.39917e-319
3.2469e-319
3.10135e-319
2.96222e-319
2.82942e-319
2.70274e-319
2.58199e-319
2.46697e-319
2.35778e-319
2.25413e-319
2.15571e-319
2.06164e-319
1.97093e-319
1.88239e-319
1.79563e-319
1.71164e-319
1.6316e-319
1.55631e-319
1.48566e-319
1.41915e-319
1.1659e-319
1.16758e-319
1.16827e-319
1.16827e-319
1.16817e-319
1.16837e-319
1.16886e-319
1.16975e-319
1.17094e-319
1.17212e-319
1.1735e-319
1.17489e-319
1.17647e-319
1.17795e-319
1.17953e-319
1.18121e-319
1.18319e-319
1.18536e-319
1.18773e-319
1.19011e-319
1.19228e-319
1.19386e-319
1.19465e-319
1.19445e-319
1.19366e-319
1.19228e-319
1.1906e-319
1.18862e-319
1.18665e-319
1.18497e-319
1.18358e-319
1.18309e-319
1.18437e-319
1.18833e-319
1.19505e-319
1.20038e-319
1.1986e-319
1.1902e-319
1.18181e-319
1.17637e-319
1.43081e-319
1.49781e-319
1.56836e-319
1.64267e-319
1.72044e-319
1.80196e-319
1.88713e-319
1.97626e-319
2.06954e-319
2.16697e-319
2.26875e-319
2.37507e-319
2.48634e-319
2.60264e-319
2.72428e-319
2.85135e-319
2.98435e-319
3.12348e-319
3.26874e-319
3.42071e-319
3.57941e-319
3.74522e-319
3.91834e-319
4.09916e-319
4.2877e-319
4.48454e-319
4.68967e-319
4.9035e-319
5.12623e-319
5.35814e-319
5.35182e-319
5.11674e-319
4.89165e-319
4.67574e-319
4.46882e-319
4.27051e-319
4.08059e-319
3.89877e-319
3.72486e-319
3.55826e-319
3.39897e-319
3.2466e-319
3.10115e-319
2.96202e-319
2.82922e-319
2.70254e-319
2.58179e-319
2.46687e-319
2.35768e-319
2.25413e-319
2.15571e-319
2.06164e-319
1.97093e-319
1.88229e-319
1.79553e-319
1.71154e-319
1.6316e-319
1.55631e-319
1.48566e-319
1.41915e-319
1.1659e-319
1.16758e-319
1.16827e-319
1.16827e-319
1.16817e-319
1.16827e-319
1.16886e-319
1.16975e-319
1.17094e-319
1.17212e-319
1.1735e-319
1.17489e-319
1.17647e-319
1.17795e-319
1.17953e-319
1.18131e-319
1.18319e-319
1.18536e-319
1.18773e-319
1.19011e-319
1.19228e-319
1.19386e-319
1.19455e-319
1.19445e-319
1.19366e-319
1.19228e-319
1.1906e-319
1.18872e-319
1.18675e-319
1.18497e-319
1.18358e-319
1.18319e-319
1.18437e-319
1.18833e-319
1.19495e-319
1.20018e-319
1.19831e-319
1.1902e-319
1.18181e-319
1.17647e-319
1.43101e-319
1.49781e-319
1.56856e-319
1.64267e-319
1.72053e-319
1.80196e-319
1.88733e-319
1.97646e-319
2.06964e-319
2.16707e-319
2.26885e-319
2.37527e-319
2.48653e-319
2.60294e-319
2.72448e-319
2.85175e-319
2.98475e-319
3.12378e-319
3.26913e-319
3.42111e-319
3.5799e-319
3.74571e-319
3.91893e-319
4.09976e-319
4.28839e-319
4.48523e-319
4.69046e-319
4.90429e-319
5.12712e-319
5.35923e-319
5.35132e-319
5.11635e-319
4.89125e-319
4.67544e-319
4.46853e-319
4.27031e-319
4.08039e-319
3.89857e-319
3.72446e-319
3.55806e-319
3.39878e-319
3.24641e-319
3.10085e-319
2.96182e-319
2.82902e-319
2.70234e-319
2.58159e-319
2.46677e-319
2.35758e-319
2.25393e-319
2.15551e-319
2.06164e-319
1.97083e-319
1.88219e-319
1.79543e-319
1.71144e-319
1.6316e-319
1.55631e-319
1.48556e-319
1.41915e-319
1.1659e-319
1.16748e-319
1.16817e-319
1.16827e-319
1.16817e-319
1.16827e-319
1.16876e-319
1.16975e-319
1.17094e-319
1.17212e-319
1.1735e-319
1.17489e-319
1.17647e-319
1.17795e-319
1.17963e-319
1.18131e-319
1.18319e-319
1.18536e-319
1.18773e-319
1.19011e-319
1.19228e-319
1.19376e-319
1.19445e-319
1.19435e-319
1.19356e-319
1.19228e-319
1.1906e-319
1.18872e-319
1.18675e-319
1.18497e-319
1.18378e-319
1.18329e-319
1.18457e-319
1.18852e-319
1.19485e-319
1.19989e-319
1.19811e-319
1.1902e-319
1.182e-319
1.17667e-319
1.43111e-319
1.49801e-319
1.56856e-319
1.64287e-319
1.72063e-319
1.80215e-319
1.88743e-319
1.97666e-319
2.06984e-319
2.16727e-319
2.26914e-319
2.37547e-319
2.48673e-319
2.60313e-319
2.72487e-319
2.85204e-319
2.98514e-319
3.12417e-319
3.26963e-319
3.4216e-319
3.58039e-319
3.7463e-319
3.91952e-319
4.10035e-319
4.28918e-319
4.48602e-319
4.69125e-319
4.90528e-319
5.1282e-319
5.36041e-319
5.35083e-319
5.11585e-319
4.89085e-319
4.67495e-319
4.46813e-319
4.26991e-319
4.07999e-319
3.89818e-319
3.72427e-319
3.55767e-319
3.39838e-319
3.24611e-319
3.10056e-319
2.96153e-319
2.82882e-319
2.70214e-319
2.58139e-319
2.46657e-319
2.35748e-319
2.25393e-319
2.15551e-319
2.06144e-319
1.97073e-319
1.88219e-319
1.79543e-319
1.71144e-319
1.6314e-319
1.55611e-319
1.48556e-319
1.41906e-319
1.1658e-319
1.16738e-319
1.16817e-319
1.16817e-319
1.16807e-319
1.16817e-319
1.16876e-319
1.16975e-319
1.17094e-319
1.17212e-319
1.1735e-319
1.17489e-319
1.17647e-319
1.17795e-319
1.17963e-319
1.18131e-319
1.18319e-319
1.18536e-319
1.18773e-319
1.19011e-319
1.19228e-319
1.19366e-319
1.19445e-319
1.19426e-319
1.19346e-319
1.19228e-319
1.1906e-319
1.18872e-319
1.18675e-319
1.18507e-319
1.18378e-319
1.18339e-319
1.18467e-319
1.18852e-319
1.19485e-319
1.19959e-319
1.19791e-319
1.1902e-319
1.1822e-319
1.17677e-319
1.43121e-319
1.4982e-319
1.56876e-319
1.64297e-319
1.72073e-319
1.80235e-319
1.88753e-319
1.97676e-319
2.07004e-319
2.16747e-319
2.26934e-319
2.37576e-319
2.48713e-319
2.60353e-319
2.72517e-319
2.85244e-319
2.98554e-319
3.12467e-319
3.27012e-319
3.4221e-319
3.58099e-319
3.74699e-319
3.92031e-319
4.10114e-319
4.29007e-319
4.48691e-319
4.69234e-319
4.90647e-319
5.12939e-319
5.3617e-319
5.35014e-319
5.11526e-319
4.89026e-319
4.67445e-319
4.46764e-319
4.26952e-319
4.0796e-319
3.89778e-319
3.72387e-319
3.55737e-319
3.39808e-319
3.24581e-319
3.10026e-319
2.96123e-319
2.82843e-319
2.70185e-319
2.5812e-319
2.46638e-319
2.35729e-319
2.25373e-319
2.15531e-319
2.06144e-319
1.97063e-319
1.88199e-319
1.79534e-319
1.71144e-319
1.6314e-319
1.55611e-319
1.48546e-319
1.41896e-319
1.1658e-319
1.16738e-319
1.16817e-319
1.16817e-319
1.16807e-319
1.16817e-319
1.16876e-319
1.16975e-319
1.17084e-319
1.17212e-319
1.1735e-319
1.17489e-319
1.17647e-319
1.17795e-319
1.17963e-319
1.18131e-319
1.18329e-319
1.18536e-319
1.18773e-319
1.19011e-319
1.19218e-319
1.19366e-319
1.19435e-319
1.19426e-319
1.19346e-319
1.19228e-319
1.1906e-319
1.18872e-319
1.18684e-319
1.18516e-319
1.18388e-319
1.18358e-319
1.18477e-319
1.18872e-319
1.19475e-319
1.19939e-319
1.19771e-319
1.1903e-319
1.1823e-319
1.17686e-319
1.43141e-319
1.4983e-319
1.56895e-319
1.64306e-319
1.72093e-319
1.80245e-319
1.88773e-319
1.97705e-319
2.07023e-319
2.16776e-319
2.26954e-319
2.37606e-319
2.48742e-319
2.60382e-319
2.72556e-319
2.85283e-319
2.98594e-319
3.12516e-319
3.27071e-319
3.42269e-319
3.58168e-319
3.74778e-319
3.9211e-319
4.10213e-319
4.29106e-319
4.48809e-319
4.69352e-319
4.90765e-319
5.13077e-319
5.36318e-319
5.34955e-319
5.11457e-319
4.88967e-319
4.67396e-319
4.46714e-319
4.26892e-319
4.0792e-319
3.89739e-319
3.72348e-319
3.55698e-319
3.39779e-319
3.24542e-319
3.09997e-319
2.96084e-319
2.82823e-319
2.70155e-319
2.581e-319
2.46618e-319
2.35709e-319
2.25353e-319
2.15531e-319
2.06124e-319
1.97053e-319
1.88199e-319
1.79524e-319
1.71125e-319
1.6314e-319
1.55601e-319
1.48536e-319
1.41896e-319
1.1658e-319
1.16738e-319
1.16817e-319
1.16817e-319
1.16797e-319
1.16817e-319
1.16876e-319
1.16975e-319
1.17084e-319
1.17212e-319
1.1735e-319
1.17489e-319
1.17647e-319
1.17795e-319
1.17963e-319
1.18141e-319
1.18329e-319
1.18536e-319
1.18773e-319
1.19011e-319
1.19208e-319
1.19356e-319
1.19426e-319
1.19426e-319
1.19346e-319
1.19218e-319
1.1906e-319
1.18872e-319
1.18694e-319
1.18516e-319
1.18398e-319
1.18358e-319
1.18497e-319
1.18872e-319
1.19465e-319
1.1992e-319
1.19752e-319
1.1903e-319
1.1824e-319
1.17706e-319
1.4316e-319
1.4984e-319
1.56915e-319
1.64326e-319
1.72113e-319
1.80265e-319
1.88792e-319
1.97725e-319
2.07053e-319
2.16796e-319
2.26994e-319
2.37646e-319
2.48772e-319
2.60422e-319
2.72606e-319
2.85333e-319
2.98653e-319
3.12576e-319
3.27131e-319
3.42348e-319
3.58247e-319
3.74857e-319
3.92199e-319
4.10312e-319
4.29205e-319
4.48928e-319
4.69481e-319
4.90904e-319
5.13235e-319
5.36486e-319
5.34875e-319
5.11397e-319
4.88908e-319
4.67327e-319
4.46655e-319
4.26853e-319
4.07861e-319
3.89699e-319
3.72298e-319
3.55648e-319
3.39739e-319
3.24502e-319
3.09957e-319
2.96064e-319
2.82783e-319
2.70135e-319
2.5807e-319
2.46598e-319
2.35689e-319
2.25343e-319
2.15511e-319
2.06124e-319
1.97043e-319
1.8818e-319
1.79514e-319
1.71125e-319
1.63121e-319
1.55591e-319
1.48536e-319
1.41886e-319
1.1658e-319
1.16738e-319
1.16817e-319
1.16817e-319
1.16797e-319
1.16817e-319
1.16876e-319
1.16965e-319
1.17084e-319
1.17212e-319
1.1735e-319
1.17489e-319
1.17647e-319
1.17795e-319
1.17963e-319
1.18141e-319
1.18329e-319
1.18536e-319
1.18773e-319
1.19001e-319
1.19208e-319
1.19346e-319
1.19426e-319
1.19406e-319
1.19346e-319
1.19218e-319
1.1906e-319
1.18872e-319
1.18694e-319
1.18536e-319
1.18408e-319
1.18378e-319
1.18507e-319
1.18882e-319
1.19465e-319
1.199e-319
1.19742e-319
1.1903e-319
1.1826e-319
1.17726e-319
1.4318e-319
1.4986e-319
1.56925e-319
1.64346e-319
1.72132e-319
1.80294e-319
1.88822e-319
1.97745e-319
2.07073e-319
2.16836e-319
2.27023e-319
2.37685e-319
2.48811e-319
2.60471e-319
2.72645e-319
2.85392e-319
2.98712e-319
3.12645e-319
3.272e-319
3.42427e-319
3.58336e-319
3.74946e-319
3.92308e-319
4.1042e-319
4.29323e-319
4.49056e-319
4.69619e-319
4.91062e-319
5.13403e-319
5.36674e-319
5.34787e-319
5.11318e-319
4.88829e-319
4.67268e-319
4.46596e-319
4.26794e-319
4.07812e-319
3.8964e-319
3.72249e-319
3.55609e-319
3.3969e-319
3.24463e-319
3.09917e-319
2.96024e-319
2.82754e-319
2.70096e-319
2.58041e-319
2.46568e-319
2.35669e-319
2.25333e-319
2.15502e-319
2.06104e-319
1.97033e-319
1.8817e-319
1.79504e-319
1.71115e-319
1.63121e-319
1.55591e-319
1.48526e-319
1.41876e-319
1.1657e-319
1.16728e-319
1.16807e-319
1.16807e-319
1.16797e-319
1.16817e-319
1.16876e-319
1.16965e-319
1.17074e-319
1.17212e-319
1.1735e-319
1.17489e-319
1.17647e-319
1.17795e-319
1.17963e-319
1.18141e-319
1.18329e-319
1.18536e-319
1.18773e-319
1.19001e-319
1.19208e-319
1.19346e-319
1.19416e-319
1.19406e-319
1.19337e-319
1.19218e-319
1.1906e-319
1.18882e-319
1.18694e-319
1.18536e-319
1.18418e-319
1.18388e-319
1.18516e-319
1.18892e-319
1.19465e-319
1.1988e-319
1.19722e-319
1.1903e-319
1.18279e-319
1.17746e-319
1.432e-319
1.4988e-319
1.56955e-319
1.64366e-319
1.72152e-319
1.80314e-319
1.88852e-319
1.97774e-319
2.07112e-319
2.16865e-319
2.27063e-319
2.37725e-319
2.48871e-319
2.60511e-319
2.72704e-319
2.85451e-319
2.98771e-319
3.12704e-319
3.27279e-319
3.42506e-319
3.58415e-319
3.75055e-319
3.92407e-319
4.10549e-319
4.29462e-319
4.49204e-319
4.69777e-319
4.9124e-319
5.13591e-319
5.36881e-319
5.34698e-319
5.1122e-319
4.88749e-319
4.67188e-319
4.46527e-319
4.26724e-319
4.07752e-319
3.89581e-319
3.72199e-319
3.55559e-319
3.3964e-319
3.24423e-319
3.09878e-319
2.95985e-319
2.82714e-319
2.70056e-319
2.58011e-319
2.46539e-319
2.3565e-319
2.25314e-319
2.15492e-319
2.06095e-319
1.97014e-319
1.8816e-319
1.79494e-319
1.71105e-319
1.63101e-319
1.55571e-319
1.48516e-319
1.41876e-319
1.1656e-319
1.16728e-319
1.16797e-319
1.16807e-319
1.16797e-319
1.16807e-319
1.16866e-319
1.16955e-319
1.17074e-319
1.17212e-319
1.1735e-319
1.17489e-319
1.17647e-319
1.17795e-319
1.17963e-319
1.18141e-319
1.18329e-319
1.18536e-319
1.18773e-319
1.18991e-319
1.19198e-319
1.19346e-319
1.19406e-319
1.19406e-319
1.19327e-319
1.19208e-319
1.1906e-319
1.18892e-319
1.18714e-319
1.18546e-319
1.18428e-319
1.18398e-319
1.18536e-319
1.18902e-319
1.19455e-319
1.1986e-319
1.19702e-319
1.1904e-319
1.18299e-319
1.17765e-319
1.4322e-319
1.49909e-319
1.56975e-319
1.64395e-319
1.72182e-319
1.80334e-319
1.88871e-319
1.97804e-319
2.07152e-319
2.16905e-319
2.27102e-319
2.37764e-319
2.4891e-319
2.6057e-319
2.72764e-319
2.85511e-319
2.9885e-319
3.12783e-319
3.27368e-319
3.42605e-319
3.58524e-319
3.75154e-319
3.92535e-319
4.10667e-319
4.296e-319
4.49363e-319
4.69955e-319
4.91427e-319
5.13799e-319
5.37109e-319
5.34589e-319
5.11131e-319
4.88661e-319
4.67109e-319
4.46457e-319
4.26655e-319
4.07683e-319
3.89521e-319
3.7214e-319
3.5551e-319
3.39591e-319
3.24374e-319
3.09829e-319
2.95935e-319
2.82675e-319
2.70027e-319
2.57981e-319
2.46519e-319
2.3563e-319
2.25294e-319
2.15472e-319
2.06085e-319
1.97004e-319
1.8814e-319
1.79484e-319
1.71095e-319
1.63101e-319
1.55571e-319
1.48506e-319
1.41866e-319
1.1656e-319
1.16718e-319
1.16797e-319
1.16797e-319
1.16787e-319
1.16797e-319
1.16856e-319
1.16955e-319
1.17074e-319
1.17202e-319
1.1735e-319
1.17489e-319
1.17637e-319
1.17795e-319
1.17963e-319
1.18141e-319
1.18329e-319
1.18536e-319
1.18773e-319
1.18991e-319
1.19188e-319
1.19327e-319
1.19406e-319
1.19396e-319
1.19327e-319
1.19208e-319
1.1907e-319
1.18892e-319
1.18714e-319
1.18556e-319
1.18437e-319
1.18418e-319
1.18546e-319
1.18912e-319
1.19455e-319
1.19841e-319
1.19702e-319
1.1905e-319
1.18319e-319
1.17785e-319
1.4324e-319
1.49939e-319
1.56994e-319
1.64425e-319
1.72212e-319
1.80373e-319
1.88911e-319
1.97844e-319
2.07181e-319
2.16944e-319
2.27152e-319
2.37814e-319
2.4897e-319
2.6063e-319
2.72823e-319
2.8559e-319
2.98929e-319
3.12872e-319
3.27457e-319
3.42704e-319
3.58632e-319
3.75282e-319
3.92664e-319
4.10825e-319
4.29758e-319
4.49531e-319
4.70143e-319
4.91635e-319
5.14026e-319
5.37346e-319
5.3448e-319
5.11022e-319
4.88572e-319
4.6703e-319
4.46378e-319
4.26576e-319
4.07624e-319
3.89462e-319
3.72081e-319
3.55451e-319
3.39542e-319
3.24324e-319
3.09779e-319
2.95886e-319
2.82635e-319
2.69997e-319
2.57942e-319
2.46479e-319
2.356e-319
2.25274e-319
2.15452e-319
2.06065e-319
1.96994e-319
1.8813e-319
1.79464e-319
1.71085e-319
1.63081e-319
1.55552e-319
1.48496e-319
1.41856e-319
1.1656e-319
1.16718e-319
1.16797e-319
1.16797e-319
1.16777e-319
1.16797e-319
1.16856e-319
1.16955e-319
1.17074e-319
1.17202e-319
1.17341e-319
1.17489e-319
1.17637e-319
1.17795e-319
1.17963e-319
1.18141e-319
1.18329e-319
1.18536e-319
1.18773e-319
1.18991e-319
1.19188e-319
1.19327e-319
1.19396e-319
1.19386e-319
1.19327e-319
1.19208e-319
1.1907e-319
1.18892e-319
1.18714e-319
1.18566e-319
1.18457e-319
1.18428e-319
1.18556e-319
1.18922e-319
1.19445e-319
1.19831e-319
1.19682e-319
1.1905e-319
1.18329e-319
1.17805e-319
1.43279e-319
1.49959e-319
1.57024e-319
1.64445e-319
1.72241e-319
1.80403e-319
1.8895e-319
1.97883e-319
2.07231e-319
2.16994e-319
2.27201e-319
2.37863e-319
2.49029e-319
2.60689e-319
2.72902e-319
2.85659e-319
2.99009e-319
3.12961e-319
3.27556e-319
3.42812e-319
3.58751e-319
3.75411e-319
3.92812e-319
4.10974e-319
4.29936e-319
4.49718e-319
4.7035e-319
4.91852e-319
5.14263e-319
5.37613e-319
5.34362e-319
5.10913e-319
4.88463e-319
4.66932e-319
4.4628e-319
4.26497e-319
4.07545e-319
3.89393e-319
3.72012e-319
3.55391e-319
3.39482e-319
3.24265e-319
3.0973e-319
2.95847e-319
2.82586e-319
2.69948e-319
2.57902e-319
2.4646e-319
2.3557e-319
2.25254e-319
2.15432e-319
2.06045e-319
1.96974e-319
1.8812e-319
1.79455e-319
1.71065e-319
1.63071e-319
1.55552e-319
1.48486e-319
1.41846e-319
1.1655e-319
1.16708e-319
1.16787e-319
1.16797e-319
1.16777e-319
1.16797e-319
1.16856e-319
1.16955e-319
1.17074e-319
1.17192e-319
1.17341e-319
1.17489e-319
1.17637e-319
1.17785e-319
1.17963e-319
1.18131e-319
1.18329e-319
1.18536e-319
1.18763e-319
1.18991e-319
1.19188e-319
1.19327e-319
1.19386e-319
1.19386e-319
1.19327e-319
1.19208e-319
1.1907e-319
1.18902e-319
1.18734e-319
1.18576e-319
1.18467e-319
1.18437e-319
1.18576e-319
1.18931e-319
1.19445e-319
1.19821e-319
1.19682e-319
1.1907e-319
1.18358e-319
1.17825e-319
1.43299e-319
1.49979e-319
1.57054e-319
1.64484e-319
1.72271e-319
1.80433e-319
1.8899e-319
1.97923e-319
2.0727e-319
2.17033e-319
2.2725e-319
2.37922e-319
2.49088e-319
2.60768e-319
2.72981e-319
2.85748e-319
2.99097e-319
3.1306e-319
3.27664e-319
3.42931e-319
3.58889e-319
3.75549e-319
3.9296e-319
4.11142e-319
4.30114e-319
4.49916e-319
4.70568e-319
4.92089e-319
5.1452e-319
5.37899e-319
5.34223e-319
5.10795e-319
4.88354e-319
4.66833e-319
4.46191e-319
4.26418e-319
4.07466e-319
3.89324e-319
3.71952e-319
3.55322e-319
3.39423e-319
3.24206e-319
3.0968e-319
2.95797e-319
2.82546e-319
2.69908e-319
2.57863e-319
2.4642e-319
2.35551e-319
2.25235e-319
2.15413e-319
2.06025e-319
1.96954e-319
1.88101e-319
1.79445e-319
1.71055e-319
1.63061e-319
1.55532e-319
1.48477e-319
1.41836e-319
1.1654e-319
1.16698e-319
1.16777e-319
1.16777e-319
1.16777e-319
1.16787e-319
1.16856e-319
1.16945e-319
1.17064e-319
1.17192e-319
1.17331e-319
1.17489e-319
1.17627e-319
1.17785e-319
1.17953e-319
1.18131e-319
1.18329e-319
1.18536e-319
1.18763e-319
1.18991e-319
1.19179e-319
1.19317e-319
1.19386e-319
1.19386e-319
1.19327e-319
1.19208e-319
1.1907e-319
1.18912e-319
1.18734e-319
1.18586e-319
1.18477e-319
1.18457e-319
1.18596e-319
1.18951e-319
1.19455e-319
1.19811e-319
1.19682e-319
1.1907e-319
1.18378e-319
1.17845e-319
1.43328e-319
1.50018e-319
1.57083e-319
1.64514e-319
1.7231e-319
1.80472e-319
1.8903e-319
1.97962e-319
2.0732e-319
2.17092e-319
2.2731e-319
2.37991e-319
2.49167e-319
2.60847e-319
2.7306e-319
2.85827e-319
2.99196e-319
3.13178e-319
3.27783e-319
3.43059e-319
3.59028e-319
3.75707e-319
3.93138e-319
4.1132e-319
4.30311e-319
4.50133e-319
4.70805e-319
4.92346e-319
5.14807e-319
5.38205e-319
5.34085e-319
5.10666e-319
4.88236e-319
4.66724e-319
4.46102e-319
4.26319e-319
4.07387e-319
3.89245e-319
3.71873e-319
3.55253e-319
3.39354e-319
3.24147e-319
3.09621e-319
2.95748e-319
2.82497e-319
2.69859e-319
2.57823e-319
2.46381e-319
2.35511e-319
2.25205e-319
2.15393e-319
2.06006e-319
1.96935e-319
1.88081e-319
1.79425e-319
1.71046e-319
1.63042e-319
1.55512e-319
1.48457e-319
1.41826e-319
1.1654e-319
1.16698e-319
1.16777e-319
1.16777e-319
1.16767e-319
1.16777e-319
1.16847e-319
1.16935e-319
1.17054e-319
1.17192e-319
1.17331e-319
1.17479e-319
1.17627e-319
1.17785e-319
1.17953e-319
1.18131e-319
1.18319e-319
1.18536e-319
1.18754e-319
1.18981e-319
1.19169e-319
1.19307e-319
1.19386e-319
1.19386e-319
1.19327e-319
1.19208e-319
1.1907e-319
1.18912e-319
1.18744e-319
1.18596e-319
1.18497e-319
1.18477e-319
1.18615e-319
1.18961e-319
1.19455e-319
1.19801e-319
1.19673e-319
1.1909e-319
1.18398e-319
1.17874e-319
1.43358e-319
1.50048e-319
1.57113e-319
1.64544e-319
1.7235e-319
1.80512e-319
1.89069e-319
1.98022e-319
2.07369e-319
2.17152e-319
2.27369e-319
2.38061e-319
2.49236e-319
2.60926e-319
2.73139e-319
2.85926e-319
2.99305e-319
3.13287e-319
3.27911e-319
3.43198e-319
3.59176e-319
3.75865e-319
3.93316e-319
4.11517e-319
4.30529e-319
4.5037e-319
4.71052e-319
4.92623e-319
5.15113e-319
5.38532e-319
5.33947e-319
5.10538e-319
4.88117e-319
4.66615e-319
4.45993e-319
4.2623e-319
4.07288e-319
3.89156e-319
3.71794e-319
3.55174e-319
3.39285e-319
3.24087e-319
3.09562e-319
2.95688e-319
2.82447e-319
2.69819e-319
2.57784e-319
2.46351e-319
2.35491e-319
2.25175e-319
2.15373e-319
2.05986e-319
1.96915e-319
1.88061e-319
1.79405e-319
1.71026e-319
1.63032e-319
1.55512e-319
1.48457e-319
1.41817e-319
1.1653e-319
1.16698e-319
1.16767e-319
1.16777e-319
1.16758e-319
1.16777e-319
1.16837e-319
1.16935e-319
1.17054e-319
1.17192e-319
1.17331e-319
1.17469e-319
1.17627e-319
1.17785e-319
1.17953e-319
1.18131e-319
1.18319e-319
1.18536e-319
1.18754e-319
1.18971e-319
1.19169e-319
1.19307e-319
1.19376e-319
1.19376e-319
1.19317e-319
1.19218e-319
1.1908e-319
1.18912e-319
1.18754e-319
1.18615e-319
1.18507e-319
1.18487e-319
1.18625e-319
1.18971e-319
1.19465e-319
1.19801e-319
1.19673e-319
1.19099e-319
1.18418e-319
1.17904e-319
1.43398e-319
1.50077e-319
1.57152e-319
1.64583e-319
1.72389e-319
1.80561e-319
1.89118e-319
1.98071e-319
2.07429e-319
2.17211e-319
2.27448e-319
2.3814e-319
2.49315e-319
2.61005e-319
2.73238e-319
2.86034e-319
2.99424e-319
3.13415e-319
3.2804e-319
3.43346e-319
3.59344e-319
3.76043e-319
3.93504e-319
4.11735e-319
4.30766e-319
4.50608e-319
4.71319e-319
4.92919e-319
5.15429e-319
5.38887e-319
5.33798e-319
5.10399e-319
4.87989e-319
4.66497e-319
4.45884e-319
4.26122e-319
4.07199e-319
3.89067e-319
3.71715e-319
3.55105e-319
3.39216e-319
3.24028e-319
3.09502e-319
2.95629e-319
2.82388e-319
2.6977e-319
2.57744e-319
2.46311e-319
2.35452e-319
2.25156e-319
2.15353e-319
2.05966e-319
1.96895e-319
1.88041e-319
1.79385e-319
1.71006e-319
1.63022e-319
1.55492e-319
1.48437e-319
1.41807e-319
1.1652e-319
1.16679e-319
1.16758e-319
1.16758e-319
1.16758e-319
1.16777e-319
1.16837e-319
1.16935e-319
1.17054e-319
1.17182e-319
1.17331e-319
1.17469e-319
1.17627e-319
1.17785e-319
1.17943e-319
1.18121e-319
1.18319e-319
1.18536e-319
1.18754e-319
1.18971e-319
1.19169e-319
1.19307e-319
1.19366e-319
1.19366e-319
1.19317e-319
1.19218e-319
1.1909e-319
1.18931e-319
1.18763e-319
1.18615e-319
1.18516e-319
1.18507e-319
1.18645e-319
1.18991e-319
1.19465e-319
1.19801e-319
1.19673e-319
1.19109e-319
1.18437e-319
1.17924e-319
1.43427e-319
1.50117e-319
1.57192e-319
1.64623e-319
1.72429e-319
1.80611e-319
1.89168e-319
1.9812e-319
2.07488e-319
2.1728e-319
2.27507e-319
2.38219e-319
2.49404e-319
2.61104e-319
2.73347e-319
2.86143e-319
2.99542e-319
3.13544e-319
3.28188e-319
3.43504e-319
3.59502e-319
3.76241e-319
3.93711e-319
4.11952e-319
4.31003e-319
4.50884e-319
4.71615e-319
4.93236e-319
5.15775e-319
5.39263e-319
5.3364e-319
5.10251e-319
4.8786e-319
4.66378e-319
4.45766e-319
4.26023e-319
4.071e-319
3.88978e-319
3.71636e-319
3.55026e-319
3.39146e-319
3.23949e-319
3.09443e-319
2.9557e-319
2.82339e-319
2.6972e-319
2.57705e-319
2.46272e-319
2.35422e-319
2.25116e-319
2.15334e-319
2.05946e-319
1.96875e-319
1.88022e-319
1.79366e-319
1.70986e-319
1.63002e-319
1.55473e-319
1.48417e-319
1.41797e-319
1.1652e-319
1.16679e-319
1.16758e-319
1.16758e-319
1.16748e-319
1.16758e-319
1.16827e-319
1.16916e-319
1.17044e-319
1.17173e-319
1.17321e-319
1.17469e-319
1.17627e-319
1.17785e-319
1.17943e-319
1.18121e-319
1.18319e-319
1.18536e-319
1.18754e-319
1.18971e-319
1.19159e-319
1.19297e-319
1.19366e-319
1.19366e-319
1.19317e-319
1.19218e-319
1.1909e-319
1.18931e-319
1.18773e-319
1.18635e-319
1.18536e-319
1.18516e-319
1.18655e-319
1.19001e-319
3.58415e-319
5.98976e-319
5.98393e-319
3.57387e-319
1.18477e-319
1.17963e-319
1.43467e-319
1.50156e-319
1.57231e-319
1.64672e-319
1.72478e-319
1.8066e-319
1.89227e-319
1.9818e-319
2.07557e-319
2.17349e-319
2.27586e-319
2.38298e-319
2.49493e-319
2.61203e-319
2.73455e-319
2.86262e-319
2.99671e-319
3.13692e-319
3.28346e-319
3.43672e-319
3.597e-319
3.76438e-319
3.93928e-319
4.12189e-319
4.3126e-319
4.51161e-319
4.71932e-319
4.93572e-319
5.1614e-319
5.39668e-319
5.33472e-319
5.10103e-319
4.87722e-319
4.6624e-319
4.45647e-319
4.25914e-319
4.07001e-319
3.88889e-319
3.71537e-319
3.54937e-319
3.39067e-319
3.2388e-319
3.09364e-319
2.95511e-319
2.82279e-319
2.69661e-319
2.57655e-319
2.46232e-319
2.35393e-319
2.25096e-319
2.15304e-319
2.05927e-319
1.96856e-319
1.88002e-319
1.79346e-319
1.70966e-319
1.62982e-319
1.55453e-319
1.48407e-319
1.41777e-319
1.16501e-319
1.16669e-319
1.16738e-319
1.16748e-319
1.16738e-319
1.16758e-319
1.16817e-319
1.16916e-319
1.17034e-319
1.17173e-319
1.17311e-319
1.17469e-319
1.17617e-319
1.17775e-319
1.17943e-319
1.18121e-319
1.18319e-319
1.18536e-319
1.18754e-319
1.18971e-319
1.19149e-319
1.19287e-319
1.19366e-319
1.19366e-319
1.19317e-319
1.19228e-319
1.1909e-319
1.18941e-319
1.18793e-319
1.18655e-319
1.18556e-319
1.18536e-319
2.37369e-319
9.52144e-319
2.74801e-318
4.79188e-318
4.90702e-318
2.74044e-318
8.29487e-319
1.17983e-319
1.43506e-319
1.50196e-319