/*--------------------------------*- C++ -*----------------------------------*\
  =========                 |
  \\      /  F ield         | OpenFOAM: The Open Source CFD Toolbox
   \\    /   O peration     | Website:  https://openfoam.org
    \\  /    A nd           | Version:  9
     \\/     M anipulation  |
\*---------------------------------------------------------------------------*/
FoamFile
{
    format      ascii;
    class       volScalarField;
    location    "0.1";
    object      p;
}
// * * * * * * * * * * * * * * * * * * * * * * * * * * * * * * * * * * * * * //

dimensions      [1 -1 -2 0 0 0 0];

internalField   nonuniform List<scalar> 
20000
(
1.84429
1.84414
1.84403
1.84393
1.84383
1.84374
1.84365
1.84356
1.84347
1.84339
1.84333
1.84329
1.84327
1.84329
1.84336
1.84349
1.84368
1.84395
1.84428
1.84464
1.84495
1.84513
1.84514
1.84507
1.84503
1.84505
1.84511
1.84525
1.84549
1.84577
1.84601
1.84614
1.84621
1.84631
1.84645
1.8466
1.84674
1.84684
1.84689
1.84688
1.84679
1.84663
1.84639
1.84606
1.84562
1.84506
1.84433
1.84338
1.84219
1.8408
1.83938
1.83823
1.8376
1.83756
1.83804
1.8389
1.83998
1.84113
1.84222
1.84311
1.84373
1.84396
1.84353
1.84177
1.8378
1.83325
1.83383
1.83883
1.84283
1.84486
1.84568
1.84601
1.84614
1.84618
1.84616
1.84611
1.84603
1.84595
1.84585
1.84576
1.84566
1.84557
1.84548
1.8454
1.84532
1.84524
1.84517
1.84511
1.84505
1.845
1.84495
1.8449
1.84486
1.84481
1.84476
1.84471
1.84466
1.8446
1.84454
1.84445
1.84233
1.8422
1.84211
1.84205
1.84201
1.84199
1.84198
1.842
1.84202
1.84207
1.84213
1.84222
1.84234
1.84249
1.84268
1.84291
1.84319
1.84351
1.84385
1.84418
1.84444
1.84457
1.84457
1.84452
1.84456
1.84475
1.84506
1.84545
1.84586
1.84625
1.84658
1.8468
1.84699
1.84723
1.84754
1.84786
1.84816
1.84842
1.84861
1.84874
1.8488
1.84878
1.84868
1.84849
1.8482
1.8478
1.84726
1.84655
1.84568
1.84467
1.84365
1.84279
1.84225
1.84213
1.84239
1.84294
1.84368
1.84449
1.84528
1.84593
1.84635
1.84647
1.84614
1.84503
1.84269
1.83974
1.83923
1.84144
1.84389
1.84563
1.84653
1.84693
1.84707
1.84705
1.84694
1.84678
1.84658
1.84635
1.84612
1.84589
1.84565
1.84543
1.84521
1.84501
1.84482
1.84464
1.84446
1.8443
1.84414
1.84399
1.84385
1.84371
1.84357
1.84343
1.84329
1.84315
1.843
1.84286
1.84271
1.84254
1.84047
1.84045
1.84043
1.84043
1.84044
1.84047
1.84051
1.84056
1.84063
1.84072
1.84083
1.84097
1.84112
1.84131
1.84153
1.84178
1.84206
1.84237
1.8427
1.84303
1.84333
1.84356
1.84373
1.84388
1.84407
1.84435
1.8447
1.84511
1.84556
1.84601
1.84646
1.84685
1.84721
1.84759
1.848
1.84841
1.84881
1.84916
1.84947
1.84971
1.84988
1.84998
1.84999
1.84992
1.84975
1.84947
1.84907
1.84854
1.84788
1.84713
1.84638
1.84575
1.84537
1.84529
1.8455
1.84592
1.8465
1.84713
1.84772
1.84818
1.84844
1.8484
1.84797
1.84699
1.84529
1.84331
1.84294
1.84423
1.84567
1.84679
1.84738
1.84762
1.84765
1.84752
1.84731
1.84704
1.84672
1.84639
1.84604
1.84569
1.84535
1.84502
1.8447
1.84439
1.84409
1.8438
1.84352
1.84325
1.843
1.84275
1.84251
1.84227
1.84205
1.84183
1.84161
1.8414
1.84119
1.84099
1.8408
1.84059
1.83854
1.83859
1.83865
1.83871
1.83878
1.83886
1.83895
1.83905
1.83917
1.8393
1.83946
1.83963
1.83983
1.84005
1.8403
1.84057
1.84088
1.84121
1.84156
1.84192
1.84227
1.84261
1.84291
1.8432
1.84351
1.84386
1.84426
1.84472
1.84523
1.84575
1.84631
1.84686
1.84737
1.84788
1.8484
1.84892
1.84941
1.84987
1.85029
1.85064
1.85092
1.85113
1.85126
1.85131
1.85127
1.85112
1.85086
1.85049
1.85001
1.84947
1.84892
1.84848
1.84823
1.8482
1.84839
1.84874
1.8492
1.8497
1.85014
1.85046
1.85059
1.85045
1.84997
1.84907
1.84771
1.84627
1.84596
1.84672
1.84754
1.84815
1.84842
1.84845
1.84831
1.84805
1.84771
1.84731
1.84688
1.84643
1.84597
1.84551
1.84506
1.84461
1.84418
1.84376
1.84335
1.84295
1.84257
1.84221
1.84185
1.84151
1.84118
1.84086
1.84055
1.84025
1.83997
1.83969
1.83942
1.83916
1.83891
1.83866
1.83661
1.83671
1.83682
1.83694
1.83707
1.8372
1.83735
1.83751
1.83768
1.83787
1.83807
1.83829
1.83854
1.83881
1.8391
1.83942
1.83976
1.84013
1.84052
1.84092
1.84132
1.84173
1.84212
1.84252
1.84294
1.84339
1.84388
1.84442
1.845
1.84561
1.84628
1.84696
1.84762
1.84826
1.84891
1.84954
1.85015
1.85073
1.85125
1.85172
1.85213
1.85246
1.85272
1.85289
1.85298
1.85297
1.85286
1.85265
1.85235
1.852
1.85166
1.85138
1.85124
1.85126
1.85143
1.85173
1.85209
1.85246
1.85278
1.85298
1.853
1.85279
1.85228
1.85147
1.8504
1.84929
1.84891
1.84919
1.84951
1.84971
1.84969
1.8495
1.84918
1.84876
1.84827
1.84774
1.84718
1.8466
1.84602
1.84544
1.84486
1.84429
1.84374
1.8432
1.84268
1.84218
1.84169
1.84122
1.84076
1.84032
1.8399
1.8395
1.8391
1.83873
1.83836
1.83801
1.83768
1.83735
1.83704
1.83672
1.83467
1.83482
1.83498
1.83515
1.83533
1.83552
1.83572
1.83593
1.83616
1.8364
1.83666
1.83694
1.83723
1.83755
1.8379
1.83826
1.83866
1.83907
1.8395
1.83995
1.84042
1.84089
1.84136
1.84186
1.84238
1.84293
1.84352
1.84415
1.84482
1.84552
1.8463
1.84712
1.84791
1.8487
1.84947
1.85023
1.85096
1.85166
1.85231
1.8529
1.85343
1.85389
1.85428
1.85458
1.8548
1.85493
1.85497
1.85493
1.85481
1.85464
1.85447
1.85434
1.8543
1.85437
1.85454
1.85479
1.85507
1.85535
1.85556
1.85566
1.85559
1.85531
1.8548
1.85406
1.85317
1.85225
1.85177
1.85167
1.85157
1.85141
1.8511
1.8507
1.85019
1.8496
1.84896
1.84827
1.84757
1.84685
1.84613
1.84542
1.84471
1.84402
1.84335
1.84269
1.84205
1.84143
1.84084
1.84026
1.8397
1.83917
1.83865
1.83815
1.83768
1.83722
1.83678
1.83635
1.83594
1.83555
1.83518
1.8348
1.83273
1.83292
1.83313
1.83334
1.83357
1.83381
1.83405
1.83432
1.8346
1.83489
1.8352
1.83553
1.83588
1.83626
1.83665
1.83707
1.83752
1.83799
1.83848
1.83898
1.83951
1.84005
1.84061
1.84119
1.8418
1.84245
1.84314
1.84387
1.84463
1.84543
1.84632
1.84727
1.8482
1.84912
1.85003
1.85091
1.85177
1.85259
1.85336
1.85408
1.85474
1.85533
1.85585
1.85629
1.85665
1.85692
1.85711
1.85721
1.85725
1.85725
1.85723
1.85723
1.85729
1.8574
1.85758
1.85781
1.85804
1.85824
1.85837
1.85838
1.85824
1.85792
1.85739
1.85668
1.85588
1.85505
1.85446
1.85407
1.85365
1.85317
1.85259
1.85197
1.85126
1.8505
1.84969
1.84885
1.848
1.84714
1.84628
1.84543
1.84459
1.84377
1.84297
1.84219
1.84143
1.8407
1.83999
1.83931
1.83865
1.83801
1.8374
1.83682
1.83625
1.83571
1.83519
1.8347
1.83422
1.83376
1.83332
1.83287
1.83078
1.83101
1.83126
1.83152
1.83179
1.83207
1.83237
1.83268
1.83301
1.83335
1.83372
1.8341
1.83451
1.83493
1.83538
1.83586
1.83636
1.83689
1.83744
1.83801
1.83861
1.83922
1.83986
1.84052
1.84122
1.84195
1.84274
1.84356
1.84443
1.84533
1.84634
1.84742
1.84849
1.84954
1.85057
1.85159
1.85257
1.85352
1.85442
1.85527
1.85606
1.85678
1.85743
1.85801
1.8585
1.85891
1.85925
1.8595
1.85969
1.85983
1.85995
1.86006
1.8602
1.86037
1.86057
1.86078
1.86098
1.86113
1.8612
1.86115
1.86095
1.86058
1.86004
1.85933
1.85855
1.85772
1.85702
1.85641
1.85573
1.85496
1.85413
1.85329
1.8524
1.85145
1.85047
1.84947
1.84847
1.84746
1.84645
1.84546
1.84449
1.84354
1.84261
1.84171
1.84083
1.83998
1.83916
1.83837
1.83761
1.83687
1.83617
1.83549
1.83484
1.83422
1.83362
1.83305
1.83249
1.83197
1.83146
1.83094
1.82884
1.82911
1.82939
1.82969
1.83001
1.83033
1.83067
1.83103
1.83141
1.8318
1.83222
1.83265
1.83311
1.83359
1.8341
1.83463
1.83519
1.83578
1.83639
1.83703
1.8377
1.83839
1.83911
1.83985
1.84063
1.84146
1.84233
1.84325
1.84422
1.84522
1.84636
1.84757
1.84877
1.84996
1.85112
1.85227
1.85339
1.85447
1.8555
1.85648
1.85741
1.85826
1.85905
1.85976
1.86039
1.86094
1.86141
1.86181
1.86214
1.86242
1.86266
1.86288
1.8631
1.86333
1.86355
1.86376
1.86394
1.86405
1.86407
1.86397
1.86372
1.86331
1.86274
1.86202
1.86122
1.86035
1.85954
1.85874
1.85783
1.85681
1.85574
1.85469
1.8536
1.85247
1.85132
1.85016
1.84899
1.84783
1.84668
1.84554
1.84443
1.84334
1.84228
1.84125
1.84025
1.83929
1.83835
1.83745
1.83659
1.83575
1.83495
1.83418
1.83345
1.83274
1.83206
1.8314
1.83078
1.83018
1.8296
1.82902
1.82689
1.8272
1.82752
1.82786
1.82821
1.82858
1.82897
1.82937
1.8298
1.83024
1.83071
1.83119
1.83171
1.83224
1.83281
1.8334
1.83402
1.83467
1.83535
1.83606
1.83679
1.83756
1.83835
1.83918
1.84004
1.84096
1.84193
1.84294
1.84401
1.84513
1.84638
1.84773
1.84907
1.85039
1.85169
1.85297
1.85422
1.85544
1.85661
1.85772
1.85878
1.85977
1.86069
1.86154
1.86231
1.863
1.86361
1.86415
1.86462
1.86502
1.86538
1.86571
1.86601
1.86629
1.86655
1.86677
1.86693
1.86702
1.867
1.86686
1.86657
1.86612
1.86551
1.86476
1.86392
1.863
1.86207
1.86109
1.85997
1.85871
1.85741
1.85616
1.85488
1.85357
1.85224
1.85091
1.84957
1.84825
1.84695
1.84567
1.84441
1.84319
1.84199
1.84083
1.83971
1.83862
1.83758
1.83656
1.83559
1.83466
1.83376
1.83289
1.83206
1.83127
1.8305
1.82977
1.82907
1.82839
1.82775
1.82709
1.82495
1.82528
1.82565
1.82602
1.82642
1.82683
1.82726
1.82771
1.82818
1.82867
1.82919
1.82973
1.83029
1.83089
1.83151
1.83216
1.83284
1.83356
1.8343
1.83508
1.83589
1.83672
1.83759
1.8385
1.83945
1.84046
1.84152
1.84264
1.84381
1.84504
1.84641
1.8479
1.84937
1.85083
1.85227
1.85368
1.85507
1.85643
1.85773
1.85899
1.86018
1.86131
1.86237
1.86336
1.86427
1.8651
1.86585
1.86652
1.86712
1.86765
1.86813
1.86855
1.86893
1.86927
1.86956
1.8698
1.86997
1.87004
1.86999
1.86982
1.86949
1.869
1.86835
1.86756
1.86666
1.86567
1.86462
1.86347
1.86215
1.86066
1.85915
1.85771
1.85623
1.85474
1.85323
1.85172
1.85022
1.84874
1.84728
1.84584
1.84444
1.84307
1.84174
1.84045
1.8392
1.83799
1.83683
1.8357
1.83462
1.83358
1.83258
1.83162
1.83069
1.82981
1.82896
1.82814
1.82736
1.82661
1.82589
1.82516
1.823
1.82337
1.82377
1.82419
1.82462
1.82507
1.82554
1.82604
1.82655
1.82709
1.82766
1.82825
1.82887
1.82952
1.8302
1.83091
1.83166
1.83243
1.83325
1.83409
1.83497
1.83589
1.83683
1.83782
1.83886
1.83996
1.84111
1.84233
1.84361
1.84495
1.84645
1.84807
1.84968
1.85127
1.85285
1.85441
1.85594
1.85743
1.85888
1.86027
1.86161
1.86288
1.86408
1.86521
1.86626
1.86723
1.86812
1.86892
1.86965
1.87031
1.87089
1.87141
1.87187
1.87227
1.87261
1.87287
1.87304
1.8731
1.87304
1.87283
1.87247
1.87195
1.87125
1.87041
1.86944
1.86837
1.8672
1.86589
1.86438
1.86268
1.86095
1.85932
1.85766
1.85597
1.85429
1.8526
1.85093
1.84928
1.84766
1.84607
1.84452
1.843
1.84153
1.84011
1.83873
1.83739
1.83611
1.83487
1.83367
1.83252
1.83142
1.83036
1.82934
1.82836
1.82743
1.82653
1.82566
1.82484
1.82404
1.82324
1.82105
1.82146
1.82189
1.82234
1.82282
1.82331
1.82382
1.82436
1.82492
1.82551
1.82612
1.82677
1.82744
1.82814
1.82888
1.82965
1.83046
1.83131
1.83219
1.8331
1.83406
1.83504
1.83607
1.83714
1.83827
1.83945
1.8407
1.84203
1.84341
1.84486
1.84648
1.84825
1.85
1.85173
1.85345
1.85515
1.85682
1.85845
1.86004
1.86158
1.86305
1.86447
1.86581
1.86708
1.86827
1.86939
1.87041
1.87135
1.87221
1.87299
1.87368
1.87429
1.87483
1.8753
1.87568
1.87597
1.87615
1.87622
1.87615
1.87592
1.87553
1.87496
1.87422
1.87332
1.87228
1.87112
1.86983
1.86837
1.86667
1.86476
1.86283
1.86101
1.85915
1.85728
1.85541
1.85355
1.85171
1.84989
1.8481
1.84635
1.84465
1.84298
1.84137
1.83981
1.83829
1.83683
1.83542
1.83406
1.83275
1.83149
1.83028
1.82912
1.828
1.82693
1.8259
1.82492
1.82397
1.82306
1.8222
1.82131
1.81911
1.81954
1.82001
1.8205
1.82101
1.82154
1.8221
1.82268
1.82328
1.82392
1.82458
1.82528
1.826
1.82676
1.82756
1.82839
1.82926
1.83017
1.83112
1.83211
1.83313
1.8342
1.8353
1.83646
1.83767
1.83894
1.84029
1.84172
1.84321
1.84477
1.84652
1.84843
1.85032
1.85219
1.85405
1.8559
1.85771
1.85949
1.86122
1.8629
1.86453
1.86608
1.86757
1.86899
1.87032
1.87158
1.87274
1.87382
1.8748
1.8757
1.8765
1.87721
1.87783
1.87836
1.87879
1.87912
1.87932
1.8794
1.87932
1.87908
1.87866
1.87805
1.87727
1.8763
1.87518
1.87392
1.87252
1.8709
1.86903
1.86692
1.86478
1.86277
1.86073
1.85867
1.85662
1.85457
1.85255
1.85056
1.84861
1.8467
1.84483
1.84302
1.84126
1.83955
1.8379
1.8363
1.83476
1.83328
1.83185
1.83048
1.82916
1.82789
1.82668
1.82551
1.82439
1.82332
1.82228
1.8213
1.82035
1.81939
1.81716
1.81763
1.81813
1.81866
1.8192
1.81977
1.82037
1.82099
1.82164
1.82232
1.82304
1.82378
1.82456
1.82538
1.82623
1.82713
1.82806
1.82903
1.83005
1.83111
1.83221
1.83335
1.83453
1.83577
1.83707
1.83843
1.83988
1.84141
1.84301
1.84468
1.84656
1.84861
1.85064
1.85266
1.85467
1.85665
1.85862
1.86054
1.86242
1.86425
1.86602
1.86773
1.86936
1.87092
1.87241
1.8738
1.87511
1.87632
1.87743
1.87844
1.87935
1.88016
1.88086
1.88146
1.88195
1.88232
1.88255
1.88264
1.88256
1.88231
1.88186
1.88122
1.88039
1.87936
1.87816
1.8768
1.87527
1.87351
1.87147
1.86916
1.86682
1.86462
1.86238
1.86014
1.8579
1.85567
1.85347
1.8513
1.84918
1.8471
1.84508
1.84311
1.84119
1.83934
1.83755
1.83582
1.83415
1.83254
1.83099
1.8295
1.82807
1.82669
1.82537
1.8241
1.82289
1.82172
1.8206
1.81953
1.81851
1.81746
1.81521
1.81571
1.81625
1.81681
1.81739
1.818
1.81864
1.8193
1.82
1.82073
1.82149
1.82228
1.82312
1.82399
1.8249
1.82585
1.82685
1.82789
1.82898
1.8301
1.83128
1.83249
1.83376
1.83508
1.83646
1.83792
1.83947
1.8411
1.84281
1.84459
1.84661
1.8488
1.85097
1.85313
1.85529
1.85742
1.85953
1.86161
1.86364
1.86562
1.86754
1.86939
1.87118
1.87289
1.87452
1.87606
1.8775
1.87885
1.88009
1.88122
1.88224
1.88315
1.88394
1.88462
1.88516
1.88558
1.88584
1.88595
1.88588
1.88562
1.88515
1.88448
1.88359
1.8825
1.88122
1.87976
1.87811
1.8762
1.87399
1.87148
1.86894
1.86655
1.86412
1.86169
1.85926
1.85685
1.85446
1.85212
1.84982
1.84758
1.84539
1.84326
1.84119
1.83918
1.83724
1.83537
1.83357
1.83183
1.83015
1.82854
1.82699
1.82551
1.82408
1.82271
1.8214
1.82014
1.81893
1.81777
1.81666
1.81553
1.81326
1.8138
1.81437
1.81496
1.81558
1.81623
1.81691
1.81761
1.81835
1.81913
1.81993
1.82078
1.82167
1.82259
1.82356
1.82458
1.82564
1.82674
1.82789
1.8291
1.83034
1.83164
1.83298
1.83438
1.83585
1.8374
1.83905
1.84078
1.8426
1.8445
1.84665
1.84899
1.8513
1.85361
1.85591
1.8582
1.86046
1.86269
1.86487
1.867
1.86908
1.87109
1.87303
1.87489
1.87666
1.87835
1.87994
1.88142
1.8828
1.88405
1.88518
1.88619
1.88707
1.88782
1.88844
1.8889
1.88921
1.88934
1.88927
1.88901
1.88853
1.88782
1.88688
1.88573
1.88436
1.88281
1.88103
1.87898
1.8766
1.87389
1.87115
1.86857
1.86595
1.86333
1.86071
1.85811
1.85554
1.85301
1.85054
1.84812
1.84576
1.84347
1.84124
1.83908
1.83699
1.83497
1.83303
1.83115
1.82935
1.82761
1.82594
1.82434
1.82281
1.82134
1.81992
1.81857
1.81726
1.81602
1.81482
1.8136
1.81132
1.81188
1.81248
1.81311
1.81377
1.81446
1.81517
1.81592
1.8167
1.81752
1.81838
1.81927
1.82021
1.82119
1.82222
1.82329
1.82442
1.82559
1.82681
1.82808
1.8294
1.83077
1.83219
1.83368
1.83524
1.83688
1.83863
1.84046
1.8424
1.84441
1.84669
1.84917
1.85164
1.8541
1.85655
1.85898
1.8614
1.86378
1.86612
1.86841
1.87064
1.8728
1.8749
1.87691
1.87884
1.88068
1.88241
1.88404
1.88554
1.88692
1.88817
1.88928
1.89026
1.89109
1.89177
1.8923
1.89264
1.8928
1.89276
1.89249
1.89199
1.89126
1.89027
1.88905
1.88761
1.88595
1.88405
1.88186
1.87931
1.8764
1.87346
1.87069
1.86788
1.86506
1.86225
1.85946
1.8567
1.85399
1.85133
1.84874
1.8462
1.84374
1.84135
1.83903
1.83679
1.83462
1.83253
1.83051
1.82858
1.82671
1.82492
1.82321
1.82156
1.81997
1.81846
1.817
1.8156
1.81426
1.81298
1.81168
1.80937
1.80996
1.8106
1.81126
1.81196
1.81268
1.81343
1.81422
1.81505
1.81591
1.81682
1.81776
1.81875
1.81979
1.82087
1.82201
1.82319
1.82443
1.82572
1.82706
1.82845
1.8299
1.8314
1.83297
1.83462
1.83636
1.8382
1.84014
1.84219
1.84432
1.84674
1.84936
1.85198
1.85458
1.85718
1.85978
1.86235
1.86488
1.86738
1.86983
1.87222
1.87454
1.8768
1.87897
1.88106
1.88304
1.88492
1.88669
1.88833
1.88984
1.89121
1.89243
1.8935
1.89442
1.89518
1.89576
1.89616
1.89635
1.89632
1.89606
1.89556
1.89479
1.89376
1.89248
1.89095
1.88919
1.88718
1.88484
1.88212
1.87902
1.87588
1.87292
1.86992
1.8669
1.86389
1.8609
1.85795
1.85505
1.85221
1.84943
1.84672
1.84408
1.84152
1.83904
1.83664
1.83432
1.83208
1.82992
1.82784
1.82585
1.82393
1.82209
1.82033
1.81863
1.81701
1.81545
1.81395
1.81252
1.81114
1.80974
1.80742
1.80805
1.80872
1.80941
1.81014
1.8109
1.8117
1.81253
1.81339
1.8143
1.81525
1.81625
1.81729
1.81838
1.81952
1.82071
1.82196
1.82326
1.82462
1.82603
1.8275
1.82903
1.83061
1.83226
1.83399
1.83583
1.83777
1.83982
1.84198
1.84423
1.84678
1.84955
1.85231
1.85507
1.85783
1.86057
1.8633
1.866
1.86866
1.87127
1.87382
1.87631
1.87872
1.88106
1.8833
1.88544
1.88748
1.88939
1.89117
1.89281
1.8943
1.89563
1.89681
1.89782
1.89866
1.89931
1.89976
1.89999
1.89999
1.89973
1.89922
1.89843
1.89736
1.89601
1.89441
1.89255
1.89042
1.88794
1.88505
1.88175
1.87842
1.87526
1.87206
1.86884
1.86563
1.86245
1.8593
1.85621
1.85317
1.85021
1.84731
1.8445
1.84176
1.83911
1.83654
1.83407
1.83167
1.82937
1.82715
1.82502
1.82297
1.82101
1.81912
1.81731
1.81557
1.8139
1.8123
1.81077
1.8093
1.80781
1.80547
1.80613
1.80683
1.80756
1.80833
1.80912
1.80995
1.81083
1.81174
1.81269
1.81369
1.81473
1.81582
1.81697
1.81817
1.81942
1.82073
1.82209
1.82352
1.825
1.82654
1.82814
1.8298
1.83154
1.83336
1.83529
1.83733
1.83949
1.84176
1.84413
1.84681
1.84974
1.85265
1.85556
1.85847
1.86138
1.86427
1.86713
1.86995
1.87272
1.87544
1.8781
1.88068
1.88317
1.88558
1.88788
1.89007
1.89213
1.89406
1.89583
1.89745
1.8989
1.90018
1.90129
1.90221
1.90293
1.90344
1.90372
1.90374
1.90351
1.90299
1.90218
1.90107
1.89966
1.89798
1.89603
1.89377
1.89115
1.8881
1.88461
1.88107
1.87772
1.87432
1.87091
1.86749
1.8641
1.86076
1.85746
1.85423
1.85107
1.84799
1.84499
1.84207
1.83925
1.83651
1.83387
1.83132
1.82887
1.8265
1.82423
1.82205
1.81995
1.81794
1.816
1.81415
1.81237
1.81067
1.80904
1.80747
1.80588
1.80352
1.80421
1.80494
1.80571
1.80651
1.80734
1.80821
1.80912
1.81008
1.81107
1.81212
1.81321
1.81435
1.81555
1.81681
1.81812
1.81949
1.82092
1.82241
1.82396
1.82558
1.82725
1.82899
1.83081
1.83272
1.83475
1.83689
1.83915
1.84154
1.84403
1.84685
1.84992
1.85298
1.85605
1.85912
1.86219
1.86524
1.86826
1.87125
1.8742
1.87708
1.87991
1.88266
1.88532
1.88789
1.89036
1.8927
1.89492
1.897
1.89891
1.90066
1.90223
1.90363
1.90483
1.90584
1.90664
1.90721
1.90754
1.9076
1.90738
1.90687
1.90604
1.90489
1.90343
1.90167
1.89962
1.89726
1.89449
1.89127
1.88759
1.88385
1.88031
1.87671
1.87309
1.86947
1.86587
1.86232
1.85882
1.85538
1.85203
1.84875
1.84556
1.84246
1.83945
1.83655
1.83374
1.83102
1.82841
1.8259
1.82348
1.82115
1.81892
1.81678
1.81472
1.81275
1.81086
1.80904
1.8073
1.80564
1.80394
1.80158
1.80229
1.80306
1.80386
1.80469
1.80556
1.80647
1.80742
1.80841
1.80945
1.81054
1.81168
1.81288
1.81413
1.81544
1.81681
1.81824
1.81974
1.82129
1.82292
1.8246
1.82635
1.82818
1.83008
1.83208
1.8342
1.83644
1.83881
1.84131
1.84392
1.84687
1.8501
1.85332
1.85654
1.85977
1.863
1.86621
1.86941
1.87257
1.87568
1.87874
1.88174
1.88466
1.8875
1.89024
1.89287
1.89538
1.89776
1.89999
1.90205
1.90393
1.90563
1.90714
1.90846
1.90956
1.91044
1.91108
1.91146
1.91156
1.91137
1.91086
1.91002
1.90884
1.90733
1.9055
1.90335
1.90087
1.89797
1.89458
1.89071
1.88677
1.88303
1.87923
1.8754
1.87157
1.86776
1.86399
1.86028
1.85664
1.85308
1.8496
1.84621
1.84292
1.83973
1.83665
1.83366
1.83078
1.82801
1.82533
1.82276
1.82029
1.81792
1.81565
1.81346
1.81137
1.80935
1.80742
1.80558
1.8038
1.802
1.79963
1.80037
1.80117
1.802
1.80287
1.80377
1.80472
1.80571
1.80675
1.80783
1.80897
1.81015
1.8114
1.8127
1.81407
1.81549
1.81699
1.81855
1.82017
1.82186
1.82362
1.82545
1.82735
1.82934
1.83142
1.83364
1.83598
1.83846
1.84107
1.8438
1.84689
1.85027
1.85364
1.85702
1.86041
1.86381
1.8672
1.87056
1.87389
1.87718
1.88042
1.88359
1.88669
1.8897
1.89261
1.89542
1.8981
1.90064
1.90303
1.90524
1.90727
1.9091
1.91073
1.91215
1.91336
1.91433
1.91504
1.91549
1.91563
1.91547
1.91497
1.91412
1.91292
1.91136
1.90945
1.90722
1.90462
1.90158
1.89803
1.89396
1.88982
1.88589
1.88188
1.87784
1.87379
1.86977
1.86579
1.86186
1.858
1.85423
1.85055
1.84696
1.84347
1.84009
1.83682
1.83365
1.8306
1.82765
1.82482
1.82209
1.81947
1.81696
1.81454
1.81222
1.81
1.80786
1.80581
1.80385
1.80197
1.80006
1.79768
1.79845
1.79928
1.80014
1.80105
1.80199
1.80297
1.804
1.80508
1.8062
1.80738
1.80862
1.80991
1.81127
1.81269
1.81417
1.81573
1.81735
1.81904
1.8208
1.82263
1.82453
1.82651
1.82858
1.83076
1.83307
1.83551
1.8381
1.84082
1.84367
1.8469
1.85044
1.85396
1.8575
1.86106
1.86462
1.86818
1.87172
1.87523
1.87869
1.88211
1.88546
1.88873
1.89193
1.89502
1.898
1.90086
1.90357
1.90613
1.9085
1.91067
1.91264
1.91439
1.91593
1.91725
1.91831
1.91911
1.91961
1.91981
1.91968
1.9192
1.91835
1.91712
1.91552
1.91355
1.91123
1.90852
1.90534
1.90163
1.89736
1.89302
1.88889
1.88467
1.88041
1.87615
1.87191
1.8677
1.86356
1.85948
1.85549
1.85159
1.8478
1.84411
1.84053
1.83706
1.83371
1.83048
1.82736
1.82436
1.82147
1.81869
1.81603
1.81346
1.81101
1.80865
1.80638
1.80421
1.80213
1.80014
1.79811
1.79573
1.79653
1.79739
1.79829
1.79922
1.8002
1.80122
1.80229
1.8034
1.80457
1.8058
1.80708
1.80842
1.80983
1.8113
1.81285
1.81446
1.81614
1.8179
1.81973
1.82163
1.82361
1.82567
1.82782
1.83009
1.83249
1.83503
1.83772
1.84056
1.84354
1.8469
1.85059
1.85428
1.85798
1.8617
1.86543
1.86916
1.87288
1.87656
1.88021
1.88381
1.88734
1.89081
1.89418
1.89746
1.90063
1.90366
1.90655
1.90928
1.91181
1.91414
1.91624
1.91813
1.9198
1.92122
1.92238
1.92327
1.92385
1.92411
1.92402
1.92356
1.92271
1.92147
1.91982
1.91779
1.91538
1.91256
1.90925
1.90537
1.90091
1.89636
1.89203
1.88761
1.88313
1.87865
1.87418
1.86975
1.86538
1.86108
1.85687
1.85275
1.84874
1.84484
1.84105
1.83739
1.83384
1.83042
1.82712
1.82395
1.82089
1.81795
1.81513
1.81242
1.80981
1.80732
1.80492
1.80262
1.80042
1.7983
1.79616
1.79378
1.79461
1.7955
1.79643
1.7974
1.79841
1.79946
1.80057
1.80173
1.80294
1.80421
1.80554
1.80693
1.80839
1.80991
1.81151
1.81318
1.81493
1.81675
1.81865
1.82062
1.82268
1.82481
1.82705
1.8294
1.83189
1.83454
1.83734
1.84029
1.84339
1.84689
1.85074
1.85458
1.85845
1.86234
1.86624
1.87015
1.87404
1.87791
1.88174
1.88552
1.88924
1.8929
1.89646
1.89993
1.90328
1.90651
1.90958
1.91248
1.91518
1.91767
1.91992
1.92195
1.92374
1.92528
1.92655
1.92753
1.92819
1.92851
1.92847
1.92804
1.9272
1.92594
1.92426
1.92217
1.91968
1.91675
1.9133
1.90927
1.90462
1.89986
1.89533
1.89069
1.886
1.88129
1.87659
1.87193
1.86733
1.8628
1.85836
1.85402
1.84978
1.84567
1.84167
1.8378
1.83405
1.83043
1.82695
1.82359
1.82036
1.81725
1.81426
1.8114
1.80864
1.806
1.80347
1.80103
1.7987
1.79647
1.7942
1.79183
1.79269
1.79361
1.79457
1.79557
1.79662
1.79771
1.79885
1.80005
1.8013
1.80261
1.80399
1.80543
1.80694
1.80851
1.81017
1.8119
1.81371
1.81559
1.81756
1.8196
1.82173
1.82394
1.82626
1.8287
1.83129
1.83403
1.83694
1.84
1.84322
1.84687
1.85087
1.85487
1.8589
1.86296
1.86704
1.87112
1.8752
1.87925
1.88327
1.88724
1.89116
1.895
1.89877
1.90243
1.90597
1.90939
1.91265
1.91573
1.91861
1.92126
1.92367
1.92584
1.92776
1.92942
1.93081
1.93189
1.93264
1.93303
1.93304
1.93265
1.93183
1.93056
1.92885
1.9267
1.92413
1.92109
1.91752
1.91332
1.90848
1.90352
1.89878
1.89393
1.88902
1.88408
1.87915
1.87426
1.86942
1.86465
1.85998
1.8554
1.85094
1.8466
1.84238
1.83829
1.83434
1.83052
1.82684
1.82329
1.81988
1.81659
1.81344
1.81041
1.8075
1.80471
1.80203
1.79946
1.79699
1.79463
1.79223
1.78988
1.79077
1.79172
1.79271
1.79374
1.79482
1.79595
1.79713
1.79836
1.79966
1.80101
1.80243
1.80392
1.80548
1.80711
1.80882
1.8106
1.81247
1.81442
1.81646
1.81857
1.82077
1.82306
1.82546
1.82799
1.83067
1.83351
1.83652
1.8397
1.84304
1.84683
1.85099
1.85515
1.85935
1.86358
1.86783
1.87209
1.87635
1.88059
1.8848
1.88897
1.89308
1.89713
1.90109
1.90495
1.90869
1.9123
1.91576
1.91903
1.9221
1.92491
1.92748
1.9298
1.93186
1.93366
1.93516
1.93635
1.93719
1.93766
1.93774
1.93739
1.93659
1.93532
1.93358
1.93138
1.92873
1.9256
1.92189
1.91754
1.9125
1.90734
1.9024
1.89734
1.8922
1.88703
1.88187
1.87673
1.87165
1.86664
1.86172
1.85691
1.85221
1.84764
1.84319
1.83888
1.83471
1.83069
1.8268
1.82305
1.81945
1.81598
1.81265
1.80945
1.80638
1.80343
1.8006
1.79789
1.79529
1.79279
1.79026
1.78793
1.78885
1.78983
1.79085
1.79191
1.79302
1.79419
1.7954
1.79668
1.79801
1.79941
1.80087
1.8024
1.80401
1.80569
1.80746
1.8093
1.81123
1.81324
1.81534
1.81753
1.8198
1.82217
1.82464
1.82726
1.83003
1.83297
1.83609
1.83938
1.84284
1.84677
1.85109
1.85542
1.85978
1.86418
1.86861
1.87306
1.8775
1.88193
1.88634
1.8907
1.89501
1.89926
1.90342
1.90749
1.91144
1.91525
1.91891
1.92238
1.92563
1.92863
1.93136
1.93383
1.93604
1.93797
1.9396
1.9409
1.94185
1.94241
1.94255
1.94225
1.94148
1.94021
1.93846
1.93621
1.93349
1.93026
1.92643
1.92192
1.9167
1.91133
1.90619
1.90091
1.89555
1.89015
1.88474
1.87936
1.87403
1.86877
1.86361
1.85855
1.8536
1.84879
1.84411
1.83957
1.83518
1.83093
1.82683
1.82288
1.81908
1.81542
1.8119
1.80853
1.80529
1.80218
1.79919
1.79633
1.79358
1.79095
1.78828
1.78598
1.78693
1.78793
1.78898
1.79008
1.79122
1.79242
1.79367
1.79498
1.79636
1.7978
1.7993
1.80088
1.80254
1.80427
1.80609
1.80799
1.80998
1.81205
1.81422
1.81647
1.81881
1.82125
1.82381
1.82651
1.82937
1.83241
1.83564
1.83905
1.84263
1.8467
1.85117
1.85566
1.86019
1.86476
1.86937
1.874
1.87864
1.88326
1.88787
1.89243
1.89695
1.9014
1.90577
1.91005
1.91421
1.91823
1.92209
1.92577
1.92922
1.93239
1.93529
1.93793
1.94029
1.94237
1.94413
1.94556
1.94661
1.94726
1.94749
1.94724
1.94651
1.94526
1.94349
1.9412
1.93842
1.9351
1.93114
1.92648
1.92107
1.9155
1.91015
1.90465
1.89906
1.89342
1.88777
1.88214
1.87656
1.87105
1.86563
1.86031
1.85512
1.85006
1.84514
1.84036
1.83573
1.83126
1.82694
1.82277
1.81876
1.81491
1.8112
1.80764
1.80422
1.80094
1.79779
1.79477
1.79188
1.7891
1.78628
1.78403
1.785
1.78604
1.78712
1.78824
1.78942
1.79065
1.79194
1.79329
1.7947
1.79618
1.79773
1.79935
1.80105
1.80284
1.80471
1.80666
1.80871
1.81085
1.81307
1.81539
1.81781
1.82032
1.82296
1.82574
1.82869
1.83183
1.83517
1.83869
1.84239
1.8466
1.85123
1.85588
1.86058
1.86533
1.87012
1.87494
1.87976
1.88458
1.88939
1.89416
1.89888
1.90354
1.90813
1.91262
1.917
1.92123
1.92531
1.92919
1.93284
1.93621
1.93929
1.94209
1.94461
1.94684
1.94875
1.9503
1.95148
1.95223
1.95254
1.95237
1.95167
1.95045
1.94867
1.94636
1.94351
1.9401
1.93603
1.93121
1.92561
1.91984
1.91429
1.90857
1.90275
1.89687
1.89097
1.88509
1.87924
1.87347
1.86779
1.86222
1.85677
1.85145
1.84628
1.84126
1.83638
1.83167
1.82712
1.82274
1.81851
1.81445
1.81054
1.80679
1.80319
1.79973
1.79641
1.79322
1.79017
1.78725
1.78428
1.78208
1.78308
1.78414
1.78525
1.78641
1.78761
1.78888
1.7902
1.79158
1.79303
1.79455
1.79614
1.79781
1.79956
1.80139
1.80331
1.80533
1.80743
1.80963
1.81192
1.8143
1.81679
1.81937
1.82209
1.82495
1.828
1.83123
1.83467
1.8383
1.84212
1.84647
1.85126
1.85607
1.86094
1.86587
1.87084
1.87585
1.88087
1.88589
1.89089
1.89587
1.90081
1.90569
1.91049
1.9152
1.9198
1.92425
1.92855
1.93265
1.93651
1.94007
1.94333
1.94631
1.949
1.95139
1.95345
1.95514
1.95645
1.95732
1.95772
1.95762
1.95699
1.95579
1.95402
1.95168
1.94879
1.94529
1.9411
1.93613
1.93035
1.92436
1.91861
1.91267
1.90661
1.90048
1.89433
1.88819
1.88209
1.87605
1.87011
1.86427
1.85855
1.85297
1.84754
1.84226
1.83714
1.83218
1.82739
1.82278
1.81833
1.81405
1.80993
1.80598
1.80218
1.79854
1.79504
1.79168
1.78847
1.78539
1.78226
1.78013
1.78115
1.78224
1.78338
1.78456
1.7858
1.7871
1.78845
1.78987
1.79136
1.79292
1.79455
1.79626
1.79806
1.79994
1.80191
1.80398
1.80613
1.80839
1.81074
1.81319
1.81574
1.81841
1.8212
1.82414
1.82727
1.83061
1.83415
1.83789
1.84183
1.84632
1.85126
1.85624
1.86128
1.86638
1.87154
1.87673
1.88195
1.88717
1.89238
1.89757
1.90272
1.90782
1.91284
1.91778
1.9226
1.92728
1.9318
1.93613
1.9402
1.94397
1.94742
1.95058
1.95345
1.95601
1.95823
1.96008
1.96152
1.96252
1.96303
1.96302
1.96245
1.9613
1.95954
1.95719
1.95425
1.95067
1.94637
1.94125
1.93527
1.92908
1.92311
1.91694
1.91064
1.90427
1.89786
1.89146
1.88509
1.87879
1.87257
1.86646
1.86047
1.85462
1.84892
1.84337
1.83799
1.83278
1.82775
1.82289
1.81821
1.81371
1.80938
1.80521
1.80121
1.79737
1.79369
1.79015
1.78677
1.78352
1.78023
1.77818
1.77923
1.78034
1.78151
1.78272
1.78399
1.78532
1.7867
1.78816
1.78968
1.79128
1.79295
1.7947
1.79654
1.79847
1.80049
1.80261
1.80483
1.80714
1.80955
1.81206
1.81468
1.81741
1.82028
1.82331
1.82653
1.82995
1.8336
1.83745
1.84151
1.84614
1.85124
1.85638
1.86158
1.86686
1.8722
1.87759
1.883
1.88843
1.89385
1.89925
1.90462
1.90993
1.91519
1.92035
1.9254
1.93032
1.93507
1.93962
1.94392
1.9479
1.95155
1.95491
1.95796
1.9607
1.9631
1.96511
1.9667
1.96784
1.96847
1.96857
1.96808
1.96698
1.96525
1.9629
1.95991
1.95626
1.95184
1.94657
1.9404
1.93399
1.9278
1.9214
1.91486
1.90823
1.90156
1.89489
1.88825
1.88167
1.87518
1.86879
1.86252
1.85639
1.85041
1.8446
1.83895
1.83348
1.82819
1.82309
1.81817
1.81343
1.80887
1.80448
1.80027
1.79623
1.79235
1.78863
1.78506
1.78164
1.77818
1.77623
1.7773
1.77844
1.77963
1.78087
1.78217
1.78353
1.78495
1.78644
1.78799
1.78963
1.79134
1.79314
1.79502
1.79699
1.79906
1.80123
1.8035
1.80587
1.80834
1.81092
1.8136
1.8164
1.81934
1.82245
1.82575
1.82927
1.83302
1.83698
1.84116
1.84592
1.85117
1.85648
1.86185
1.86731
1.87283
1.87841
1.88402
1.88965
1.89528
1.9009
1.90648
1.91203
1.91751
1.92291
1.92819
1.93334
1.93833
1.94312
1.94766
1.95186
1.95572
1.95927
1.96253
1.96547
1.96804
1.97023
1.97199
1.97328
1.97406
1.97427
1.97389
1.97286
1.97117
1.96881
1.9658
1.96207
1.95755
1.95212
1.94575
1.93911
1.93269
1.92605
1.91926
1.91237
1.90543
1.89849
1.89157
1.88472
1.87794
1.87126
1.86471
1.85829
1.85203
1.84594
1.84002
1.83428
1.82873
1.82336
1.81819
1.8132
1.80841
1.8038
1.79937
1.79511
1.79103
1.78711
1.78336
1.77976
1.77611
1.77428
1.77537
1.77654
1.77775
1.77902
1.78035
1.78173
1.78319
1.78471
1.7863
1.78797
1.78972
1.79156
1.79348
1.7955
1.79762
1.79983
1.80215
1.80458
1.80711
1.80974
1.81249
1.81536
1.81837
1.82156
1.82495
1.82856
1.8324
1.83647
1.84077
1.84566
1.85107
1.85654
1.86208
1.86771
1.87342
1.87919
1.885
1.89083
1.89667
1.90251
1.90832
1.91409
1.9198
1.92544
1.93096
1.93635
1.94159
1.94662
1.95139
1.95583
1.95991
1.96368
1.96715
1.97029
1.97308
1.97546
1.97741
1.97887
1.9798
1.98016
1.97988
1.97894
1.97731
1.97497
1.97193
1.96814
1.9635
1.95792
1.95133
1.94446
1.9378
1.93091
1.92385
1.91669
1.90948
1.90226
1.89506
1.88791
1.88084
1.87387
1.86703
1.86032
1.85377
1.84739
1.84119
1.83517
1.82934
1.82371
1.81828
1.81304
1.808
1.80315
1.79849
1.79402
1.78972
1.78559
1.78164
1.77785
1.77401
1.77233
1.77344
1.77463
1.77587
1.77717
1.77852
1.77993
1.78142
1.78297
1.7846
1.7863
1.78809
1.78996
1.79193
1.79399
1.79616
1.79842
1.80079