/*--------------------------------*- C++ -*----------------------------------*\
  =========                 |
  \\      /  F ield         | OpenFOAM: The Open Source CFD Toolbox
   \\    /   O peration     | Website:  https://openfoam.org
    \\  /    A nd           | Version:  9
     \\/     M anipulation  |
\*---------------------------------------------------------------------------*/
FoamFile
{
    format      ascii;
    class       volScalarField;
    location    "0.1";
    object      p_rgh;
}
// * * * * * * * * * * * * * * * * * * * * * * * * * * * * * * * * * * * * * //

dimensions      [1 -1 -2 0 0 0 0];

internalField   nonuniform List<scalar> 
20000
(
-0.000120153
-0.0002652
-0.000378142
-0.000478991
-0.000574211
-0.000667418
-0.000759711
-0.0008501
-0.000935937
-0.00101322
-0.0010767
-0.00111996
-0.0011353
-0.00111375
-0.00104517
-0.000918652
-0.000724247
-0.000456982
-0.000125667
0.000233273
0.000546126
0.000724359
0.000737575
0.000668028
0.000625719
0.0006398
0.000704431
0.000846979
0.00108532
0.00136412
0.001608
0.00173546
0.00180586
0.00190723
0.00204549
0.00219588
0.00233364
0.00243527
0.00248577
0.00247224
0.00238694
0.00222509
0.00198252
0.00165188
0.00121812
0.000654679
-7.80013e-05
-0.00102634
-0.0022181
-0.00360845
-0.00502255
-0.00617502
-0.00681064
-0.00684552
-0.00636445
-0.00551056
-0.00443064
-0.0032752
-0.00219095
-0.00129519
-0.000677301
-0.000444853
-0.000872815
-0.00263726
-0.00661015
-0.011157
-0.0105754
-0.00558056
-0.00157248
0.000452606
0.00127038
0.00160271
0.00173786
0.0017736
0.00175372
0.00170054
0.00162661
0.00154039
0.00144804
0.00135384
0.0012575
0.00116374
0.00107377
0.00098838
0.000908264
0.000833904
0.00076551
0.000702964
0.000645804
0.000593243
0.000544216
0.000497473
0.0004517
0.00040563
0.000358089
0.000307951
0.00025405
0.000195325
0.00012907
4.80212e-05
-0.00010989
-0.000243278
-0.000335645
-0.000399525
-0.000439045
-0.000458698
-0.000461451
-0.000448702
-0.00042037
-0.000375042
-0.000310119
-0.000221932
-0.00010586
4.34614e-05
0.000231698
0.000463794
0.000741982
0.00106196
0.00140666
0.00173881
0.00199957
0.00213003
0.00212521
0.00207719
0.0021165
0.00230405
0.0026159
0.00300234
0.00341769
0.00380666
0.00413463
0.00435508
0.00454237
0.00478834
0.00509342
0.00541611
0.00571842
0.00597149
0.00616755
0.00629683
0.00635299
0.00633219
0.00623031
0.00604128
0.00575425
0.00535194
0.00481121
0.00410845
0.00323537
0.0022294
0.00120417
0.000340334
-0.000191077
-0.000313252
-5.72297e-05
0.000491521
0.00123025
0.00204844
0.00283289
0.00348167
0.00390849
0.00402967
0.00369618
0.00258954
0.000240274
-0.00270707
-0.00321235
-0.00100784
0.00144434
0.00318506
0.00408252
0.00448195
0.00462077
0.0046063
0.00449894
0.00433319
0.00413104
0.00390779
0.00367586
0.00344685
0.0032095
0.00298402
0.00276948
0.00256599
0.00237339
0.0021912
0.00201862
0.00185466
0.00169816
0.00154783
0.00140231
0.00126022
0.00112024
0.000981184
0.000841986
0.000701659
0.000559394
0.000414718
0.0002646
9.52396e-05
-1.55551e-05
-3.60739e-05
-4.91504e-05
-5.07456e-05
-3.95002e-05
-1.46574e-05
2.47147e-05
7.95782e-05
0.000151091
0.000240755
0.000350518
0.000482814
0.000640499
0.00082664
0.00104408
0.00129474
0.00157834
0.00189061
0.00222057
0.002548
0.00284343
0.00307797
0.00324854
0.00339859
0.00359155
0.00386232
0.00421253
0.00462717
0.00507868
0.00552889
0.00597234
0.00636307
0.00672256
0.00710516
0.0075147
0.00793005
0.00832389
0.00868073
0.00898767
0.00922821
0.00939815
0.00949292
0.0095072
0.00943478
0.00926643
0.00898962
0.00859013
0.00805731
0.00739574
0.00664446
0.00589241
0.0052677
0.00488839
0.00480867
0.00501298
0.00544169
0.00601596
0.00664558
0.00723594
0.00769902
0.00795479
0.00791871
0.00748751
0.00650703
0.00480216
0.00282941
0.00245891
0.00374658
0.00519193
0.00630402
0.0069006
0.00714091
0.00716272
0.0070418
0.00682728
0.00655245
0.00624001
0.00590507
0.00555823
0.00520682
0.0048717
0.00454044
0.00421744
0.00390519
0.00360448
0.00331539
0.00303756
0.00277035
0.00251301
0.00226467
0.00202445
0.0017915
0.00156503
0.00134435
0.00112888
0.000918152
0.000711999
0.000511053
0.000314209
0.000107903
2.2406e-05
7.11304e-05
0.000126328
0.000188247
0.000257856
0.000336818
0.000426932
0.000529955
0.000647642
0.000781838
0.000934534
0.00110788
0.00130416
0.00152562
0.0017742
0.00205111
0.00235618
0.00268695
0.00303754
0.00339758
0.00375201
0.00408451
0.00438877
0.00468092
0.00499049
0.00533964
0.00574163
0.00620104
0.00670586
0.00723076
0.00778998
0.00833643
0.00884935
0.00936074
0.00987815
0.0103944
0.0108916
0.0113521
0.0117662
0.0121173
0.0124013
0.0126123
0.0127441
0.0127909
0.0127449
0.0125971
0.0123387
0.0119659
0.0114889
0.0109443
0.0104041
0.00996392
0.00970938
0.00967995
0.00986573
0.0102211
0.0106829
0.011176
0.0116209
0.0119422
0.0120705
0.011932
0.0114483
0.0105447
0.00919399
0.00774628
0.00743566
0.00820047
0.00901612
0.00962681
0.00989852
0.0099273
0.00978676
0.00952798
0.00918661
0.00879073
0.00836074
0.00791088
0.00745172
0.00699085
0.00653826
0.00609313
0.00565883
0.00523692
0.00482826
0.00443328
0.004052
0.00368421
0.00332951
0.00298738
0.00265727
0.0023386
0.0020308
0.00173338
0.00144589
0.00116791
0.000899173
0.000640292
0.000390449
0.000134171
4.87891e-05
0.000151237
0.000263541
0.000382119
0.000508366
0.000643661
0.000789548
0.000947575
0.00111935
0.00130661
0.00151121
0.00173507
0.00198014
0.00224825
0.00254092
0.00285907
0.00320258
0.00356977
0.00395686
0.00435775
0.00476435
0.00516822
0.00556559
0.00596451
0.00638166
0.00683115
0.00732317
0.00786277
0.00844384
0.00905103
0.00971791
0.0104033
0.0110599
0.0117061
0.0123475
0.0129805
0.0135934
0.0141685
0.0146961
0.0151647
0.0155693
0.0159036
0.0161599
0.0163338
0.0164187
0.0164084
0.0162983
0.0160894
0.0157946
0.015446
0.0150996
0.0148244
0.0146814
0.0146995
0.0148725
0.0151662
0.0155306
0.0159048
0.0162231
0.016422
0.0164434
0.0162293
0.0157256
0.0149115
0.0138365
0.0127269
0.0123478
0.0126351
0.0129509
0.0131523
0.0131266
0.0129388
0.0126184
0.012202
0.0117157
0.0111828
0.0106209
0.0100432
0.00945945
0.00887653
0.00829983
0.0077339
0.0071815
0.00664406
0.00612258
0.00561768
0.00512962
0.00465843
0.00420394
0.00376583
0.00334369
0.00293702
0.00254531
0.00216806
0.00180478
0.00145492
0.00111804
0.000794505
0.000483435
0.000166149
7.09442e-05
0.000221095
0.000383308
0.00055331
0.000732048
0.000920732
0.00112063
0.00133308
0.00155949
0.00180141
0.00206047
0.00233833
0.00263662
0.00295684
0.00330021
0.00366741
0.00405838
0.00447197
0.00490572
0.00535595
0.00581841
0.00628936
0.00676804
0.00726066
0.00777877
0.00833142
0.00892386
0.0095576
0.0102281
0.0109263
0.0117026
0.0125213
0.0133173
0.0141005
0.014873
0.0156305
0.0163645
0.0170614
0.0177095
0.018302
0.0188325
0.0192936
0.0196794
0.0199851
0.0202054
0.0203363
0.0203762
0.0203293
0.0202087
0.0200417
0.0198705
0.0197437
0.0197038
0.0197711
0.0199413
0.0201892
0.0204755
0.0207515
0.0209634
0.0210587
0.0209898
0.0207143
0.0202006
0.019459
0.0185683
0.0176554
0.0171737
0.0170724
0.0169769
0.016815
0.0165057
0.0160994
0.0155906
0.0150036
0.0143597
0.0136776
0.0129724
0.0122562
0.0115376
0.0108233
0.0101181
0.00942654
0.00875111
0.00809354
0.00745513
0.00683671
0.00623877
0.00566154
0.005105
0.00456893
0.00405295
0.00355658
0.00307926
0.00262039
0.00217934
0.00175542
0.00134796
0.000957263
0.000582158
0.000200083
9.07616e-05
0.000283196
0.000490341
0.000706545
0.000932839
0.00117032
0.00142009
0.00168333
0.00196136
0.00225558
0.00256745
0.00289846
0.00325004
0.0036235
0.00401991
0.00443995
0.00488383
0.00535106
0.00584036
0.00634966
0.00687662
0.00741938
0.00797807
0.00855766
0.00916731
0.00981434
0.0105024
0.0112315
0.011998
0.0127953
0.0136869
0.0146385
0.01557
0.0164875
0.017391
0.0182758
0.0191339
0.0199556
0.0207294
0.0214495
0.022108
0.0226985
0.0232157
0.0236548
0.0240117
0.0242837
0.0244708
0.0245783
0.0246185
0.0246132
0.0245945
0.0245971
0.0246507
0.0247691
0.0249489
0.0251702
0.0254019
0.0256043
0.0257337
0.025747
0.025606
0.025281
0.0247556
0.0240498
0.0232444
0.0224104
0.021824
0.0214373
0.0210179
0.0205351
0.0199555
0.0193315
0.0186289
0.0178648
0.0170558
0.0162176
0.0153628
0.014502
0.0136435
0.0127932
0.0119561
0.0111357
0.0103346
0.00955477
0.00879774
0.00806454
0.00735583
0.00667198
0.00601303
0.0053788
0.00476886
0.00418266
0.00361951
0.00307868
0.00255937
0.0020607
0.00158181
0.00112297
0.000682768
0.000234502
0.000108839
0.000340109
0.000588674
0.000847661
0.00111815
0.0014012
0.00169787
0.0020093
0.00233671
0.00268139
0.00304471
0.00342804
0.00383273
0.00426006
0.00471112
0.00518673
0.00568741
0.00621318
0.00676355
0.00733741
0.00793329
0.0085499
0.00918741
0.00984995
0.0105457
0.0112818
0.0120622
0.0128869
0.0137525
0.0146536
0.0156643
0.016749
0.0178141
0.018864
0.0198985
0.0209129
0.0218989
0.0228481
0.023751
0.0246007
0.0253894
0.0261115
0.0267615
0.0273352
0.0278291
0.0282412
0.0285722
0.0288271
0.0290161
0.0291567
0.0292729
0.0293903
0.0295298
0.0297007
0.0298996
0.0301102
0.0303067
0.0304565
0.0305237
0.0304732
0.0302747
0.0299072
0.0293628
0.0286609
0.0278737
0.0270442
0.0263484
0.0257388
0.0250568
0.0242915
0.0234587
0.0226221
0.0217246
0.0207798
0.0198012
0.0188019
0.0177928
0.0167833
0.0157807
0.0147907
0.0138181
0.0128659
0.0119368
0.011033
0.0101561
0.00930721
0.00848706
0.00769605
0.0069342
0.00620125
0.00549671
0.00481988
0.00416997
0.00354609
0.0029473
0.00237255
0.0018208
0.00129231
0.000785474
0.000269419
0.000126012
0.000394275
0.000682278
0.000982094
0.00129491
0.00162181
0.00196386
0.00232215
0.00269788
0.00309227
0.00350661
0.00394221
0.00440043
0.00488251
0.00538964
0.00592277
0.0064826
0.00706951
0.00768338
0.00832365
0.00898932
0.00967956
0.0103948
0.011139
0.01192
0.0127452
0.0136185
0.01454
0.0155065
0.0165133
0.0176444
0.0188628
0.0200618
0.021245
0.0224123
0.0235589
0.0246765
0.0257569
0.0267913
0.0277728
0.0286942
0.02955
0.0303348
0.0310446
0.0316762
0.0322279
0.0327004
0.0330977
0.0334281
0.0337046
0.0339455
0.0341694
0.0343909
0.0346161
0.0348413
0.0350523
0.0352276
0.0353401
0.0353599
0.0352584
0.0350113
0.0346031
0.0340307
0.0333109
0.0325061
0.0316432
0.0308338
0.03003
0.0291176
0.028096
0.0270252
0.0259822
0.0248908
0.0237633
0.0226114
0.0214465
0.0202785
0.0191156
0.0179646
0.0168308
0.0157185
0.0146311
0.0135713
0.0125412
0.0115424
0.010576
0.00964285
0.00874312
0.00787678
0.00704345
0.00624252
0.00547321
0.00473459
0.00402568
0.00334541
0.00269259
0.00206602
0.00146596
0.000890619
0.000304878
0.000142497
0.000446361
0.000772368
0.00111164
0.0014655
0.00183511
0.00222152
0.00262584
0.0030492
0.00349281
0.00395794
0.00444591
0.00495805
0.00549565
0.00605993
0.00665195
0.00727253
0.0079222
0.00860109
0.00930888
0.0100449
0.0108088
0.0116013
0.0124268
0.0132934
0.0142085
0.0151762
0.0161961
0.0172654
0.0183793
0.0196322
0.0209852
0.0223191
0.0236374
0.0249398
0.0262212
0.0274736
0.0286884
0.0298572
0.0309733
0.03203
0.0330219
0.0339435
0.034791
0.0355613
0.0362525
0.0368649
0.0374014
0.037868
0.0382742
0.0386334
0.0389589
0.0392605
0.039542
0.039799
0.0400192
0.040184
0.0402707
0.0402545
0.0401113
0.0398213
0.0393729
0.0387658
0.0380138
0.0371702
0.0362514
0.0353244
0.0343416
0.0332171
0.0319567
0.0306595
0.0294157
0.0281319
0.0268204
0.0254922
0.0241577
0.0228261
0.0215051
0.0202011
0.0189191
0.0176634
0.0164374
0.0152437
0.0140845
0.0129613
0.0118752
0.0108267
0.00981608
0.00884304
0.00790709
0.00700753
0.00614347
0.00531392
0.00451777
0.00375387
0.00302089
0.00231747
0.00164387
0.000998105
0.000340751
0.000158437
0.000496806
0.000859725
0.00123737
0.00163122
0.00204248
0.00247226
0.00292167
0.00339188
0.0038841
0.00439963
0.00493978
0.00550589
0.00609932
0.00672132
0.00737304
0.00805539
0.00876901
0.00951419
0.0102908
0.0110982
0.0119364
0.0128066
0.0137134
0.0146655
0.0156708
0.0167334
0.0178531
0.0190267
0.0202494
0.0216257
0.0231145
0.0245847
0.0260397
0.0274793
0.028898
0.0302876
0.0316395
0.0329456
0.0341992
0.0353938
0.0365239
0.0375844
0.0385712
0.039481
0.0403117
0.041063
0.0417362
0.0423353
0.0428666
0.0433394
0.0437631
0.044144
0.0444839
0.0447779
0.0450147
0.0451784
0.0452493
0.0452062
0.0450291
0.0447011
0.044213
0.043566
0.0427711
0.0418728
0.0408818
0.0398356
0.038685
0.0373619
0.0358757
0.0343607
0.0329202
0.0314454
0.0299491
0.0284421
0.0269347
0.0254355
0.0239522
0.022491
0.0210569
0.0196541
0.018286
0.0169553
0.0156641
0.0144138
0.0132054
0.0120391
0.0109151
0.00983294
0.00879198
0.00779142
0.00683032
0.00590758
0.00502204
0.0041724
0.00335721
0.00257494
0.00182586
0.00110777
0.000376878
0.000173965
0.00054606
0.000945081
0.00136027
0.00179321
0.00224522
0.00271744
0.00321106
0.00372732
0.00426751
0.00483293
0.00542492
0.00604487
0.00669415
0.00737408
0.0080859
0.00883062
0.009609
0.0104214
0.0112678
0.0121476
0.0130609
0.0140092
0.0149977
0.0160353
0.0171308
0.0182888
0.0195089
0.0207879
0.022121
0.0236223
0.0252486
0.0268563
0.0284497
0.0300282
0.0315863
0.0331155
0.034607
0.0360531
0.0374467
0.0387816
0.0400522
0.0412534
0.042381
0.0434314
0.0444019
0.0452912
0.0460995
0.0468283
0.0474814
0.0480646
0.0485844
0.0490446
0.0494452
0.0497811
0.0500415
0.0502123
0.0502761
0.0502146
0.0500101
0.0496484
0.0491212
0.0484301
0.0475836
0.0466192
0.0455448
0.0443785
0.0430689
0.0415576
0.0398556
0.0381293
0.0364954
0.0348304
0.0331485
0.0314608
0.0297775
0.0281075
0.0264584
0.0248362
0.0232464
0.021693
0.0201796
0.0187087
0.0172824
0.015902
0.0145683
0.0132814
0.0120412
0.0108471
0.00969853
0.00859449
0.00753395
0.00651576
0.00553861
0.00460111
0.00370164
0.00283849
0.00201193
0.00121955
0.000413133
0.00018918
0.000594429
0.00102891
0.00148095
0.00195228
0.00244428
0.0029582
0.00349534
0.00405704
0.00464464
0.00525951
0.00590304
0.00657664
0.00728173
0.00801968
0.00879182
0.00959926
0.0104429
0.011323
0.0122398
0.0131926
0.0141815
0.0152083
0.0162787
0.0174022
0.0185883
0.019842
0.0211632
0.0225487
0.0239933
0.0256212
0.0273864
0.0291333
0.0308665
0.0325858
0.0342854
0.0359564
0.0375901
0.0391785
0.0407145
0.0421921
0.0436055
0.0449495
0.0462196
0.0474117
0.0485226
0.0495499
0.0504921
0.0513492
0.0521222
0.0528141
0.0534291
0.0539693
0.0544333
0.0548156
0.055106
0.0552914
0.0553559
0.055283
0.055057
0.0546651
0.0540994
0.0533611
0.052457
0.051419
0.050254
0.0489671
0.0475042
0.045812
0.0439015
0.0419687
0.0401437
0.0382892
0.0364209
0.0345506
0.032689
0.0308451
0.0290269
0.0272405
0.0254915
0.0237842
0.022122
0.0205076
0.0189428
0.0174289
0.0159664
0.0145555
0.0131959
0.0118869
0.0106278
0.00941752
0.008255
0.00713892
0.00606787
0.00504028
0.00405436
0.00310821
0.0022021
0.00133341
0.000449383
0.000204186
0.000642131
0.00111156
0.0015999
0.00210902
0.00264046
0.00319556
0.00377571
0.00438234
0.00501689
0.00568081
0.00637557
0.0071026
0.00786339
0.00865938
0.00949194
0.0103623
0.0112714
0.0122196
0.0132071
0.0142332
0.015298
0.0164036
0.0175562
0.0187659
0.020043
0.0213931
0.0228163
0.0243092
0.0258666
0.0276224
0.0295279
0.0314155
0.0332902
0.0351522
0.0369953
0.0388104
0.0405886
0.0423217
0.0440028
0.0456255
0.0471841
0.0486731
0.0500876
0.0514231
0.0526754
0.0538409
0.0549171
0.0559019
0.0567942
0.0575944
0.0583049
0.0589264
0.0594568
0.0598901
0.0602163
0.0604228
0.0604948
0.0604168
0.0601743
0.0597553
0.0591519
0.0583648
0.0573993
0.0562832
0.0550232
0.0536151
0.0520022
0.0501337
0.0480198
0.0458839
0.0438692
0.0418252
0.0397696
0.0377148
0.0356724
0.033652
0.0316615
0.0297079
0.0277964
0.0259318
0.0241173
0.0223556
0.0206486
0.0189973
0.0174023
0.0158636
0.0143809
0.0129536
0.0115808
0.0102613
0.00899409
0.00777754
0.00661012
0.00549008
0.00441542
0.00338406
0.00239626
0.0014492
0.000485438
0.000219061
0.00068928
0.0011932
0.00171737
0.00226387
0.00283433
0.0034302
0.00405295
0.0047041
0.00538518
0.00609774
0.00684332
0.00762349
0.00843978
0.00929372
0.0101868
0.0111201
0.0120949
0.0131114
0.0141697
0.0152693
0.0164103
0.0175949
0.01883
0.0201263
0.021495
0.0229422
0.0244681
0.0260694
0.0277406
0.0296256
0.0316729
0.0337027
0.0357206
0.0377269
0.0397155
0.0416769
0.0436019
0.0454824
0.0473112
0.0490818
0.0507882
0.0524246
0.0539858
0.0554663
0.0568614
0.0581663
0.059377
0.0604898
0.0615017
0.0624108
0.063218
0.0639231
0.0645233
0.0650121
0.0653795
0.0656131
0.0656986
0.0656211
0.0653667
0.0649236
0.0642837
0.063447
0.062418
0.0612212
0.0598634
0.0583338
0.0565728
0.0545312
0.0522171
0.0498799
0.0476763
0.0454425
0.0431981
0.040957
0.0387314
0.0365315
0.034366
0.0322418
0.0301647
0.0281391
0.0261686
0.0242558
0.0224024
0.0206096
0.0188779
0.0172075
0.0155979
0.0140486
0.0125587
0.011127
0.00975201
0.0084322
0.00716575
0.00595071
0.00478488
0.00366597
0.00259426
0.00156671
0.000521043
0.000233807
0.000735823
0.00127376
0.00183336
0.00241687
0.00302602
0.00366233
0.00432734
0.00502263
0.00574985
0.00651064
0.00730668
0.00813965
0.0090112
0.00992294
0.0108764
0.0118729
0.0129133
0.0139983
0.0151276
0.0163008
0.0175181
0.018782
0.0200998
0.0214831
0.0229438
0.0244887
0.0261183
0.0278289
0.029615
0.0316303
0.0338208
0.0359941
0.0381568
0.0403093
0.0424453
0.0445553
0.0466297
0.0486601
0.0506393
0.0525605
0.0544175
0.056204
0.0579141
0.0595419
0.0610815
0.0625272
0.0638735
0.0651153
0.0662478
0.0672674
0.0681734
0.0689651
0.0696388
0.0701876
0.0706014
0.0708677
0.0709723
0.0709006
0.0706385
0.0701744
0.0694996
0.0686134
0.0675197
0.0662407
0.0647835
0.0631322
0.061225
0.059012
0.0564999
0.0539625
0.0515698
0.0491454
0.0467107
0.044281
0.0418696
0.0394876
0.0371439
0.0348459
0.0325996
0.0304094
0.0282789
0.0262108
0.0242068
0.0222681
0.0203955
0.0185892
0.0168488
0.0151738
0.0135632
0.0120158
0.0105299
0.00910382
0.00773544
0.00642263
0.00516298
0.00395402
0.00279601
0.0016857
0.000555915
0.000248412
0.000781767
0.00135327
0.00194789
0.00256803
0.00321551
0.00389191
0.00459882
0.00533792
0.00611093
0.00691963
0.00776582
0.0086513
0.00957787
0.0105472
0.011561
0.0126205
0.0137267
0.0148801
0.0160805
0.0173274
0.0186211
0.0199643
0.0213651
0.0228358
0.0243891
0.0260324
0.0277663
0.0295872
0.031489
0.0336357
0.0359707
0.0382891
0.0405981
0.0428986
0.0451841
0.0474449
0.0496711
0.0518543
0.0539867
0.0560614
0.0580717
0.060011
0.0618727
0.0636501
0.0653363
0.0669247
0.0684084
0.0697809
0.0710358
0.072168
0.0731756
0.0740573
0.0748087
0.0754224
0.0758877
0.076192
0.0763209
0.0762596
0.0759939
0.0755119
0.0748042
0.0738693
0.0727108
0.0713492
0.0697917
0.0680189
0.0659665
0.0635835
0.0608748
0.0581376
0.0555554
0.0529391
0.0503123
0.0476917
0.0450918
0.0425245
0.0399993
0.0375239
0.0351045
0.0327456
0.0304509
0.028223
0.026064
0.0239752
0.0219574
0.020011
0.0181359
0.0163314
0.0145965
0.0129298
0.0113295
0.00979375
0.00832023
0.0069066
0.00555024
0.00424848
0.00300158
0.00180608
0.000589789
0.000262897
0.000827258
0.00143198
0.00206125
0.00271762
0.00340301
0.00411908
0.00486751
0.00565006
0.00646856
0.00732489
0.00822096
0.00915872
0.0101401
0.0111669
0.0122408
0.0133631
0.0145349
0.0157566
0.017028
0.0183486
0.0197187
0.0211415
0.0226255
0.0241839
0.0258303
0.0275726
0.0294116
0.0313434
0.0333619
0.0356411
0.0381217
0.0405865
0.0430434
0.0454937
0.0479309
0.0503449
0.0527256
0.0550642
0.0573528
0.0595839
0.0617505
0.0638455
0.0658615
0.0677911
0.0696265
0.0713599
0.0729833
0.0744889
0.0758687
0.0771164
0.078229
0.0792046
0.0800381
0.0807213
0.0812431
0.0815906
0.0817488
0.0817026
0.0814374
0.0809407
0.0802025
0.0792203
0.0779976
0.0765536
0.0748958
0.0730019
0.0708054
0.0682534
0.065349
0.0624119
0.0596395
0.05683
0.054009
0.051195
0.0484035
0.0456474
0.0429369
0.0402801
0.0376832
0.0351511
0.0326875
0.0302954
0.0279769
0.0257335
0.0235663
0.0214758
0.0194619
0.0175239
0.0156608
0.013871
0.0121527
0.0105036
0.00892145
0.00740366
0.00594742
0.00454986
0.00321125
0.00192785
0.00062244
0.000277273
0.000872423
0.00151009
0.00217368
0.0028659
0.0035888
0.00434412
0.00513367
0.00595931
0.00682298
0.00772666
0.00867239
0.0096622
0.0106981
0.0117821
0.0129158
0.0141007
0.0153379
0.0166277
0.0179699
0.0193641
0.0208106
0.022313
0.0238804
0.0255269
0.0272668
0.0291086
0.0310534
0.033097
0.0352328
0.0376454
0.0402728
0.0428854
0.0454918
0.0480939
0.050685
0.0532546
0.0557925
0.0582894
0.0607371
0.0631277
0.0654536
0.0677071
0.0698804
0.0719651
0.0739526
0.0758339
0.0776
0.0792417
0.0807496
0.0821162
0.0833375
0.0844111
0.0853312
0.0860888
0.0866723
0.0870679
0.0872603
0.0872338
0.0869732
0.0864653
0.0856994
0.084672
0.0833865
0.081861
0.0801035
0.0780893
0.0757495
0.0730292
0.0699297
0.0667927
0.0638294
0.0608252
0.0578078
0.0547974
0.0518109
0.0488622
0.045962
0.0431189
0.0403397
0.0376294
0.0349921
0.032431
0.0299483
0.027546
0.0252252
0.0229864
0.0208295
0.018754
0.0167586
0.0148417
0.0130012
0.011235
0.00954051
0.00791497
0.00635544
0.00485884
0.00342541
0.00205116
0.000653666
0.000291509
0.000917224
0.00158757
0.00228517
0.0030129
0.00377294
0.00456715
0.00539746
0.00626586
0.00717439
0.00812514
0.00912024
0.0101618
0.0112521
0.0123929
0.0135861
0.0148333
0.0161355
0.0174931
0.0189059
0.0203734
0.0218962
0.0234783
0.0251293
0.0268642
0.0286981
0.0306399
0.0326909
0.0348468
0.0371007
0.0396475
0.0424229
0.0451846
0.0479422
0.050698
0.0534452
0.0561731
0.058871
0.0615291
0.0641388
0.066692
0.0691803
0.0715956
0.0739293
0.0761724
0.0783152
0.0803479
0.0822601
0.0840416
0.0856814
0.0871707
0.0885047
0.0896806
0.0906919
0.0915288
0.092179
0.0926278
0.0928594
0.0928574
0.0926057
0.0920905
0.0913001
0.0902301
0.0888837
0.0872782
0.0854221
0.0832884
0.0808063
0.0779187
0.0746247
0.0712875
0.0681325
0.0649317
0.0617155
0.0585056
0.0553203
0.0521744
0.0490796
0.0460452
0.0430783
0.0401845
0.0373684
0.0346332
0.0319817
0.0294159
0.0269369
0.0245454
0.0222413
0.0200239
0.0178919
0.0158436
0.0138769
0.0119895
0.0101787
0.00844168
0.00677522
0.0051761
0.00364448
0.00217613
0.000683238
0.000305557
0.000961543
0.00166425
0.00239554
0.00315847
0.00395532
0.0047881
0.00565886
0.0065697
0.00752277
0.00852028
0.00956446
0.0106575
0.0118017
0.0129991
0.0142515
0.0155606
0.0169274
0.0183525
0.0198356
0.0213762
0.0229753
0.024637
0.0263718
0.0281953
0.0301233
0.0321655
0.0343232
0.0365919
0.0389645
0.0416463
0.0445708
0.047483
0.0503936
0.0533051
0.0562108
0.0590995
0.06196
0.0647823
0.0675572
0.0702759
0.0729299
0.0755103
0.0780079
0.0804128
0.0827148
0.0849026
0.0869652
0.0888907
0.0906666
0.0922828
0.0937338
0.0950165
0.0961237
0.0970449
0.0977668
0.098274
0.09855
0.0985773
0.0983393
0.0978209
0.0970097
0.0959003
0.0944954
0.092812
0.0908586
0.0886067
0.0859833
0.0829291
0.0794411
0.0759035
0.0725557
0.0691567
0.0657389
0.0623259
0.0589376
0.0555897
0.052295
0.0490637
0.0459035
0.0428208
0.0398203
0.0369059
0.0340806
0.0313463
0.0287044
0.0261555
0.0236995
0.0213356
0.0190625
0.0168784
0.0147812
0.0127684
0.0108372
0.00898474
0.00720754
0.00550215
0.00386872
0.00230275
0.000710843
0.000319407
0.00100533
0.00174006
0.00250472
0.00330251
0.00413588
0.00500692
0.00591781
0.00687075
0.00786803
0.00891195
0.0100048
0.011149
0.0123468
0.0136002
0.0149115
0.0162821
0.0177132
0.0192054
0.0207585
0.0223721
0.0240472
0.0257886
0.0276072
0.0295195
0.0315419
0.0336847
0.0359493
0.0383312
0.040823
0.0436407
0.0467154
0.0497796
0.0528449
0.0559142
0.0589807
0.0620327
0.0650587
0.068048
0.070991
0.0738786
0.0767016
0.0794506
0.0821157
0.0846865
0.0871516
0.089499
0.0917164
0.0937907
0.0957076
0.0974551
0.0990276
0.100422
0.10163
0.10264
0.103439
0.10401
0.104336
0.104398
0.104178
0.103661
0.102833
0.101688
0.100228
0.0984686
0.0964196
0.0940509
0.0912873
0.0880673
0.0843856
0.0806473
0.0771054
0.073506
0.0698837
0.0662639
0.0626679
0.0591131
0.0556132
0.0521793
0.0488203
0.0455428
0.0423524
0.0392533
0.0362486
0.0333406
0.0305306
0.0278192
0.0252062
0.0226909
0.0202719
0.0179474
0.0157152
0.0135727
0.0115169
0.00954483
0.00765282
0.00583719
0.00409811
0.0024308
0.000736036
0.000333093
0.00104865
0.00181507
0.00261277
0.00344511
0.00431466
0.00522364
0.0061743
0.00716899
0.00821009
0.00930001
0.0104412
0.011636
0.0128869
0.014196
0.0155656
0.0169973
0.0184923
0.0200512
0.021674
0.0233604
0.0251115
0.0269326
0.028835
0.030836
0.0329529
0.0351964
0.0375681
0.0400635
0.042675
0.0456293
0.0488553
0.052073
0.0552948
0.058524
0.0617536
0.0649716
0.0681657
0.0713249
0.0744392
0.0774988
0.0804943
0.0834156
0.0862523
0.0889931
0.0916259
0.0941376
0.0965146
0.098743
0.100806
0.10269
0.104388
0.105898
0.107212
0.108317
0.109199
0.109839
0.11022
0.110322
0.110126
0.109616
0.108776
0.107599
0.106086
0.104254
0.102111
0.0996271
0.0967246
0.0933395
0.0894644
0.0855246
0.0817873
0.077985
0.074155
0.0703244
0.0665164
0.0627496
0.0590392
0.0553973
0.0518336
0.0483557
0.0449696
0.0416799
0.03849
0.0354023
0.0324184
0.0295389
0.0267635
0.0240916
0.0215217
0.019052
0.0166801
0.0144032
0.0122184
0.0101223
0.00811113
0.00618108
0.0043323
0.00255978
0.000758232
0.000346654
0.00109156
0.00188938
0.0027198
0.00358637
0.00449176
0.00543831
0.00642837
0.0074644
0.00854889
0.00968434
0.0108733
0.0121183
0.0134217
0.0147861
0.0162135
0.0177058
0.0192643
0.0208897
0.0225819
0.0243408
0.0261677
0.0280682
0.0300544
0.032144
0.0343553
0.0366994
0.0391784
0.0417875
0.0445191
0.0476108
0.0509895
0.0543622
0.0577422
0.0611334
0.0645283
0.0679147
0.0712796
0.0746116
0.0779002
0.0811353
0.0843069
0.0874045
0.0904169
0.0933323
0.0961375
0.0988185
0.101361
0.103748
0.105963
0.107988
0.109818
0.111449
0.112874
0.114079
0.115048
0.115764
0.116206
0.116354
0.116188
0.115689
0.114842
0.113637
0.112075
0.110173
0.107939
0.105341
0.102301
0.0987512
0.0946827
0.0905406
0.0866061
0.0825985
0.0785574
0.0745123
0.0704878
0.0665043
0.0625783
0.058723
0.054949
0.0512648
0.0476768
0.0441902
0.0408087
0.0375352
0.0343711
0.0313174
0.0283739
0.0255399
0.0228138
0.0201936
0.0176769
0.0152607
0.012942
0.0107171
0.00858225
0.00653339
0.00457073
0.00268905
0.000776747
0.0003601
0.00113409
0.00196301
0.00282584
0.00372631
0.00466719
0.00565093
0.00667999
0.00775692
0.00888432
0.0100648
0.011301
0.0125956
0.0139511
0.0153701
0.0168548
0.0184072
0.0200288
0.0217202
0.0234815
0.0253126
0.0272151
0.0291948
0.0312644
0.0334425
0.0357479
0.0381926
0.0407788
0.0435018
0.0463541
0.0495839
0.0531163
0.0566454
0.0601855
0.0637405
0.0673031
0.0708602
0.0743986
0.0779063
0.0813724
0.0847865
0.0881381
0.091416
0.0946087
0.0977034
0.100686
0.103542
0.106254
0.108807
0.111179
0.113351
0.115317
0.117075
0.118616
0.119926
0.12099
0.121786
0.122296
0.122496
0.122365
0.121884
0.121034
0.119806
0.118199
0.11623
0.113907
0.111197
0.108021
0.104307
0.100045
0.0957
0.0915666
0.0873512
0.083096
0.0788326
0.0745875
0.0703828
0.0662362
0.0621622
0.0581722
0.0542754
0.0504791
0.0467889
0.0432091
0.0397429
0.0363922
0.033158
0.0300402
0.027038
0.0241499
0.0213736
0.0187066
0.0161458
0.0136879
0.0113293
0.00906592
0.00689371
0.00481289
0.00281799
0.000790864
0.000373418
0.0011762
0.00203592
0.00293085
0.00386486
0.00484087
0.00586139
0.00692901
0.00804637
0.00921618
0.0104412
0.0117241
0.0130677
0.0144747
0.0159477
0.0174892
0.0191012
0.0207853
0.0225424
0.0243724
0.0262753
0.0282529
0.0303114
0.0324641
0.0347303
0.0371296
0.0396746
0.0423679
0.045205
0.0481783
0.051547
0.0552341
0.0589211
0.0626229
0.0663437
0.070076
0.0738062
0.0775207
0.0812071
0.084854
0.0884507
0.0919862
0.0954489
0.0988264
0.102105
0.105271
0.108306
0.111195
0.113919
0.116455
0.118779
0.120886
0.122776
0.124439
0.125861
0.127025
0.127909
0.128492
0.12875
0.128661
0.128203
0.127356
0.126109
0.124462
0.12243
0.12002
0.117201
0.113889
0.110013
0.105557
0.101008
0.0966737
0.0922484
0.0877762
0.0832912
0.0788217
0.0743914
0.0700192
0.0657209
0.0615088
0.0573929
0.0533815
0.0494807
0.0456956
0.0420298
0.0384856
0.0350641
0.0317654
0.0285886
0.0255321
0.0225935
0.0197702
0.017059
0.0144564
0.0119588
0.00956213
0.00726195
0.00505854
0.00294614
0.000799872
0.000386584
0.00121786
0.00210805
0.00303472
0.00400191
0.00501263
0.00606951
0.00717521
0.0083325
0.00954418
0.0108131
0.0121421
0.0135341
0.014992
0.0165185
0.0181162
0.0197873
0.0215335
0.0233556
0.0252538
0.0272281
0.0292803
0.0314171
0.0336523
0.0360061
0.0384988
0.0411439
0.0439444
0.0468956
0.0499902
0.0534985
0.0573413
0.0611873
0.0650523
0.0689406
0.0728447
0.0767505
0.0806438
0.0845118
0.0883429
0.0921259
0.0958494
0.0995012
0.103068
0.106536
0.10989
0.113111
0.116182
0.119084
0.121789
0.124272
0.126526
0.128552
0.130343
0.131883
0.133153
0.134131
0.134794
0.135117
0.135076
0.134647
0.133809
0.132549
0.130866
0.128774
0.126281
0.123354
0.119909
0.115871
0.111223
0.106468
0.101933
0.0972959
0.0926044
0.0878947
0.083197
0.0785364
0.0739335
0.0694049
0.0649642
0.0606226
0.0563889
0.0522705
0.048273
0.0444004
0.0406555
0.0370396
0.0335529
0.0301944
0.0269625
0.0238549
0.0208688
0.0180011
0.0152482
0.0126065
0.0100714
0.00763836
0.00530765
0.00307314
0.000803026
0.000399568
0.001259
0.0021793
0.00313734
0.0041373
0.0051823
0.00627506
0.00741834
0.00861501
0.00986798
0.0111802
0.0125547
0.0139945
0.0155026
0.017082
0.0187353
0.0204649
0.0222726
0.0241593
0.0261251
0.0281701
0.0302963
0.0325108
0.0348279
0.0372687
0.0398544
0.0425992
0.0455065
0.0485721
0.0517882
0.0554364
0.0594358
0.0634419
0.0674714
0.071529
0.0756068
0.0796905
0.0837653
0.087818
0.0918368
0.0958099
0.0997255
0.103571
0.107332
0.110995
0.114541
0.117954
0.121214
0.124299
0.12718
0.129827
0.132234
0.134403
0.136328
0.137992
0.139375
0.140453
0.141203
0.141598
0.141612
0.141218
0.140395
0.139127
0.137413
0.135266
0.132694
0.129662
0.126086
0.121887
0.117047
0.112088
0.10735
0.1025
0.0975871
0.0926497
0.0877199
0.0828243
0.077985
0.0732199
0.068544
0.0639696
0.0595067
0.0551634
0.0509461
0.0468594
0.0429063
0.0390884
0.0354058
0.031858
0.0284432
0.0251595
0.022004
0.0189736
0.0160646
0.0132731
0.0105943
0.00802326
0.00556013
0.00319851
0.000799438
0.000412345
0.00129958
0.0022496
0.00323859
0.00427088
0.00534968
0.00647779
0.0076581
0.00889355
0.0101872
0.0115421
0.0129614
0.0144483
0.016006
0.0176376
0.0193459
0.0211334
0.023002
0.0249526
0.0269853
0.0291003
0.0312998
0.0335911
0.0359895
0.0385166
0.0411948
0.0440389
0.047053
0.0502327
0.0535705
0.0573589
0.0615154
0.0656825
0.0698777
0.0741061
0.0783596
0.0826235
0.0868825
0.0911231
0.0953329
0.0994999
0.103612
0.107655
0.111616
0.115478
0.119223
0.122833
0.126288
0.129563
0.132626
0.135444
0.138008
0.140327
0.142392