/*--------------------------------*- C++ -*----------------------------------*\
  =========                 |
  \\      /  F ield         | OpenFOAM: The Open Source CFD Toolbox
   \\    /   O peration     | Website:  https://openfoam.org
    \\  /    A nd           | Version:  9
     \\/     M anipulation  |
\*---------------------------------------------------------------------------*/
FoamFile
{
    format      ascii;
    class       surfaceScalarField;
    location    "0.1";
    object      phi;
}
// * * * * * * * * * * * * * * * * * * * * * * * * * * * * * * * * * * * * * //

dimensions      [0 3 -1 0 0 0 0];

internalField   nonuniform List<scalar> 
39700
(
-7.43198e-07
1.77488e-06
-7.43218e-07
1.86984e-06
-7.43214e-07
1.96953e-06
-7.43203e-07
2.07417e-06
-7.43194e-07
2.18394e-06
-7.43191e-07
2.29903e-06
-7.43196e-07
2.41965e-06
-7.43211e-07
2.54601e-06
-7.43237e-07
2.67831e-06
-7.43274e-07
2.81674e-06
-7.43322e-07
2.96146e-06
-7.43382e-07
3.11258e-06
-7.43455e-07
3.27014e-06
-7.43539e-07
3.43411e-06
-7.43635e-07
3.6043e-06
-7.43738e-07
3.78032e-06
-7.4384e-07
3.96143e-06
-7.43922e-07
4.14638e-06
-7.43952e-07
4.33332e-06
-7.43898e-07
4.52021e-06
-7.4376e-07
4.70647e-06
-7.43609e-07
4.89645e-06
-7.43539e-07
5.10271e-06
-7.43539e-07
5.34253e-06
-7.43528e-07
5.62482e-06
-7.43516e-07
5.9401e-06
-7.43555e-07
6.26796e-06
-7.43631e-07
6.5921e-06
-7.43683e-07
6.90592e-06
-7.43666e-07
7.21058e-06
-7.43605e-07
8.76247e-06
-7.43576e-07
8.70457e-06
-7.4358e-07
8.67795e-06
-7.43582e-07
8.67807e-06
-7.43576e-07
8.68342e-06
-7.43564e-07
8.67759e-06
-7.43543e-07
8.65676e-06
-7.43512e-07
8.62398e-06
-7.4347e-07
8.58347e-06
-7.43419e-07
8.5381e-06
-7.43364e-07
8.48972e-06
-7.43304e-07
8.43944e-06
-7.43236e-07
8.38776e-06
-7.43155e-07
8.33439e-06
-7.43052e-07
8.27828e-06
-7.42917e-07
8.21766e-06
-7.42747e-07
8.15031e-06
-7.4256e-07
8.07439e-06
-7.42416e-07
7.99024e-06
-7.42416e-07
7.90296e-06
-7.42636e-07
7.82359e-06
-7.43047e-07
7.76572e-06
-7.43516e-07
7.73845e-06
-7.43923e-07
7.74203e-06
-7.44211e-07
7.77091e-06
-7.44378e-07
7.81904e-06
-7.44423e-07
7.88149e-06
-7.4435e-07
7.95248e-06
-7.44186e-07
8.02466e-06
-7.43948e-07
8.09034e-06
-7.43599e-07
8.14112e-06
-7.43017e-07
8.1626e-06
-7.4193e-07
8.1252e-06
-7.40414e-07
7.98297e-06
-7.405e-07
7.72663e-06
-7.44286e-07
7.5061e-06
-7.47359e-07
7.57415e-06
-7.46611e-07
7.89771e-06
-7.45013e-07
8.21038e-06
-7.44116e-07
8.39944e-06
-7.43771e-07
6.93598e-06
-7.43617e-07
6.64507e-06
-7.43539e-07
6.35406e-06
-7.43494e-07
6.07027e-06
-7.43465e-07
5.79636e-06
-7.43446e-07
5.53344e-06
-7.43432e-07
5.28202e-06
-7.43422e-07
5.04218e-06
-7.43415e-07
4.81368e-06
-7.43408e-07
4.59599e-06
-7.43403e-07
4.38841e-06
-7.43399e-07
4.19016e-06
-7.43396e-07
4.00054e-06
-7.43395e-07
3.81895e-06
-7.43396e-07
3.64488e-06
-7.43399e-07
3.47795e-06
-7.43403e-07
3.31785e-06
-7.43407e-07
3.16432e-06
-7.43411e-07
3.01716e-06
-7.43415e-07
2.87616e-06
-7.43417e-07
2.74114e-06
-7.43416e-07
2.61195e-06
-7.43414e-07
2.48841e-06
-7.4341e-07
2.37037e-06
-7.43403e-07
2.25768e-06
-7.43393e-07
2.15016e-06
-7.43382e-07
2.04765e-06
-7.43368e-07
1.94997e-06
-7.43358e-07
1.85693e-06
1.7682e-06
-7.42949e-07
1.77502e-06
-7.42979e-07
1.86987e-06
-7.42972e-07
1.96952e-06
-7.42955e-07
2.07415e-06
-7.42943e-07
2.18393e-06
-7.42944e-07
2.29903e-06
-7.42962e-07
2.41967e-06
-7.43002e-07
2.54605e-06
-7.43066e-07
2.67837e-06
-7.43154e-07
2.81683e-06
-7.43269e-07
2.96157e-06
-7.43409e-07
3.11272e-06
-7.43576e-07
3.27031e-06
-7.43767e-07
3.4343e-06
-7.43976e-07
3.60451e-06
-7.44191e-07
3.78054e-06
-7.44386e-07
3.96163e-06
-7.44518e-07
4.14651e-06
-7.44531e-07
4.33334e-06
-7.44383e-07
4.52007e-06
-7.44115e-07
4.7062e-06
-7.43884e-07
4.89622e-06
-7.43843e-07
5.10267e-06
-7.4393e-07
5.34262e-06
-7.43949e-07
5.62484e-06
-7.43885e-07
5.94003e-06
-7.43877e-07
6.26795e-06
-7.43953e-07
6.59217e-06
-7.44014e-07
6.90598e-06
-7.43981e-07
7.21055e-06
-7.43894e-07
8.76238e-06
-7.43879e-07
8.70456e-06
-7.43901e-07
8.67797e-06
-7.43884e-07
8.67806e-06
-7.43838e-07
8.68337e-06
-7.43784e-07
8.67754e-06
-7.43715e-07
8.65669e-06
-7.43628e-07
8.62389e-06
-7.43514e-07
8.58335e-06
-7.43378e-07
8.53797e-06
-7.43225e-07
8.48956e-06
-7.43056e-07
8.43927e-06
-7.42864e-07
8.38756e-06
-7.42637e-07
8.33416e-06
-7.42358e-07
8.278e-06
-7.42013e-07
8.21732e-06
-7.41609e-07
8.14991e-06
-7.41202e-07
8.07398e-06
-7.40932e-07
7.98997e-06
-7.40997e-07
7.90303e-06
-7.41534e-07
7.82412e-06
-7.42467e-07
7.76665e-06
-7.43533e-07
7.73952e-06
-7.44477e-07
7.74298e-06
-7.45169e-07
7.7716e-06
-7.45577e-07
7.81945e-06
-7.45685e-07
7.8816e-06
-7.45502e-07
7.95229e-06
-7.45071e-07
8.02422e-06
-7.44417e-07
8.08968e-06
-7.43462e-07
8.14017e-06
-7.41983e-07
8.16112e-06
-7.39629e-07
8.12284e-06
-7.37058e-07
7.9804e-06
-7.37923e-07
7.72749e-06
-7.44982e-07
7.51316e-06
-7.50911e-07
7.58007e-06
-7.5025e-07
7.89705e-06
-7.47311e-07
8.20744e-06
-7.45236e-07
8.39736e-06
-7.44302e-07
6.93505e-06
-7.4381e-07
6.64458e-06
-7.43532e-07
6.35378e-06
-7.43354e-07
6.0701e-06
-7.43236e-07
5.79624e-06
-7.43154e-07
5.53336e-06
-7.43096e-07
5.28196e-06
-7.43056e-07
5.04214e-06
-7.43027e-07
4.81365e-06
-7.4299e-07
4.59595e-06
-7.42974e-07
4.38839e-06
-7.42959e-07
4.19014e-06
-7.42947e-07
4.00053e-06
-7.42939e-07
3.81894e-06
-7.42935e-07
3.64488e-06
-7.42934e-07
3.47795e-06
-7.42936e-07
3.31785e-06
-7.42938e-07
3.16433e-06
-7.4294e-07
3.01716e-06
-7.42941e-07
2.87616e-06
-7.42938e-07
2.74114e-06
-7.42932e-07
2.61194e-06
-7.42922e-07
2.4884e-06
-7.4291e-07
2.37036e-06
-7.42894e-07
2.25766e-06
-7.42876e-07
2.15015e-06
-7.42856e-07
2.04763e-06
-7.42838e-07
1.94995e-06
-7.42832e-07
1.85692e-06
1.76822e-06
-7.43088e-07
1.77504e-06
-7.43062e-07
1.86985e-06
-7.43011e-07
1.96947e-06
-7.4296e-07
2.0741e-06
-7.42926e-07
2.18389e-06
-7.42917e-07
2.29902e-06
-7.42937e-07
2.41969e-06
-7.4299e-07
2.5461e-06
-7.43077e-07
2.67846e-06
-7.43199e-07
2.81695e-06
-7.43357e-07
2.96173e-06
-7.43551e-07
3.11291e-06
-7.43779e-07
3.27054e-06
-7.44037e-07
3.43456e-06
-7.44315e-07
3.60479e-06
-7.44594e-07
3.78082e-06
-7.44842e-07
3.96188e-06
-7.45009e-07
4.14668e-06
-7.45035e-07
4.33336e-06
-7.44888e-07
4.51992e-06
-7.44625e-07
4.70594e-06
-7.44421e-07
4.89602e-06
-7.44418e-07
5.10267e-06
-7.4451e-07
5.34271e-06
-7.44478e-07
5.62481e-06
-7.44336e-07
5.93989e-06
-7.44271e-07
6.26789e-06
-7.44332e-07
6.59223e-06
-7.44406e-07
6.90605e-06
-7.44396e-07
7.21054e-06
-7.44328e-07
8.76231e-06
-7.44325e-07
8.70455e-06
-7.44334e-07
8.67798e-06
-7.44279e-07
8.678e-06
-7.44184e-07
8.68328e-06
-7.44084e-07
8.67744e-06
-7.43973e-07
8.65658e-06
-7.43844e-07
8.62376e-06
-7.43662e-07
8.58317e-06
-7.43448e-07
8.53775e-06
-7.43207e-07
8.48932e-06
-7.42935e-07
8.439e-06
-7.42627e-07
8.38726e-06
-7.42267e-07
8.3338e-06
-7.41836e-07
8.27757e-06
-7.41325e-07
8.21681e-06
-7.40755e-07
8.14934e-06
-7.40219e-07
8.07345e-06
-7.39905e-07
7.98966e-06
-7.40063e-07
7.90319e-06
-7.40843e-07
7.8249e-06
-7.42135e-07
7.76794e-06
-7.43601e-07
7.74098e-06
-7.4491e-07
7.74428e-06
-7.45881e-07
7.77257e-06
-7.4645e-07
7.82001e-06
-7.46585e-07
7.88173e-06
-7.46291e-07
7.952e-06
-7.45617e-07
8.02355e-06
-7.44592e-07
8.08866e-06
-7.4313e-07
8.1387e-06
-7.4098e-07
8.15897e-06
-7.37923e-07
8.11978e-06
-7.35083e-07
7.97756e-06
-7.36782e-07
7.72919e-06
-7.45582e-07
7.52196e-06
-7.52846e-07
7.58734e-06
-7.523e-07
7.89651e-06
-7.48736e-07
8.20388e-06
-7.45979e-07
8.39461e-06
-7.44635e-07
6.93371e-06
-7.43861e-07
6.64381e-06
-7.43385e-07
6.3533e-06
-7.43071e-07
6.06978e-06
-7.42854e-07
5.79603e-06
-7.42699e-07
5.53321e-06
-7.42584e-07
5.28184e-06
-7.42498e-07
5.04205e-06
-7.42431e-07
4.81358e-06
-7.42388e-07
4.59591e-06
-7.42339e-07
4.38834e-06
-7.42299e-07
4.1901e-06
-7.42268e-07
4.0005e-06
-7.42243e-07
3.81892e-06
-7.42226e-07
3.64486e-06
-7.42214e-07
3.47794e-06
-7.42207e-07
3.31785e-06
-7.42202e-07
3.16432e-06
-7.42198e-07
3.01716e-06
-7.42194e-07
2.87615e-06
-7.42188e-07
2.74113e-06
-7.4218e-07
2.61193e-06
-7.4217e-07
2.48839e-06
-7.42158e-07
2.37035e-06
-7.42146e-07
2.25765e-06
-7.42133e-07
2.15013e-06
-7.42122e-07
2.04762e-06
-7.42119e-07
1.94995e-06
-7.42132e-07
1.85693e-06
1.76824e-06
-7.43291e-07
1.77504e-06
-7.43255e-07
1.86981e-06
-7.43196e-07
1.96941e-06
-7.43136e-07
2.07404e-06
-7.43095e-07
2.18385e-06
-7.43083e-07
2.29901e-06
-7.43105e-07
2.41971e-06
-7.43167e-07
2.54616e-06
-7.43271e-07
2.67856e-06
-7.43418e-07
2.8171e-06
-7.43608e-07
2.96192e-06
-7.4384e-07
3.11315e-06
-7.44114e-07
3.27081e-06
-7.44422e-07
3.43487e-06
-7.44753e-07
3.60512e-06
-7.45085e-07
3.78115e-06
-7.45383e-07
3.96217e-06
-7.45592e-07
4.14689e-06
-7.4565e-07
4.33342e-06
-7.45523e-07
4.51979e-06
-7.45272e-07
4.70568e-06
-7.45072e-07
4.89582e-06
-7.45058e-07
5.10266e-06
-7.45121e-07
5.34278e-06
-7.45047e-07
5.62474e-06
-7.44866e-07
5.93971e-06
-7.44782e-07
6.2678e-06
-7.44849e-07
6.5923e-06
-7.44941e-07
6.90614e-06
-7.44945e-07
7.21054e-06
-7.44881e-07
8.76225e-06
-7.44868e-07
8.70454e-06
-7.44854e-07
8.67796e-06
-7.44766e-07
8.67792e-06
-7.44635e-07
8.68314e-06
-7.44498e-07
8.6773e-06
-7.44345e-07
8.65643e-06
-7.44168e-07
8.62359e-06
-7.43925e-07
8.58293e-06
-7.43638e-07
8.53747e-06
-7.43311e-07
8.489e-06
-7.42945e-07
8.43864e-06
-7.4253e-07
8.38684e-06
-7.4205e-07
8.33332e-06
-7.41489e-07
8.27701e-06
-7.40842e-07
8.21616e-06
-7.40147e-07
8.14864e-06
-7.39519e-07
8.07282e-06
-7.39181e-07
7.98932e-06
-7.39414e-07
7.90342e-06
-7.40374e-07
7.82586e-06
-7.41927e-07
7.76949e-06
-7.43682e-07
7.74274e-06
-7.45258e-07
7.74586e-06
-7.46431e-07
7.77374e-06
-7.47111e-07
7.82069e-06
-7.47253e-07
7.88187e-06
-7.46856e-07
7.9516e-06
-7.45973e-07
8.02267e-06
-7.44641e-07
8.08733e-06
-7.42779e-07
8.13684e-06
-7.40162e-07
8.15635e-06
-7.36667e-07
8.11629e-06
-7.33729e-07
7.97462e-06
-7.36012e-07
7.73147e-06
-7.45825e-07
7.53177e-06
-7.53916e-07
7.59543e-06
-7.53547e-07
7.89614e-06
-7.49615e-07
8.19995e-06
-7.46394e-07
8.39139e-06
-7.4474e-07
6.93205e-06
-7.43731e-07
6.6428e-06
-7.43076e-07
6.35265e-06
-7.42627e-07
6.06933e-06
-7.42306e-07
5.7957e-06
-7.4207e-07
5.53297e-06
-7.41892e-07
5.28166e-06
-7.41755e-07
5.04191e-06
-7.41649e-07
4.81347e-06
-7.41564e-07
4.59582e-06
-7.41487e-07
4.38826e-06
-7.41421e-07
4.19004e-06
-7.41367e-07
4.00044e-06
-7.41323e-07
3.81887e-06
-7.4129e-07
3.64483e-06
-7.41266e-07
3.47792e-06
-7.41249e-07
3.31783e-06
-7.41236e-07
3.16431e-06
-7.41227e-07
3.01715e-06
-7.41218e-07
2.87615e-06
-7.4121e-07
2.74113e-06
-7.412e-07
2.61192e-06
-7.41189e-07
2.48838e-06
-7.41178e-07
2.37034e-06
-7.41167e-07
2.25764e-06
-7.41156e-07
2.15012e-06
-7.41151e-07
2.04762e-06
-7.41154e-07
1.94995e-06
-7.41171e-07
1.85695e-06
1.76826e-06
-7.43598e-07
1.77503e-06
-7.43568e-07
1.86978e-06
-7.43522e-07
1.96937e-06
-7.43474e-07
2.07399e-06
-7.43441e-07
2.18382e-06
-7.43437e-07
2.29901e-06
-7.43468e-07
2.41975e-06
-7.43541e-07
2.54624e-06
-7.4366e-07
2.67868e-06
-7.43827e-07
2.81726e-06
-7.44042e-07
2.96214e-06
-7.44306e-07
3.11341e-06
-7.44615e-07
3.27112e-06
-7.44963e-07
3.43522e-06
-7.45337e-07
3.60549e-06
-7.45713e-07
3.78152e-06
-7.46052e-07
3.96251e-06
-7.46294e-07
4.14713e-06
-7.46374e-07
4.3335e-06
-7.46255e-07
4.51967e-06
-7.46e-07
4.70543e-06
-7.45784e-07
4.8956e-06
-7.45746e-07
5.10262e-06
-7.45788e-07
5.34282e-06
-7.45707e-07
5.62466e-06
-7.45526e-07
5.93953e-06
-7.45444e-07
6.26772e-06
-7.45517e-07
6.59237e-06
-7.45616e-07
6.90624e-06
-7.4562e-07
7.21054e-06
-7.45545e-07
8.76217e-06
-7.45512e-07
8.70451e-06
-7.45477e-07
8.67793e-06
-7.45366e-07
8.67781e-06
-7.45207e-07
8.68299e-06
-7.45037e-07
8.67713e-06
-7.44846e-07
8.65624e-06
-7.44612e-07
8.62335e-06
-7.44315e-07
8.58263e-06
-7.43958e-07
8.53711e-06
-7.43551e-07
8.48859e-06
-7.43096e-07
8.43818e-06
-7.42584e-07
8.38633e-06
-7.41998e-07
8.33274e-06
-7.41326e-07
8.27634e-06
-7.40569e-07
8.2154e-06
-7.39776e-07
8.14785e-06
-7.39081e-07
8.07212e-06
-7.38729e-07
7.98897e-06
-7.39016e-07
7.90371e-06
-7.40099e-07
7.82695e-06
-7.41823e-07
7.77122e-06
-7.43773e-07
7.74469e-06
-7.45529e-07
7.74762e-06
-7.4684e-07
7.77505e-06
-7.47592e-07
7.82144e-06
-7.47726e-07
7.88201e-06
-7.47239e-07
7.95112e-06
-7.46184e-07
8.02161e-06
-7.44607e-07
8.08575e-06
-7.42446e-07
8.13468e-06
-7.39502e-07
8.1534e-06
-7.3575e-07
8.11254e-06
-7.32831e-07
7.9717e-06
-7.35479e-07
7.73412e-06
-7.45685e-07
7.54197e-06
-7.54191e-07
7.60393e-06
-7.54118e-07
7.89607e-06
-7.50064e-07
8.19589e-06
-7.46521e-07
8.38784e-06
-7.4461e-07
6.93014e-06
-7.43393e-07
6.64158e-06
-7.42573e-07
6.35183e-06
-7.41992e-07
6.06875e-06
-7.41565e-07
5.79528e-06
-7.41243e-07
5.53265e-06
-7.40996e-07
5.28142e-06
-7.40802e-07
5.04172e-06
-7.40646e-07
4.81331e-06
-7.40515e-07
4.59569e-06
-7.40404e-07
4.38815e-06
-7.4031e-07
4.18994e-06
-7.40232e-07
4.00036e-06
-7.40168e-07
3.81881e-06
-7.40118e-07
3.64478e-06
-7.4008e-07
3.47788e-06
-7.40051e-07
3.3178e-06
-7.4003e-07
3.16429e-06
-7.40013e-07
3.01713e-06
-7.39998e-07
2.87613e-06
-7.39985e-07
2.74111e-06
-7.39971e-07
2.61191e-06
-7.39956e-07
2.48837e-06
-7.39942e-07
2.37033e-06
-7.39928e-07
2.25763e-06
-7.39916e-07
2.15011e-06
-7.39909e-07
2.04761e-06
-7.39913e-07
1.94995e-06
-7.39925e-07
1.85696e-06
1.76827e-06
-7.44087e-07
1.77502e-06
-7.44063e-07
1.86976e-06
-7.44027e-07
1.96933e-06
-7.43991e-07
2.07396e-06
-7.43968e-07
2.1838e-06
-7.43973e-07
2.29901e-06
-7.44014e-07
2.41979e-06
-7.44098e-07
2.54632e-06
-7.44231e-07
2.67881e-06
-7.44414e-07
2.81745e-06
-7.44649e-07
2.96238e-06
-7.44937e-07
3.1137e-06
-7.45273e-07
3.27146e-06
-7.45651e-07
3.43559e-06
-7.46057e-07
3.6059e-06
-7.46464e-07
3.78193e-06
-7.4683e-07
3.96288e-06
-7.47094e-07
4.1474e-06
-7.47186e-07
4.33359e-06
-7.47072e-07
4.51956e-06
-7.46816e-07
4.70517e-06
-7.46592e-07
4.89538e-06
-7.4654e-07
5.10256e-06
-7.46574e-07
5.34285e-06
-7.46497e-07
5.62458e-06
-7.46325e-07
5.93936e-06
-7.46246e-07
6.26764e-06
-7.46319e-07
6.59245e-06
-7.46416e-07
6.90634e-06
-7.46416e-07
7.21054e-06
-7.46329e-07
8.76209e-06
-7.46277e-07
8.70446e-06
-7.46222e-07
8.67787e-06
-7.4609e-07
8.67767e-06
-7.45907e-07
8.6828e-06
-7.45705e-07
8.67693e-06
-7.45475e-07
8.65601e-06
-7.45189e-07
8.62307e-06
-7.44836e-07
8.58228e-06
-7.44414e-07
8.53669e-06
-7.43934e-07
8.48811e-06
-7.43397e-07
8.43764e-06
-7.42795e-07
8.38573e-06
-7.42116e-07
8.33206e-06
-7.41348e-07
8.27557e-06
-7.405e-07
8.21456e-06
-7.39631e-07
8.14698e-06
-7.38888e-07
8.07138e-06
-7.3853e-07
7.98861e-06
-7.38853e-07
7.90403e-06
-7.4001e-07
7.82811e-06
-7.41834e-07
7.77304e-06
-7.43896e-07
7.74675e-06
-7.45758e-07
7.74948e-06
-7.47147e-07
7.77644e-06
-7.47931e-07
7.82223e-06
-7.48041e-07
7.88212e-06
-7.47468e-07
7.95054e-06
-7.46268e-07
8.02041e-06
-7.44494e-07
8.08397e-06
-7.42104e-07
8.13229e-06
-7.38936e-07
8.15024e-06
-7.35059e-07
8.10866e-06
-7.32242e-07
7.96889e-06
-7.35108e-07
7.73699e-06
-7.45313e-07
7.55218e-06
-7.539e-07
7.61252e-06
-7.54094e-07
7.89626e-06
-7.50061e-07
8.19186e-06
-7.4632e-07
8.3841e-06
-7.44208e-07
6.92803e-06
-7.42812e-07
6.64019e-06
-7.41841e-07
6.35086e-06
-7.41134e-07
6.06805e-06
-7.40602e-07
5.79475e-06
-7.40193e-07
5.53224e-06
-7.39872e-07
5.28109e-06
-7.39615e-07
5.04146e-06
-7.39403e-07
4.8131e-06
-7.39226e-07
4.59551e-06
-7.39076e-07
4.388e-06
-7.3895e-07
4.18981e-06
-7.38844e-07
4.00026e-06
-7.38757e-07
3.81872e-06
-7.38687e-07
3.64471e-06
-7.38633e-07
3.47782e-06
-7.3859e-07
3.31776e-06
-7.38557e-07
3.16426e-06
-7.38531e-07
3.0171e-06
-7.38508e-07
2.87611e-06
-7.38487e-07
2.74109e-06
-7.38467e-07
2.61189e-06
-7.38448e-07
2.48835e-06
-7.3843e-07
2.37031e-06
-7.38413e-07
2.25761e-06
-7.38399e-07
2.1501e-06
-7.38392e-07
2.04761e-06
-7.38394e-07
1.94996e-06
-7.38404e-07
1.85697e-06
1.76828e-06
-7.44758e-07
1.77501e-06
-7.44738e-07
1.86974e-06
-7.44708e-07
1.9693e-06
-7.44679e-07
2.07393e-06
-7.44664e-07
2.18378e-06
-7.44675e-07
2.29902e-06
-7.44723e-07
2.41984e-06
-7.44817e-07
2.54642e-06
-7.4496e-07
2.67896e-06
-7.45157e-07
2.81765e-06
-7.45408e-07
2.96263e-06
-7.45714e-07
3.11401e-06
-7.46071e-07
3.27182e-06
-7.46472e-07
3.436e-06
-7.469e-07
3.60633e-06
-7.47329e-07
3.78236e-06
-7.47715e-07
3.96326e-06
-7.47994e-07
4.14767e-06
-7.48097e-07
4.3337e-06
-7.47992e-07
4.51945e-06
-7.47743e-07
4.70492e-06
-7.47522e-07
4.89516e-06
-7.47465e-07
5.10251e-06
-7.47491e-07
5.34288e-06
-7.47416e-07
5.6245e-06
-7.4725e-07
5.93919e-06
-7.47174e-07
6.26756e-06
-7.47245e-07
6.59252e-06
-7.47339e-07
6.90643e-06
-7.47336e-07
7.21054e-06
-7.47241e-07
8.76199e-06
-7.47171e-07
8.70439e-06
-7.47095e-07
8.6778e-06
-7.46941e-07
8.67752e-06
-7.46733e-07
8.68259e-06
-7.465e-07
8.6767e-06
-7.46231e-07
8.65574e-06
-7.45899e-07
8.62274e-06
-7.45493e-07
8.58187e-06
-7.4501e-07
8.5362e-06
-7.44462e-07
8.48756e-06
-7.43849e-07
8.43703e-06
-7.43166e-07
8.38504e-06
-7.42402e-07
8.33129e-06
-7.4155e-07
8.27472e-06
-7.40625e-07
8.21363e-06
-7.39695e-07
8.14605e-06
-7.38915e-07
8.0706e-06
-7.3855e-07
7.98824e-06
-7.38893e-07
7.90437e-06
-7.40086e-07
7.8293e-06
-7.41955e-07
7.77491e-06
-7.44065e-07
7.74886e-06
-7.45972e-07
7.75139e-06
-7.47389e-07
7.77786e-06
-7.4817e-07
7.82301e-06
-7.48238e-07
7.88218e-06
-7.47579e-07
7.94988e-06
-7.46251e-07
8.01908e-06
-7.44314e-07
8.08204e-06
-7.41744e-07
8.12972e-06
-7.3842e-07
8.14691e-06
-7.34492e-07
8.10473e-06
-7.31801e-07
7.9662e-06
-7.3478e-07
7.73997e-06
-7.4478e-07
7.56218e-06
-7.53245e-07
7.62099e-06
-7.5361e-07
7.89663e-06
-7.4964e-07
8.18789e-06
-7.45776e-07
8.38024e-06
-7.43513e-07
6.92577e-06
-7.41966e-07
6.63864e-06
-7.4086e-07
6.34975e-06
-7.40036e-07
6.06722e-06
-7.39401e-07
5.79411e-06
-7.38903e-07
5.53174e-06
-7.38506e-07
5.2807e-06
-7.38182e-07
5.04114e-06
-7.37913e-07
4.81283e-06
-7.37687e-07
4.59528e-06
-7.37494e-07
4.3878e-06
-7.37331e-07
4.18965e-06
-7.37194e-07
4.00012e-06
-7.37081e-07
3.81861e-06
-7.36988e-07
3.64461e-06
-7.36914e-07
3.47775e-06
-7.36856e-07
3.3177e-06
-7.36809e-07
3.16421e-06
-7.36771e-07
3.01707e-06
-7.36739e-07
2.87608e-06
-7.36711e-07
2.74106e-06
-7.36685e-07
2.61186e-06
-7.36661e-07
2.48832e-06
-7.3664e-07
2.37028e-06
-7.36621e-07
2.25759e-06
-7.36607e-07
2.15009e-06
-7.366e-07
2.0476e-06
-7.36602e-07
1.94996e-06
-7.3661e-07
1.85698e-06
1.76828e-06
-7.45584e-07
1.775e-06
-7.45568e-07
1.86972e-06
-7.45545e-07
1.96928e-06
-7.45522e-07
2.07391e-06
-7.45512e-07
2.18377e-06
-7.45529e-07
2.29904e-06
-7.45584e-07
2.41989e-06
-7.45685e-07
2.54652e-06
-7.45837e-07
2.67911e-06
-7.46045e-07
2.81785e-06
-7.46309e-07
2.96289e-06
-7.4663e-07
3.11433e-06
-7.47004e-07
3.27219e-06
-7.47422e-07
3.43641e-06
-7.47869e-07
3.60678e-06
-7.48316e-07
3.78281e-06
-7.48717e-07
3.96366e-06
-7.49009e-07
4.14797e-06
-7.49124e-07
4.33381e-06
-7.49029e-07
4.51936e-06
-7.48791e-07
4.70468e-06
-7.48577e-07
4.89494e-06
-7.48515e-07
5.10245e-06
-7.48534e-07
5.34289e-06
-7.48458e-07
5.62443e-06
-7.48296e-07
5.93903e-06
-7.48222e-07
6.26749e-06
-7.48294e-07
6.59259e-06
-7.48388e-07
6.90653e-06
-7.48384e-07
7.21054e-06
-7.4828e-07
8.76189e-06
-7.48193e-07
8.7043e-06
-7.48095e-07
8.6777e-06
-7.47919e-07
8.67735e-06
-7.47686e-07
8.68236e-06
-7.47424e-07
8.67644e-06
-7.47118e-07
8.65543e-06
-7.46744e-07
8.62236e-06
-7.46289e-07
8.58142e-06
-7.45749e-07
8.53566e-06
-7.45135e-07
8.48695e-06
-7.44451e-07
8.43635e-06
-7.43693e-07
8.38428e-06
-7.42852e-07
8.33045e-06
-7.41926e-07
8.27379e-06
-7.40933e-07
8.21264e-06
-7.39949e-07
8.14507e-06
-7.39136e-07
8.06979e-06
-7.38758e-07
7.98787e-06
-7.39103e-07
7.90472e-06
-7.40302e-07
7.8305e-06
-7.42173e-07
7.77678e-06
-7.44284e-07
7.75097e-06
-7.4619e-07
7.75329e-06
-7.47596e-07
7.77927e-06
-7.48346e-07
7.82376e-06
-7.48354e-07
7.88219e-06
-7.47607e-07
7.94914e-06
-7.46161e-07
8.01763e-06
-7.44084e-07
8.07996e-06
-7.41369e-07
8.12701e-06
-7.37928e-07
8.14347e-06
-7.33978e-07
8.10078e-06
-7.31396e-07
7.96361e-06
-7.34407e-07
7.74298e-06
-7.44097e-07
7.57187e-06
-7.52326e-07
7.62922e-06
-7.52778e-07
7.89708e-06
-7.48863e-07
8.18398e-06
-7.44911e-07
8.37629e-06
-7.42523e-07
6.92338e-06
-7.40848e-07
6.63697e-06
-7.39621e-07
6.34853e-06
-7.38685e-07
6.06629e-06
-7.37952e-07
5.79338e-06
-7.37366e-07
5.53115e-06
-7.36891e-07
5.28022e-06
-7.36499e-07
5.04074e-06
-7.3617e-07
4.81251e-06
-7.35891e-07
4.59501e-06
-7.35653e-07
4.38757e-06
-7.3545e-07
4.18945e-06
-7.35279e-07
3.99995e-06
-7.35136e-07
3.81846e-06
-7.35018e-07
3.6445e-06
-7.34923e-07
3.47765e-06
-7.34846e-07
3.31762e-06
-7.34784e-07
3.16415e-06
-7.34734e-07
3.01701e-06
-7.34691e-07
2.87603e-06
-7.34655e-07
2.74103e-06
-7.34623e-07
2.61183e-06
-7.34595e-07
2.48829e-06
-7.34571e-07
2.37026e-06
-7.34551e-07
2.25757e-06
-7.34537e-07
2.15007e-06
-7.34531e-07
2.04759e-06
-7.34533e-07
1.94996e-06
-7.34539e-07
1.85699e-06
1.76829e-06
-7.46549e-07
1.775e-06
-7.46539e-07
1.86971e-06
-7.46524e-07
1.96926e-06
-7.46509e-07
2.07389e-06
-7.46506e-07
2.18377e-06
-7.46529e-07
2.29906e-06
-7.46589e-07
2.41995e-06
-7.46697e-07
2.54663e-06
-7.46857e-07
2.67927e-06
-7.47074e-07
2.81807e-06
-7.4735e-07
2.96317e-06
-7.47684e-07
3.11466e-06
-7.48072e-07
3.27258e-06
-7.48505e-07
3.43685e-06
-7.48968e-07
3.60724e-06
-7.49431e-07
3.78327e-06
-7.49846e-07
3.96408e-06
-7.5015e-07
4.14827e-06
-7.50275e-07
4.33394e-06
-7.5019e-07
4.51927e-06
-7.49961e-07
4.70446e-06
-7.49751e-07
4.89473e-06
-7.49686e-07
5.10238e-06
-7.49697e-07
5.34291e-06
-7.49621e-07
5.62435e-06
-7.49465e-07
5.93887e-06
-7.49395e-07
6.26742e-06
-7.49469e-07
6.59266e-06
-7.49565e-07
6.90662e-06
-7.4956e-07
7.21053e-06
-7.49448e-07
8.76178e-06
-7.49343e-07
8.70419e-06
-7.49223e-07
8.67758e-06
-7.49026e-07
8.67715e-06
-7.48769e-07
8.68211e-06
-7.48479e-07
8.67615e-06
-7.4814e-07
8.65509e-06
-7.47726e-07
8.62195e-06
-7.47224e-07
8.58091e-06
-7.4663e-07
8.53507e-06
-7.45955e-07
8.48627e-06
-7.45206e-07
8.4356e-06
-7.44378e-07
8.38346e-06
-7.43466e-07
8.32954e-06
-7.4247e-07
8.2728e-06
-7.41416e-07
8.21159e-06
-7.40382e-07
8.14403e-06
-7.39534e-07
8.06894e-06
-7.39134e-07
7.98747e-06
-7.39463e-07
7.90505e-06
-7.40641e-07
7.83168e-06
-7.42482e-07
7.77863e-06
-7.44558e-07
7.75304e-06
-7.46425e-07
7.75516e-06
-7.47788e-07
7.78063e-06
-7.48481e-07
7.82445e-06
-7.48416e-07
7.88213e-06
-7.47575e-07
7.9483e-06
-7.46017e-07
8.01608e-06
-7.43814e-07
8.07776e-06
-7.40975e-07
8.12417e-06
-7.37438e-07
8.13994e-06
-7.33472e-07
8.09682e-06
-7.3097e-07
7.96111e-06
-7.33948e-07
7.74596e-06
-7.43264e-07
7.58119e-06
-7.51186e-07
7.63714e-06
-7.5166e-07
7.89756e-06
-7.47781e-07
8.1801e-06
-7.43748e-07
8.37226e-06
-7.41251e-07
6.92089e-06
-7.3946e-07
6.63518e-06
-7.38119e-07
6.34719e-06
-7.37078e-07
6.06525e-06
-7.36248e-07
5.79255e-06
-7.35574e-07
5.53048e-06
-7.3502e-07
5.27967e-06
-7.34557e-07
5.04028e-06
-7.34166e-07
4.81212e-06
-7.33832e-07
4.59467e-06
-7.33545e-07
4.38728e-06
-7.333e-07
4.1892e-06
-7.33092e-07
3.99974e-06
-7.32918e-07
3.81829e-06
-7.32773e-07
3.64435e-06
-7.32655e-07
3.47753e-06
-7.32558e-07
3.31752e-06
-7.3248e-07
3.16407e-06
-7.32416e-07
3.01695e-06
-7.32362e-07
2.87598e-06
-7.32317e-07
2.74098e-06
-7.32279e-07
2.61179e-06
-7.32246e-07
2.48826e-06
-7.32219e-07
2.37023e-06
-7.32197e-07
2.25755e-06
-7.32183e-07
2.15006e-06
-7.32177e-07
2.04759e-06
-7.32178e-07
1.94996e-06
-7.32183e-07
1.85699e-06
1.76829e-06
-7.47649e-07
1.775e-06
-7.47646e-07
1.86971e-06
-7.4764e-07
1.96926e-06
-7.47634e-07
2.07389e-06
-7.4764e-07
2.18377e-06
-7.4767e-07
2.29909e-06
-7.47737e-07
2.42002e-06
-7.47852e-07
2.54674e-06
-7.4802e-07
2.67944e-06
-7.48246e-07
2.8183e-06
-7.48531e-07
2.96345e-06
-7.48876e-07
3.11501e-06
-7.49277e-07
3.27298e-06
-7.49725e-07
3.4373e-06
-7.50202e-07
3.60772e-06
-7.50678e-07
3.78375e-06
-7.51106e-07
3.96451e-06
-7.51421e-07
4.14859e-06
-7.51554e-07
4.33407e-06
-7.51476e-07
4.51919e-06
-7.51253e-07
4.70423e-06
-7.51045e-07
4.89452e-06
-7.50975e-07
5.10231e-06
-7.50981e-07
5.34291e-06
-7.50907e-07
5.62427e-06
-7.5076e-07
5.93873e-06
-7.50697e-07
6.26736e-06
-7.50774e-07
6.59274e-06
-7.50872e-07
6.90672e-06
-7.50865e-07
7.21053e-06
-7.50744e-07
8.76165e-06
-7.50622e-07
8.70407e-06
-7.50482e-07
8.67744e-06
-7.50265e-07
8.67693e-06
-7.49987e-07
8.68183e-06
-7.49671e-07
8.67583e-06
-7.493e-07
8.65472e-06
-7.48848e-07
8.62149e-06
-7.48301e-07
8.58037e-06
-7.47657e-07
8.53443e-06
-7.46925e-07
8.48554e-06
-7.46113e-07
8.43479e-06
-7.4522e-07
8.38256e-06
-7.44241e-07
8.32856e-06
-7.43181e-07
8.27174e-06
-7.42068e-07
8.21047e-06
-7.40984e-07
8.14295e-06
-7.40098e-07
8.06805e-06
-7.39667e-07
7.98704e-06
-7.39963e-07
7.90534e-06
-7.41096e-07
7.83281e-06
-7.42878e-07
7.78041e-06
-7.44887e-07
7.75505e-06
-7.46686e-07
7.75696e-06
-7.47977e-07
7.78192e-06
-7.48593e-07
7.82507e-06
-7.4844e-07
7.88198e-06
-7.475e-07
7.94736e-06
-7.45829e-07
8.01441e-06
-7.43508e-07
8.07544e-06
-7.40557e-07
8.12121e-06
-7.36934e-07
8.13631e-06
-7.3295e-07
8.09283e-06
-7.30496e-07
7.95866e-06
-7.33383e-07
7.74884e-06
-7.42275e-07
7.59008e-06
-7.49839e-07
7.64471e-06
-7.50288e-07
7.898e-06
-7.46422e-07
8.17623e-06
-7.42308e-07
8.36814e-06
-7.39706e-07
6.91828e-06
-7.37803e-07
6.63327e-06
-7.36353e-07
6.34574e-06
-7.35208e-07
6.0641e-06
-7.34282e-07
5.79162e-06
-7.3352e-07
5.52972e-06
-7.32885e-07
5.27903e-06
-7.32349e-07
5.03975e-06
-7.31893e-07
4.81166e-06
-7.31501e-07
4.59428e-06
-7.31164e-07
4.38695e-06
-7.30875e-07
4.18892e-06
-7.30628e-07
3.9995e-06
-7.30419e-07
3.81808e-06
-7.30246e-07
3.64418e-06
-7.30102e-07
3.47739e-06
-7.29984e-07
3.31741e-06
-7.29888e-07
3.16397e-06
-7.29809e-07
3.01687e-06
-7.29744e-07
2.87591e-06
-7.29689e-07
2.74092e-06
-7.29643e-07
2.61175e-06
-7.29605e-07
2.48822e-06
-7.29575e-07
2.3702e-06
-7.29552e-07
2.25753e-06
-7.29537e-07
2.15004e-06
-7.2953e-07
2.04758e-06
-7.2953e-07
1.94996e-06
-7.29534e-07
1.857e-06
1.7683e-06
-7.48882e-07
1.775e-06
-7.48887e-07
1.86971e-06
-7.48891e-07
1.96926e-06
-7.48896e-07
2.07389e-06
-7.48912e-07
2.18379e-06
-7.48951e-07
2.29913e-06
-7.49026e-07
2.4201e-06
-7.49148e-07
2.54686e-06
-7.49324e-07
2.67962e-06
-7.49558e-07
2.81853e-06
-7.49853e-07
2.96375e-06
-7.50209e-07
3.11536e-06
-7.50621e-07
3.27339e-06
-7.51082e-07
3.43776e-06
-7.51572e-07
3.60821e-06
-7.52061e-07
3.78424e-06
-7.525e-07
3.96495e-06
-7.52823e-07
4.14891e-06
-7.52961e-07
4.33421e-06
-7.52888e-07
4.51912e-06
-7.52668e-07
4.70401e-06
-7.52459e-07
4.89431e-06
-7.52384e-07
5.10223e-06
-7.52387e-07
5.34291e-06
-7.52319e-07
5.62421e-06
-7.52184e-07
5.93859e-06
-7.5213e-07
6.2673e-06
-7.52212e-07
6.59282e-06
-7.52311e-07
6.90682e-06
-7.52302e-07
7.21052e-06
-7.52171e-07
8.76152e-06
-7.52032e-07
8.70393e-06
-7.51874e-07
8.67728e-06
-7.51639e-07
8.6767e-06
-7.51341e-07
8.68153e-06
-7.51002e-07
8.67549e-06
-7.50602e-07
8.65432e-06
-7.50113e-07
8.62101e-06
-7.49524e-07
8.57978e-06
-7.48832e-07
8.53373e-06
-7.48046e-07
8.48475e-06
-7.47175e-07
8.43391e-06
-7.46219e-07
8.38161e-06
-7.45178e-07
8.32752e-06
-7.44056e-07
8.27062e-06
-7.42886e-07
8.2093e-06
-7.41752e-07
8.14181e-06
-7.40821e-07
8.06712e-06
-7.40349e-07
7.98656e-06
-7.40595e-07
7.90559e-06
-7.41662e-07
7.83387e-06
-7.4336e-07
7.78211e-06
-7.45275e-07
7.75697e-06
-7.46979e-07
7.75866e-06
-7.48175e-07
7.78312e-06
-7.48694e-07
7.82559e-06
-7.48439e-07
7.88172e-06
-7.47391e-07
7.94631e-06
-7.45607e-07
8.01262e-06
-7.43172e-07
8.073e-06
-7.40111e-07
8.11815e-06
-7.36405e-07
8.13261e-06
-7.32395e-07
8.08882e-06
-7.29958e-07
7.95622e-06
-7.327e-07
7.75158e-06
-7.41127e-07
7.59851e-06
-7.48295e-07
7.65187e-06
-7.48677e-07
7.89839e-06
-7.44805e-07
8.17236e-06
-7.40603e-07
8.36394e-06
-7.37895e-07
6.91558e-06
-7.35881e-07
6.63126e-06
-7.34322e-07
6.34418e-06
-7.33072e-07
6.06285e-06
-7.32048e-07
5.7906e-06
-7.31195e-07
5.52887e-06
-7.30477e-07
5.27832e-06
-7.29866e-07
5.03914e-06
-7.29343e-07
4.81114e-06
-7.28891e-07
4.59383e-06
-7.28501e-07
4.38656e-06
-7.28164e-07
4.18858e-06
-7.27876e-07
3.99921e-06
-7.27632e-07
3.81784e-06
-7.27427e-07
3.64397e-06
-7.27257e-07
3.47722e-06
-7.27116e-07
3.31726e-06
-7.27001e-07
3.16385e-06
-7.26906e-07
3.01677e-06
-7.26827e-07
2.87583e-06
-7.26762e-07
2.74086e-06
-7.26709e-07
2.61169e-06
-7.26665e-07
2.48818e-06
-7.26631e-07
2.37017e-06
-7.26605e-07
2.2575e-06
-7.26588e-07
2.15002e-06
-7.2658e-07
2.04757e-06
-7.26579e-07
1.94996e-06
-7.26582e-07
1.857e-06
1.7683e-06
-7.50247e-07
1.77501e-06
-7.50261e-07
1.86973e-06
-7.50275e-07
1.96927e-06
-7.50293e-07
2.07391e-06
-7.5032e-07
2.18382e-06
-7.5037e-07
2.29918e-06
-7.50455e-07
2.42018e-06
-7.50585e-07
2.54699e-06
-7.50769e-07
2.6798e-06
-7.51012e-07
2.81878e-06
-7.51316e-07
2.96405e-06
-7.51682e-07
3.11573e-06
-7.52106e-07
3.27382e-06
-7.52578e-07
3.43823e-06
-7.5308e-07
3.60871e-06
-7.53581e-07
3.78474e-06
-7.54029e-07
3.9654e-06
-7.54359e-07
4.14924e-06
-7.54501e-07
4.33435e-06
-7.54428e-07
4.51905e-06
-7.54207e-07
4.70379e-06
-7.53994e-07
4.8941e-06
-7.53913e-07
5.10215e-06
-7.53914e-07
5.34292e-06
-7.53857e-07
5.62415e-06
-7.53738e-07
5.93847e-06
-7.53698e-07
6.26726e-06
-7.53785e-07
6.59291e-06
-7.53885e-07
6.90692e-06
-7.53872e-07
7.2105e-06
-7.5373e-07
8.76138e-06
-7.53575e-07
8.70378e-06
-7.53401e-07
8.67711e-06
-7.53151e-07
8.67645e-06
-7.52836e-07
8.68121e-06
-7.52475e-07
8.67513e-06
-7.52048e-07
8.6539e-06
-7.51525e-07
8.62048e-06
-7.50896e-07
8.57915e-06
-7.50157e-07
8.533e-06
-7.4932e-07
8.48392e-06
-7.48393e-07
8.43299e-06
-7.47378e-07
8.38059e-06
-7.46276e-07
8.32642e-06
-7.45094e-07
8.26944e-06
-7.43867e-07
8.20808e-06
-7.42679e-07
8.14063e-06
-7.41699e-07
8.06614e-06
-7.41174e-07
7.98604e-06
-7.41355e-07
7.90577e-06
-7.42335e-07
7.83485e-06
-7.43927e-07
7.7837e-06
-7.45725e-07
7.75877e-06
-7.47311e-07
7.76025e-06
-7.48391e-07
7.7842e-06
-7.48794e-07
7.82599e-06
-7.48424e-07
7.88135e-06
-7.47259e-07
7.94514e-06
-7.45358e-07
8.01072e-06
-7.42805e-07
8.07045e-06
-7.39636e-07
8.11498e-06
-7.35843e-07
8.12881e-06
-7.31794e-07
8.08477e-06
-7.29341e-07
7.95377e-06
-7.31894e-07
7.75414e-06
-7.3982e-07
7.60643e-06
-7.46559e-07
7.65861e-06
-7.46841e-07
7.89867e-06
-7.42943e-07
8.16846e-06
-7.38645e-07
8.35964e-06
-7.35824e-07
6.91276e-06
-7.33695e-07
6.62913e-06
-7.32024e-07
6.34251e-06
-7.30668e-07
6.06149e-06
-7.29542e-07
5.78947e-06
-7.28596e-07
5.52792e-06
-7.27791e-07
5.27751e-06
-7.27102e-07
5.03845e-06
-7.26508e-07
4.81054e-06
-7.25993e-07
4.59332e-06
-7.25547e-07
4.38611e-06
-7.25161e-07
4.18819e-06
-7.24829e-07
3.99888e-06
-7.24547e-07
3.81755e-06
-7.24309e-07
3.64373e-06
-7.2411e-07
3.47702e-06
-7.23946e-07
3.3171e-06
-7.2381e-07
3.16372e-06
-7.23698e-07