/*--------------------------------*- C++ -*----------------------------------*\
  =========                 |
  \\      /  F ield         | OpenFOAM: The Open Source CFD Toolbox
   \\    /   O peration     | Website:  https://openfoam.org
    \\  /    A nd           | Version:  9
     \\/     M anipulation  |
\*---------------------------------------------------------------------------*/
FoamFile
{
    format      ascii;
    class       volScalarField;
    location    "0.1";
    object      rAU;
}
// * * * * * * * * * * * * * * * * * * * * * * * * * * * * * * * * * * * * * //

dimensions      [-1 3 1 0 0 0 0];

internalField   nonuniform List<scalar> 
20000
(
1.83742e-05
1.73345e-05
1.75496e-05
1.77504e-05
1.79376e-05
1.81119e-05
1.82744e-05
1.84256e-05
1.85665e-05
1.8698e-05
1.8821e-05
1.89364e-05
1.90454e-05
1.91492e-05
1.92491e-05
1.93468e-05
1.94444e-05
1.95446e-05
1.96509e-05
1.97667e-05
1.98927e-05
2.00215e-05
2.0134e-05
2.0206e-05
2.02293e-05
2.02233e-05
2.02193e-05
2.02384e-05
2.02865e-05
2.03672e-05
2.05363e-05
2.05982e-05
2.06238e-05
2.06237e-05
2.06184e-05
2.06235e-05
2.06429e-05
2.06737e-05
2.0712e-05
2.07552e-05
2.08015e-05
2.08498e-05
2.08998e-05
2.09516e-05
2.10063e-05
2.10656e-05
2.1132e-05
2.12073e-05
2.12914e-05
2.13795e-05
2.14604e-05
2.15201e-05
2.15486e-05
2.15453e-05
2.1516e-05
2.14671e-05
2.14037e-05
2.1332e-05
2.12595e-05
2.11937e-05
2.1143e-05
2.1121e-05
2.11563e-05
2.12956e-05
2.15559e-05
2.17911e-05
2.17253e-05
2.13921e-05
2.10777e-05
2.08846e-05
2.06834e-05
2.05983e-05
2.05345e-05
2.04752e-05
2.04168e-05
2.03571e-05
2.02946e-05
2.02279e-05
2.01564e-05
2.00797e-05
1.99978e-05
1.99107e-05
1.98188e-05
1.97221e-05
1.96205e-05
1.95137e-05
1.94015e-05
1.92832e-05
1.91582e-05
1.90259e-05
1.88855e-05
1.87362e-05
1.85772e-05
1.84077e-05
1.82267e-05
1.80334e-05
1.78271e-05
1.7607e-05
1.73724e-05
1.43836e-05
2.3674e-05
2.20029e-05
2.2376e-05
2.27285e-05
2.3061e-05
2.3374e-05
2.36684e-05
2.39448e-05
2.42042e-05
2.44475e-05
2.46757e-05
2.48899e-05
2.50911e-05
2.52806e-05
2.54598e-05
2.56303e-05
2.57937e-05
2.59526e-05
2.61095e-05
2.62671e-05
2.64262e-05
2.6582e-05
2.67222e-05
2.68312e-05
2.69039e-05
2.69533e-05
2.70001e-05
2.70588e-05
2.71338e-05
2.72367e-05
2.74751e-05
2.75244e-05
2.75415e-05
2.75415e-05
2.75379e-05
2.75414e-05
2.75544e-05
2.7575e-05
2.76006e-05
2.76294e-05
2.76602e-05
2.76923e-05
2.77254e-05
2.77597e-05
2.77958e-05
2.78349e-05
2.78785e-05
2.79278e-05
2.79825e-05
2.80393e-05
2.8091e-05
2.81287e-05
2.81463e-05
2.81438e-05
2.81247e-05
2.80932e-05
2.80525e-05
2.80064e-05
2.79597e-05
2.79174e-05
2.78849e-05
2.78715e-05
2.78959e-05
2.79878e-05
2.81539e-05
2.82978e-05
2.82536e-05
2.80431e-05
2.7841e-05
2.77067e-05
2.74472e-05
2.73417e-05
2.72561e-05
2.71705e-05
2.70821e-05
2.69891e-05
2.68904e-05
2.67849e-05
2.66717e-05
2.65503e-05
2.64204e-05
2.62818e-05
2.61342e-05
2.59772e-05
2.58105e-05
2.56334e-05
2.54454e-05
2.52456e-05
2.50333e-05
2.48075e-05
2.45674e-05
2.43121e-05
2.40406e-05
2.3752e-05
2.34455e-05
2.31204e-05
2.27758e-05
2.24112e-05
2.20261e-05
1.74294e-05
2.36742e-05
2.2003e-05
2.23762e-05
2.27287e-05
2.30611e-05
2.33742e-05
2.36684e-05
2.39448e-05
2.42042e-05
2.44474e-05
2.46755e-05
2.48895e-05
2.50906e-05
2.528e-05
2.54591e-05
2.56295e-05
2.57929e-05
2.59518e-05
2.61088e-05
2.62666e-05
2.64259e-05
2.65817e-05
2.67217e-05
2.68306e-05
2.69035e-05
2.6953e-05
2.69998e-05
2.70585e-05
2.71334e-05
2.72364e-05
2.74748e-05
2.75241e-05
2.75412e-05
2.75413e-05
2.75378e-05
2.75412e-05
2.75543e-05
2.75749e-05
2.76006e-05
2.76295e-05
2.76603e-05
2.76925e-05
2.77257e-05
2.77601e-05
2.77963e-05
2.78356e-05
2.78793e-05
2.79287e-05
2.79833e-05
2.80399e-05
2.80911e-05
2.81284e-05
2.81457e-05
2.81429e-05
2.81238e-05
2.80924e-05
2.80518e-05
2.8006e-05
2.79596e-05
2.79177e-05
2.78857e-05
2.7873e-05
2.78984e-05
2.79906e-05
2.81541e-05
2.82931e-05
2.82487e-05
2.80422e-05
2.78418e-05
2.77074e-05
2.74475e-05
2.7342e-05
2.72565e-05
2.71709e-05
2.70825e-05
2.69896e-05
2.6891e-05
2.67855e-05
2.66723e-05
2.6551e-05
2.64212e-05
2.62826e-05
2.6135e-05
2.59781e-05
2.58114e-05
2.56344e-05
2.54464e-05
2.52466e-05
2.50343e-05
2.48086e-05
2.45685e-05
2.43132e-05
2.40418e-05
2.37532e-05
2.34468e-05
2.31216e-05
2.27771e-05
2.24125e-05
2.20274e-05
1.74308e-05
2.3674e-05
2.20029e-05
2.23761e-05
2.27286e-05
2.3061e-05
2.3374e-05
2.36682e-05
2.39445e-05
2.42038e-05
2.44469e-05
2.46749e-05
2.48888e-05
2.50898e-05
2.52791e-05
2.54582e-05
2.56285e-05
2.57919e-05
2.59508e-05
2.6108e-05
2.6266e-05
2.64254e-05
2.65812e-05
2.67211e-05
2.683e-05
2.69031e-05
2.69528e-05
2.69995e-05
2.7058e-05
2.71329e-05
2.72359e-05
2.74745e-05
2.75238e-05
2.75409e-05
2.7541e-05
2.75376e-05
2.75411e-05
2.75541e-05
2.75748e-05
2.76006e-05
2.76295e-05
2.76604e-05
2.76927e-05
2.7726e-05
2.77604e-05
2.77968e-05
2.78362e-05
2.78801e-05
2.79295e-05
2.7984e-05
2.80402e-05
2.8091e-05
2.81277e-05
2.81447e-05
2.81419e-05
2.81229e-05
2.80916e-05
2.80513e-05
2.80058e-05
2.79598e-05
2.79183e-05
2.78868e-05
2.78748e-05
2.79011e-05
2.79933e-05
2.81537e-05
2.82873e-05
2.82433e-05
2.80417e-05
2.78435e-05
2.77088e-05
2.74484e-05
2.73426e-05
2.7257e-05
2.71715e-05
2.70831e-05
2.69903e-05
2.68917e-05
2.67863e-05
2.66732e-05
2.65519e-05
2.64221e-05
2.62836e-05
2.61361e-05
2.59792e-05
2.58126e-05
2.56356e-05
2.54477e-05
2.5248e-05
2.50357e-05
2.481e-05
2.457e-05
2.43147e-05
2.40433e-05
2.37548e-05
2.34484e-05
2.31233e-05
2.27788e-05
2.24142e-05
2.20291e-05
1.74327e-05
2.36735e-05
2.20025e-05
2.23757e-05
2.27282e-05
2.30606e-05
2.33735e-05
2.36676e-05
2.39439e-05
2.4203e-05
2.44461e-05
2.4674e-05
2.48878e-05
2.50887e-05
2.5278e-05
2.54569e-05
2.56272e-05
2.57907e-05
2.59497e-05
2.61071e-05
2.62653e-05
2.64249e-05
2.65807e-05
2.67204e-05
2.68293e-05
2.69026e-05
2.69524e-05
2.6999e-05
2.70574e-05
2.71323e-05
2.72354e-05
2.74741e-05
2.75234e-05
2.75406e-05
2.75407e-05
2.75373e-05
2.75408e-05
2.75539e-05
2.75746e-05
2.76005e-05
2.76295e-05
2.76605e-05
2.76928e-05
2.77262e-05
2.77608e-05
2.77973e-05
2.78368e-05
2.78808e-05
2.79302e-05
2.79845e-05
2.80403e-05
2.80906e-05
2.81268e-05
2.81435e-05
2.81407e-05
2.81219e-05
2.80908e-05
2.80509e-05
2.80058e-05
2.79602e-05
2.79191e-05
2.78882e-05
2.78768e-05
2.79038e-05
2.79958e-05
2.81527e-05
2.82811e-05
2.82378e-05
2.80415e-05
2.78456e-05
2.77107e-05
2.74497e-05
2.73436e-05
2.72579e-05
2.71724e-05
2.7084e-05
2.69913e-05
2.68927e-05
2.67873e-05
2.66743e-05
2.65531e-05
2.64234e-05
2.6285e-05
2.61375e-05
2.59807e-05
2.58141e-05
2.56372e-05
2.54493e-05
2.52497e-05
2.50375e-05
2.48119e-05
2.45719e-05
2.43167e-05
2.40453e-05
2.37569e-05
2.34506e-05
2.31255e-05
2.2781e-05
2.24165e-05
2.20314e-05
1.74352e-05
2.36725e-05
2.20017e-05
2.2375e-05
2.27275e-05
2.30598e-05
2.33726e-05
2.36667e-05
2.39429e-05
2.4202e-05
2.44449e-05
2.46727e-05
2.48865e-05
2.50874e-05
2.52766e-05
2.54555e-05
2.56257e-05
2.57893e-05
2.59484e-05
2.6106e-05
2.62645e-05
2.64243e-05
2.65801e-05
2.67197e-05
2.68286e-05
2.6902e-05
2.69519e-05
2.69984e-05
2.70567e-05
2.71316e-05
2.72348e-05
2.74737e-05
2.75229e-05
2.75401e-05
2.75404e-05
2.7537e-05
2.75405e-05
2.75536e-05
2.75744e-05
2.76003e-05
2.76294e-05
2.76605e-05
2.76929e-05
2.77264e-05
2.77611e-05
2.77977e-05
2.78373e-05
2.78814e-05
2.79307e-05
2.79849e-05
2.80403e-05
2.809e-05
2.81257e-05
2.81422e-05
2.81394e-05
2.81208e-05
2.80901e-05
2.80506e-05
2.80059e-05
2.79608e-05
2.79202e-05
2.78897e-05
2.7879e-05
2.79067e-05
2.79981e-05
2.81513e-05
2.82747e-05
2.82323e-05
2.80414e-05
2.78482e-05
2.77131e-05
2.74514e-05
2.7345e-05
2.72592e-05
2.71735e-05
2.70852e-05
2.69925e-05
2.6894e-05
2.67887e-05
2.66758e-05
2.65547e-05
2.6425e-05
2.62866e-05
2.61392e-05
2.59825e-05
2.5816e-05
2.56392e-05
2.54514e-05
2.52518e-05
2.50397e-05
2.48141e-05
2.45742e-05
2.43191e-05
2.40478e-05
2.37595e-05
2.34532e-05
2.31282e-05
2.27837e-05
2.24192e-05
2.20341e-05
1.74383e-05
2.3671e-05
2.20006e-05
2.23738e-05
2.27264e-05
2.30587e-05
2.33715e-05
2.36655e-05
2.39416e-05
2.42006e-05
2.44435e-05
2.46713e-05
2.4885e-05
2.50858e-05
2.52749e-05
2.54538e-05
2.56241e-05
2.57877e-05
2.5947e-05
2.61048e-05
2.62636e-05
2.64236e-05
2.65794e-05
2.67188e-05
2.68277e-05
2.69012e-05
2.69512e-05
2.69977e-05
2.70559e-05
2.71308e-05
2.72341e-05
2.74732e-05
2.75224e-05
2.75396e-05
2.75399e-05
2.75366e-05
2.75401e-05
2.75533e-05
2.75742e-05
2.76001e-05
2.76293e-05
2.76605e-05
2.7693e-05
2.77265e-05
2.77613e-05
2.77981e-05
2.78378e-05
2.78819e-05
2.79312e-05
2.79851e-05
2.80401e-05
2.80892e-05
2.81244e-05
2.81408e-05
2.81381e-05
2.81197e-05
2.80894e-05
2.80503e-05
2.80062e-05
2.79615e-05
2.79214e-05
2.78915e-05
2.78814e-05
2.79095e-05
2.80003e-05
2.81498e-05
2.82683e-05
2.82269e-05
2.80415e-05
2.7851e-05
2.77158e-05
2.74535e-05
2.73467e-05
2.72608e-05
2.71751e-05
2.70867e-05
2.6994e-05
2.68956e-05
2.67904e-05
2.66775e-05
2.65565e-05
2.6427e-05
2.62887e-05
2.61413e-05
2.59847e-05
2.58183e-05
2.56415e-05
2.54538e-05
2.52543e-05
2.50423e-05
2.48168e-05
2.4577e-05
2.4322e-05
2.40508e-05
2.37625e-05
2.34563e-05
2.31313e-05
2.27869e-05
2.24224e-05
2.20374e-05
1.74419e-05
2.36692e-05
2.19991e-05
2.23724e-05
2.27249e-05
2.30572e-05
2.337e-05
2.3664e-05
2.39401e-05
2.4199e-05
2.44419e-05
2.46695e-05
2.48832e-05
2.50839e-05
2.52731e-05
2.5452e-05
2.56223e-05
2.5786e-05
2.59454e-05
2.61035e-05
2.62626e-05
2.64227e-05
2.65785e-05
2.67178e-05
2.68266e-05
2.69003e-05
2.69505e-05
2.69969e-05
2.7055e-05
2.713e-05
2.72334e-05
2.74726e-05
2.75218e-05
2.75391e-05
2.75394e-05
2.75361e-05
2.75397e-05
2.75529e-05
2.75738e-05
2.75999e-05
2.76291e-05
2.76604e-05
2.7693e-05
2.77266e-05
2.77615e-05
2.77984e-05
2.78382e-05
2.78823e-05
2.79316e-05
2.79852e-05
2.80397e-05
2.80883e-05
2.81231e-05
2.81392e-05
2.81367e-05
2.81187e-05
2.80888e-05
2.80502e-05
2.80066e-05
2.79624e-05
2.79228e-05
2.78933e-05
2.78838e-05
2.79123e-05
2.80023e-05
2.81482e-05
2.82622e-05
2.82219e-05
2.80417e-05
2.7854e-05
2.77188e-05
2.7456e-05
2.73488e-05
2.72627e-05
2.71769e-05
2.70886e-05
2.69959e-05
2.68975e-05
2.67924e-05
2.66796e-05
2.65587e-05
2.64292e-05
2.6291e-05
2.61438e-05
2.59873e-05
2.5821e-05
2.56443e-05
2.54567e-05
2.52573e-05
2.50454e-05
2.482e-05
2.45803e-05
2.43253e-05
2.40542e-05
2.3766e-05
2.34599e-05
2.3135e-05
2.27907e-05
2.24262e-05
2.20412e-05
1.74461e-05
2.36671e-05
2.19974e-05
2.23707e-05
2.27232e-05
2.30555e-05
2.33683e-05
2.36622e-05
2.39383e-05
2.41972e-05
2.44399e-05
2.46676e-05
2.48812e-05
2.50819e-05
2.5271e-05
2.54499e-05
2.56203e-05
2.57841e-05
2.59437e-05
2.6102e-05
2.62614e-05
2.64217e-05
2.65775e-05
2.67167e-05
2.68255e-05
2.68993e-05
2.69496e-05
2.6996e-05
2.7054e-05
2.7129e-05
2.72325e-05
2.7472e-05
2.75212e-05
2.75384e-05
2.75388e-05
2.75356e-05
2.75392e-05
2.75525e-05
2.75735e-05
2.75996e-05
2.76289e-05
2.76603e-05
2.76929e-05
2.77267e-05
2.77617e-05
2.77986e-05
2.78385e-05
2.78827e-05
2.79319e-05
2.79853e-05
2.80393e-05
2.80873e-05
2.81217e-05
2.81377e-05
2.81353e-05
2.81176e-05
2.80882e-05
2.80501e-05
2.8007e-05
2.79634e-05
2.79242e-05
2.78953e-05
2.78863e-05
2.79152e-05
2.80043e-05
2.81467e-05
2.82564e-05
2.82171e-05
2.8042e-05
2.78572e-05
2.7722e-05
2.74587e-05
2.73512e-05
2.72649e-05
2.71791e-05
2.70907e-05
2.69981e-05
2.68998e-05
2.67947e-05
2.6682e-05
2.65612e-05
2.64319e-05
2.62938e-05
2.61467e-05
2.59902e-05
2.5824e-05
2.56475e-05
2.546e-05
2.52607e-05
2.50489e-05
2.48236e-05
2.4584e-05
2.43292e-05
2.40582e-05
2.37701e-05
2.3464e-05
2.31392e-05
2.27949e-05
2.24305e-05
2.20456e-05
1.74508e-05
2.36647e-05
2.19954e-05
2.23687e-05
2.27213e-05
2.30536e-05
2.33663e-05
2.36602e-05
2.39362e-05
2.41951e-05
2.44378e-05
2.46654e-05
2.48789e-05
2.50796e-05
2.52687e-05
2.54476e-05
2.56181e-05
2.5782e-05
2.59418e-05
2.61004e-05
2.626e-05
2.64206e-05
2.65764e-05
2.67155e-05
2.68243e-05
2.68982e-05
2.69486e-05
2.6995e-05
2.70529e-05
2.71279e-05
2.72315e-05
2.74712e-05
2.75205e-05
2.75377e-05
2.75382e-05
2.7535e-05
2.75387e-05
2.75519e-05
2.7573e-05
2.75992e-05
2.76287e-05
2.76601e-05
2.76928e-05
2.77267e-05
2.77618e-05
2.77988e-05
2.78388e-05
2.7883e-05
2.7932e-05
2.79852e-05
2.80388e-05
2.80863e-05
2.81202e-05
2.81361e-05
2.81339e-05
2.81166e-05
2.80877e-05
2.80502e-05
2.80076e-05
2.79645e-05
2.79258e-05
2.78974e-05
2.78888e-05
2.79181e-05
2.80063e-05
2.81452e-05
2.82509e-05
2.82126e-05
2.80425e-05
2.78605e-05
2.77255e-05
2.74618e-05
2.73539e-05
2.72674e-05
2.71815e-05
2.70932e-05
2.70006e-05
2.69024e-05
2.67974e-05
2.66848e-05
2.65641e-05
2.64349e-05
2.62969e-05
2.61499e-05
2.59936e-05
2.58275e-05
2.56511e-05
2.54637e-05
2.52645e-05
2.50528e-05
2.48277e-05
2.45882e-05
2.43335e-05
2.40626e-05
2.37746e-05
2.34686e-05
2.31439e-05
2.27997e-05
2.24354e-05
2.20505e-05
1.74562e-05
2.36619e-05
2.19931e-05
2.23665e-05
2.2719e-05
2.30513e-05
2.33641e-05
2.3658e-05
2.39339e-05
2.41927e-05
2.44354e-05
2.4663e-05
2.48765e-05
2.50771e-05
2.52662e-05
2.54452e-05
2.56156e-05
2.57797e-05
2.59397e-05
2.60986e-05
2.62585e-05
2.64193e-05
2.65752e-05
2.67142e-05
2.68229e-05
2.6897e-05
2.69475e-05
2.69938e-05
2.70517e-05
2.71267e-05
2.72304e-05
2.74704e-05
2.75197e-05
2.75369e-05
2.75375e-05
2.75343e-05
2.7538e-05
2.75514e-05
2.75725e-05
2.75988e-05
2.76283e-05
2.76598e-05
2.76927e-05
2.77266e-05
2.77618e-05
2.77989e-05
2.7839e-05
2.78832e-05
2.79322e-05
2.7985e-05
2.80382e-05
2.80852e-05
2.81188e-05
2.81346e-05
2.81325e-05
2.81156e-05
2.80872e-05
2.80502e-05
2.80083e-05
2.79657e-05
2.79275e-05
2.78995e-05
2.78915e-05
2.7921e-05
2.80083e-05
2.81438e-05
2.82458e-05
2.82086e-05
2.80432e-05
2.7864e-05
2.77292e-05
2.74651e-05
2.73569e-05
2.72703e-05
2.71843e-05
2.7096e-05
2.70035e-05
2.69053e-05
2.68004e-05
2.66879e-05
2.65673e-05
2.64382e-05
2.63004e-05
2.61535e-05
2.59974e-05
2.58314e-05
2.56551e-05
2.54678e-05
2.52688e-05
2.50573e-05
2.48323e-05
2.45929e-05
2.43383e-05
2.40675e-05
2.37796e-05
2.34738e-05
2.31492e-05
2.2805e-05
2.24408e-05
2.2056e-05
1.74622e-05
2.36589e-05
2.19905e-05
2.23639e-05
2.27165e-05
2.30488e-05
2.33616e-05
2.36554e-05
2.39313e-05
2.41901e-05
2.44328e-05
2.46603e-05
2.48738e-05
2.50744e-05
2.52635e-05
2.54425e-05
2.5613e-05
2.57772e-05
2.59375e-05
2.60966e-05
2.62569e-05
2.64179e-05
2.65738e-05
2.67127e-05
2.68214e-05
2.68956e-05
2.69462e-05
2.69926e-05
2.70503e-05
2.71254e-05
2.72293e-05
2.74695e-05
2.75188e-05
2.75361e-05
2.75367e-05
2.75336e-05
2.75373e-05
2.75507e-05
2.75719e-05
2.75983e-05
2.76279e-05
2.76595e-05
2.76925e-05
2.77265e-05
2.77618e-05
2.7799e-05
2.78391e-05
2.78833e-05
2.79322e-05
2.79848e-05
2.80376e-05
2.8084e-05
2.81173e-05
2.8133e-05
2.81312e-05
2.81147e-05
2.80868e-05
2.80504e-05
2.8009e-05
2.7967e-05
2.79293e-05
2.79018e-05
2.78942e-05
2.7924e-05
2.80103e-05
2.81426e-05
2.82411e-05
2.82049e-05
2.8044e-05
2.78676e-05
2.77331e-05
2.74688e-05
2.73602e-05
2.72734e-05
2.71875e-05
2.70992e-05
2.70067e-05
2.69086e-05
2.68038e-05
2.66914e-05
2.6571e-05
2.6442e-05
2.63043e-05
2.61576e-05
2.60016e-05
2.58357e-05
2.56596e-05
2.54725e-05
2.52736e-05
2.50622e-05
2.48373e-05
2.45981e-05
2.43437e-05
2.4073e-05
2.37852e-05
2.34795e-05
2.3155e-05
2.28109e-05
2.24468e-05
2.2062e-05
1.74689e-05
2.36555e-05
2.19877e-05
2.23612e-05
2.27138e-05
2.30461e-05
2.33588e-05
2.36527e-05
2.39285e-05
2.41873e-05
2.44299e-05
2.46574e-05
2.48709e-05
2.50715e-05
2.52606e-05
2.54396e-05
2.56102e-05
2.57746e-05
2.59351e-05
2.60945e-05
2.62551e-05
2.64163e-05
2.65723e-05
2.67112e-05
2.68198e-05
2.68942e-05
2.69448e-05
2.69912e-05
2.70489e-05
2.7124e-05
2.7228e-05
2.74686e-05
2.75178e-05
2.75352e-05
2.75358e-05
2.75328e-05
2.75365e-05
2.755e-05
2.75713e-05
2.75978e-05
2.76275e-05
2.76592e-05
2.76922e-05
2.77263e-05
2.77617e-05
2.77989e-05
2.78392e-05
2.78834e-05
2.79322e-05
2.79845e-05
2.80369e-05
2.80829e-05
2.81158e-05
2.81315e-05
2.81299e-05
2.81138e-05
2.80864e-05
2.80506e-05
2.80098e-05
2.79684e-05
2.79312e-05
2.79041e-05
2.7897e-05
2.7927e-05
2.80124e-05
2.81417e-05
2.82368e-05
2.82016e-05
2.8045e-05
2.78714e-05
2.77372e-05
2.74727e-05
2.73639e-05
2.72769e-05
2.71909e-05
2.71026e-05
2.70102e-05
2.69122e-05
2.68076e-05
2.66953e-05
2.6575e-05
2.64462e-05
2.63087e-05
2.61621e-05
2.60062e-05
2.58405e-05
2.56645e-05
2.54776e-05
2.52789e-05
2.50676e-05
2.48429e-05
2.46038e-05
2.43495e-05
2.4079e-05
2.37914e-05
2.34858e-05
2.31614e-05
2.28174e-05
2.24534e-05
2.20687e-05
1.74762e-05
2.36518e-05
2.19846e-05
2.23581e-05
2.27107e-05
2.3043e-05
2.33558e-05
2.36496e-05
2.39255e-05
2.41842e-05
2.44268e-05
2.46543e-05
2.48677e-05
2.50684e-05
2.52575e-05
2.54365e-05
2.56073e-05
2.57717e-05
2.59325e-05
2.60923e-05
2.62532e-05
2.64146e-05
2.65707e-05
2.67095e-05
2.68181e-05
2.68925e-05
2.69433e-05
2.69896e-05
2.70473e-05
2.71224e-05
2.72266e-05
2.74675e-05
2.75168e-05
2.75341e-05
2.75348e-05
2.75319e-05
2.75357e-05
2.75492e-05
2.75706e-05
2.75971e-05
2.76269e-05
2.76587e-05
2.76918e-05
2.7726e-05
2.77615e-05
2.77989e-05
2.78392e-05
2.78834e-05
2.79321e-05
2.79842e-05
2.80362e-05
2.80818e-05
2.81144e-05
2.813e-05
2.81286e-05
2.8113e-05
2.80861e-05
2.80509e-05
2.80108e-05
2.79699e-05
2.79331e-05
2.79065e-05
2.78999e-05
2.79301e-05
2.80146e-05
2.81409e-05
2.8233e-05
2.81987e-05
2.80463e-05
2.78754e-05
2.77416e-05
2.74769e-05
2.73678e-05
2.72807e-05
2.71947e-05
2.71065e-05
2.70142e-05
2.69163e-05
2.68117e-05
2.66996e-05
2.65795e-05
2.64508e-05
2.63134e-05
2.6167e-05
2.60113e-05
2.58458e-05
2.567e-05
2.54832e-05
2.52846e-05
2.50735e-05
2.4849e-05
2.46101e-05
2.4356e-05
2.40856e-05
2.37981e-05
2.34927e-05
2.31684e-05
2.28245e-05
2.24606e-05
2.2076e-05
1.74842e-05
2.36477e-05
2.19812e-05
2.23547e-05
2.27074e-05
2.30397e-05
2.33525e-05
2.36463e-05
2.39222e-05
2.41809e-05
2.44235e-05
2.46509e-05
2.48644e-05
2.5065e-05
2.52541e-05
2.54332e-05
2.56041e-05
2.57687e-05
2.59297e-05
2.60898e-05
2.62511e-05
2.64128e-05
2.6569e-05
2.67077e-05
2.68163e-05
2.68908e-05
2.69416e-05
2.6988e-05
2.70456e-05
2.71208e-05
2.72252e-05
2.74664e-05
2.75157e-05
2.75331e-05
2.75338e-05
2.75309e-05
2.75347e-05
2.75483e-05
2.75697e-05
2.75964e-05
2.76263e-05
2.76582e-05
2.76914e-05
2.77257e-05
2.77613e-05
2.77987e-05
2.78391e-05
2.78833e-05
2.7932e-05
2.79839e-05
2.80354e-05
2.80806e-05
2.8113e-05
2.81286e-05
2.81275e-05
2.81122e-05
2.80859e-05
2.80513e-05
2.80118e-05
2.79714e-05
2.79352e-05
2.79091e-05
2.79029e-05
2.79333e-05
2.80169e-05
2.81404e-05
2.82296e-05
2.81962e-05
2.80478e-05
2.78796e-05
2.77461e-05
2.74814e-05
2.7372e-05
2.72849e-05
2.71988e-05
2.71107e-05
2.70184e-05
2.69207e-05
2.68163e-05
2.67043e-05
2.65843e-05
2.64558e-05
2.63186e-05
2.61724e-05
2.60169e-05
2.58515e-05
2.56759e-05
2.54893e-05
2.52909e-05
2.508e-05
2.48557e-05
2.4617e-05
2.4363e-05
2.40928e-05
2.38055e-05
2.35002e-05
2.3176e-05
2.28323e-05
2.24684e-05
2.20839e-05
1.74929e-05
2.36433e-05
2.19776e-05
2.23511e-05
2.27037e-05
2.30361e-05
2.33489e-05
2.36428e-05
2.39186e-05
2.41773e-05
2.44199e-05
2.46473e-05
2.48608e-05
2.50614e-05
2.52506e-05
2.54298e-05
2.56007e-05
2.57655e-05
2.59268e-05
2.60872e-05
2.62489e-05
2.64109e-05
2.65671e-05
2.67058e-05
2.68143e-05
2.68889e-05
2.69398e-05
2.69861e-05
2.70438e-05
2.71191e-05
2.72236e-05
2.74652e-05
2.75145e-05
2.75319e-05
2.75327e-05
2.75298e-05
2.75337e-05
2.75473e-05
2.75689e-05
2.75956e-05
2.76256e-05
2.76576e-05
2.76909e-05
2.77253e-05
2.7761e-05
2.77985e-05
2.7839e-05
2.78832e-05
2.79318e-05
2.79835e-05
2.80347e-05
2.80795e-05
2.81116e-05
2.81272e-05
2.81264e-05
2.81116e-05
2.80858e-05
2.80518e-05
2.80129e-05
2.79731e-05
2.79374e-05
2.79118e-05
2.7906e-05
2.79366e-05
2.80193e-05
2.81401e-05
2.82267e-05
2.81942e-05
2.80495e-05
2.7884e-05
2.7751e-05
2.74862e-05
2.73766e-05
2.72893e-05
2.72033e-05
2.71152e-05
2.70231e-05
2.69255e-05
2.68212e-05
2.67095e-05
2.65896e-05
2.64613e-05
2.63243e-05
2.61783e-05
2.60229e-05
2.58578e-05
2.56823e-05
2.54959e-05
2.52978e-05
2.5087e-05
2.48629e-05
2.46244e-05
2.43706e-05
2.41006e-05
2.38134e-05
2.35083e-05
2.31842e-05
2.28407e-05
2.24769e-05
2.20925e-05
1.75023e-05
2.36385e-05
2.19736e-05
2.23471e-05
2.26999e-05
2.30323e-05
2.33451e-05
2.3639e-05
2.39148e-05
2.41735e-05
2.44161e-05
2.46435e-05
2.4857e-05
2.50577e-05
2.52469e-05
2.54261e-05
2.55972e-05
2.57622e-05
2.59237e-05
2.60845e-05
2.62465e-05
2.64087e-05
2.65651e-05
2.67037e-05
2.68122e-05
2.68868e-05
2.69379e-05
2.69842e-05
2.70418e-05
2.71172e-05
2.72219e-05
2.74639e-05
2.75133e-05
2.75306e-05
2.75315e-05
2.75286e-05
2.75326e-05
2.75463e-05
2.75679e-05
2.75948e-05
2.76249e-05
2.7657e-05
2.76904e-05
2.77249e-05
2.77606e-05
2.77983e-05
2.78388e-05
2.78831e-05
2.79316e-05
2.7983e-05
2.80339e-05
2.80784e-05
2.81103e-05
2.81259e-05
2.81253e-05
2.8111e-05
2.80858e-05
2.80524e-05
2.80141e-05
2.79749e-05
2.79397e-05
2.79145e-05
2.79093e-05
2.79401e-05
2.80219e-05
2.81401e-05
2.82242e-05
2.81926e-05
2.80516e-05
2.78886e-05
2.77561e-05
2.74913e-05
2.73815e-05
2.72942e-05
2.72082e-05
2.71202e-05
2.70282e-05
2.69307e-05
2.68266e-05
2.6715e-05
2.65954e-05
2.64673e-05
2.63305e-05
2.61846e-05
2.60295e-05
2.58646e-05
2.56893e-05
2.55031e-05
2.53052e-05
2.50946e-05
2.48707e-05
2.46324e-05
2.43788e-05
2.4109e-05
2.3822e-05
2.3517e-05
2.31931e-05
2.28497e-05
2.2486e-05
2.21018e-05
1.75125e-05
2.36334e-05
2.19694e-05
2.2343e-05
2.26957e-05
2.30282e-05
2.3341e-05
2.36349e-05
2.39108e-05
2.41695e-05
2.44121e-05
2.46395e-05
2.4853e-05
2.50537e-05
2.52429e-05
2.54223e-05
2.55934e-05
2.57587e-05
2.59205e-05
2.60816e-05
2.6244e-05
2.64065e-05
2.65629e-05
2.67015e-05
2.68099e-05
2.68846e-05
2.69358e-05
2.69821e-05
2.70398e-05
2.71153e-05
2.72202e-05
2.74626e-05
2.75119e-05
2.75293e-05
2.75301e-05
2.75273e-05
2.75313e-05
2.75451e-05
2.75668e-05
2.75938e-05
2.7624e-05
2.76562e-05
2.76897e-05
2.77243e-05
2.77602e-05
2.7798e-05
2.78385e-05
2.78829e-05
2.79313e-05
2.79826e-05
2.80332e-05
2.80773e-05
2.8109e-05
2.81247e-05
2.81244e-05
2.81105e-05
2.80858e-05
2.80531e-05
2.80154e-05
2.79768e-05
2.79421e-05
2.79175e-05
2.79127e-05
2.79436e-05
2.80246e-05
2.81404e-05
2.82222e-05
2.81915e-05
2.80539e-05
2.78934e-05
2.77614e-05
2.74968e-05
2.73867e-05
2.72994e-05
2.72134e-05
2.71255e-05
2.70337e-05
2.69363e-05
2.68324e-05
2.6721e-05
2.66016e-05
2.64737e-05
2.63371e-05
2.61915e-05
2.60366e-05
2.58719e-05
2.56969e-05
2.55109e-05
2.53131e-05
2.51029e-05
2.48791e-05
2.46411e-05
2.43877e-05
2.41181e-05
2.38313e-05
2.35264e-05
2.32027e-05
2.28594e-05
2.24959e-05
2.21117e-05
1.75234e-05
2.36281e-05
2.1965e-05
2.23386e-05
2.26914e-05
2.30239e-05
2.33367e-05
2.36307e-05
2.39066e-05
2.41653e-05
2.44079e-05
2.46353e-05
2.48488e-05
2.50495e-05
2.52388e-05
2.54182e-05
2.55895e-05
2.5755e-05
2.59171e-05
2.60786e-05
2.62413e-05
2.64041e-05
2.65606e-05
2.66991e-05
2.68076e-05
2.68823e-05
2.69335e-05
2.69799e-05
2.70376e-05
2.71132e-05
2.72183e-05
2.74611e-05
2.75105e-05
2.75279e-05
2.75287e-05
2.7526e-05
2.753e-05
2.75439e-05
2.75657e-05
2.75928e-05
2.76231e-05
2.76554e-05
2.7689e-05
2.77237e-05
2.77597e-05
2.77976e-05
2.78382e-05
2.78826e-05
2.7931e-05
2.79821e-05
2.80324e-05
2.80763e-05
2.81078e-05
2.81235e-05
2.81235e-05
2.81101e-05
2.8086e-05
2.80539e-05
2.80168e-05
2.79788e-05
2.79447e-05
2.79206e-05
2.79162e-05
2.79474e-05
2.80275e-05
2.81409e-05
2.82206e-05
2.81908e-05
2.80566e-05
2.78985e-05
2.77671e-05
2.75026e-05
2.73923e-05
2.73049e-05
2.7219e-05
2.71313e-05
2.70396e-05
2.69424e-05
2.68387e-05
2.67275e-05
2.66083e-05
2.64807e-05
2.63443e-05
2.61989e-05
2.60442e-05
2.58798e-05
2.5705e-05
2.55192e-05
2.53217e-05
2.51117e-05
2.48882e-05
2.46504e-05
2.43972e-05
2.41278e-05
2.38412e-05
2.35365e-05
2.3213e-05
2.28698e-05
2.25065e-05
2.21224e-05
1.75351e-05
2.36225e-05
2.19603e-05
2.23339e-05
2.26868e-05
2.30193e-05
2.33322e-05
2.36262e-05
2.39021e-05
2.41608e-05
2.44034e-05
2.46309e-05
2.48444e-05
2.50451e-05
2.52345e-05
2.5414e-05
2.55855e-05
2.57511e-05
2.59135e-05
2.60754e-05
2.62385e-05
2.64016e-05
2.65582e-05
2.66967e-05
2.6805e-05
2.68799e-05
2.69312e-05
2.69776e-05
2.70353e-05
2.7111e-05
2.72163e-05
2.74595e-05
2.7509e-05
2.75263e-05
2.75272e-05
2.75245e-05
2.75286e-05
2.75425e-05
2.75645e-05
2.75917e-05
2.76221e-05
2.76545e-05
2.76882e-05
2.7723e-05
2.77591e-05
2.77971e-05
2.78379e-05
2.78823e-05
2.79307e-05
2.79816e-05
2.80317e-05
2.80753e-05
2.81066e-05
2.81224e-05
2.81227e-05
2.81098e-05
2.80863e-05
2.80548e-05
2.80183e-05
2.7981e-05
2.79474e-05
2.79238e-05
2.79199e-05
2.79513e-05
2.80305e-05
2.81418e-05
2.82195e-05
2.81907e-05
2.80597e-05
2.7904e-05
2.7773e-05
2.75087e-05
2.73983e-05
2.73109e-05
2.72251e-05
2.71374e-05
2.70459e-05
2.6949e-05
2.68454e-05
2.67345e-05
2.66155e-05
2.64881e-05
2.6352e-05
2.62069e-05
2.60524e-05
2.58882e-05
2.57137e-05
2.55282e-05
2.53309e-05
2.51212e-05
2.48979e-05
2.46603e-05
2.44074e-05
2.41382e-05
2.38518e-05
2.35474e-05
2.3224e-05
2.2881e-05
2.25178e-05
2.21339e-05
1.75477e-05
2.36165e-05
2.19554e-05
2.2329e-05
2.26819e-05
2.30145e-05
2.33274e-05
2.36214e-05
2.38974e-05
2.41561e-05
2.43987e-05
2.46262e-05
2.48397e-05
2.50405e-05
2.523e-05
2.54096e-05
2.55812e-05
2.57471e-05
2.59098e-05
2.60721e-05
2.62355e-05
2.63989e-05
2.65556e-05
2.66941e-05
2.68024e-05
2.68773e-05
2.69286e-05
2.69751e-05
2.70328e-05
2.71087e-05
2.72142e-05
2.74579e-05
2.75073e-05
2.75247e-05
2.75256e-05
2.7523e-05
2.75271e-05
2.75411e-05
2.75631e-05
2.75905e-05
2.7621e-05
2.76535e-05
2.76874e-05
2.77223e-05
2.77585e-05
2.77966e-05
2.78375e-05
2.7882e-05
2.79303e-05
2.79811e-05
2.8031e-05
2.80743e-05
2.81055e-05
2.81214e-05
2.8122e-05
2.81096e-05
2.80866e-05
2.80558e-05
2.802e-05
2.79833e-05
2.79503e-05
2.79272e-05
2.79238e-05
2.79553e-05
2.80338e-05
2.8143e-05
2.82188e-05
2.8191e-05
2.80631e-05
2.79097e-05
2.77793e-05
2.75152e-05
2.74047e-05
2.73173e-05
2.72315e-05
2.71441e-05
2.70527e-05
2.6956e-05
2.68527e-05
2.6742e-05
2.66233e-05
2.64961e-05
2.63602e-05
2.62154e-05
2.60612e-05
2.58973e-05
2.5723e-05
2.55378e-05
2.53408e-05
2.51313e-05
2.49083e-05
2.4671e-05
2.44183e-05
2.41493e-05
2.38632e-05
2.35589e-05
2.32358e-05
2.28929e-05
2.25299e-05
2.21461e-05
1.75612e-05
2.36103e-05
2.19502e-05
2.23239e-05
2.26768e-05
2.30095e-05
2.33224e-05
2.36165e-05
2.38924e-05
2.41512e-05
2.43938e-05
2.46214e-05
2.48349e-05
2.50357e-05
2.52252e-05
2.5405e-05
2.55767e-05
2.57429e-05
2.59059e-05
2.60686e-05
2.62324e-05
2.63961e-05
2.65529e-05
2.66913e-05
2.67996e-05
2.68745e-05
2.6926e-05
2.69725e-05
2.70302e-05
2.71062e-05
2.72119e-05
2.74562e-05
2.75056e-05
2.7523e-05
2.75239e-05
2.75213e-05
2.75255e-05
2.75396e-05
2.75617e-05
2.75892e-05
2.76198e-05
2.76525e-05
2.76864e-05
2.77215e-05
2.77578e-05
2.7796e-05
2.7837e-05
2.78816e-05
2.79299e-05
2.79806e-05
2.80302e-05
2.80733e-05
2.81045e-05
2.81205e-05
2.81214e-05
2.81095e-05
2.80871e-05
2.80569e-05
2.80218e-05
2.79857e-05
2.79533e-05
2.79308e-05
2.79279e-05
2.79596e-05
2.80373e-05
2.81445e-05
2.82187e-05
2.81918e-05
2.80669e-05
2.79158e-05
2.7786e-05
2.75221e-05
2.74115e-05
2.7324e-05
2.72384e-05
2.71511e-05
2.706e-05
2.69635e-05
2.68604e-05
2.675e-05
2.66315e-05
2.65047e-05
2.63691e-05
2.62245e-05
2.60706e-05
2.5907e-05
2.5733e-05
2.5548e-05
2.53513e-05
2.51421e-05
2.49194e-05
2.46823e-05
2.44299e-05
2.41612e-05
2.38753e-05
2.35713e-05
2.32483e-05
2.29057e-05
2.25428e-05
2.21592e-05
1.75756e-05
2.36038e-05
2.19448e-05
2.23185e-05
2.26715e-05
2.30042e-05
2.33172e-05
2.36113e-05
2.38872e-05
2.41461e-05
2.43887e-05
2.46163e-05
2.48299e-05
2.50308e-05
2.52203e-05
2.54002e-05
2.55721e-05
2.57385e-05
2.59019e-05
2.60649e-05
2.62292e-05
2.63931e-05
2.65501e-05
2.66884e-05
2.67967e-05
2.68716e-05
2.69231e-05
2.69697e-05
2.70275e-05
2.71037e-05
2.72096e-05
2.74544e-05
2.75038e-05
2.75212e-05
2.75221e-05
2.75195e-05
2.75238e-05
2.7538e-05
2.75602e-05
2.75878e-05
2.76185e-05
2.76513e-05
2.76854e-05
2.77206e-05
2.7757e-05
2.77954e-05
2.78365e-05
2.78812e-05
2.79295e-05
2.79801e-05
2.80295e-05
2.80724e-05
2.81035e-05
2.81196e-05
2.81209e-05
2.81095e-05
2.80878e-05
2.80582e-05
2.80238e-05
2.79883e-05
2.79565e-05
2.79345e-05
2.79322e-05
2.7964e-05
2.8041e-05
2.81463e-05
2.8219e-05
2.8193e-05
2.80711e-05
2.79222e-05
2.7793e-05
2.75295e-05
2.74187e-05
2.73313e-05
2.72458e-05
2.71587e-05
2.70677e-05
2.69715e-05
2.68687e-05
2.67585e-05
2.66404e-05
2.65138e-05
2.63785e-05
2.62342e-05
2.60806e-05
2.59173e-05
2.57436e-05
2.5559e-05
2.53626e-05
2.51536e-05
2.49312e-05
2.46944e-05
2.44423e-05
2.41739e-05
2.38882e-05
2.35844e-05
2.32616e-05
2.29192e-05
2.25565e-05
2.21731e-05
1.75909e-05
2.3597e-05
2.19391e-05
2.23129e-05
2.26659e-05
2.29987e-05
2.33117e-05
2.36058e-05
2.38819e-05
2.41407e-05
2.43834e-05
2.4611e-05
2.48246e-05
2.50256e-05
2.52152e-05
2.53952e-05
2.55673e-05
2.57339e-05
2.58976e-05
2.60611e-05
2.62257e-05
2.639e-05
2.65471e-05
2.66854e-05
2.67937e-05
2.68686e-05
2.69202e-05
2.69668e-05
2.70247e-05
2.7101e-05
2.72071e-05
2.74524e-05
2.75019e-05
2.75193e-05
2.75202e-05
2.75177e-05
2.7522e-05
2.75362e-05
2.75586e-05
2.75863e-05
2.76172e-05
2.76501e-05
2.76843e-05
2.77196e-05
2.77562e-05
2.77947e-05
2.78359e-05
2.78807e-05
2.7929e-05
2.79796e-05
2.80288e-05
2.80716e-05
2.81026e-05
2.81189e-05
2.81205e-05
2.81096e-05
2.80885e-05
2.80596e-05
2.80259e-05
2.79911e-05
2.79599e-05
2.79385e-05
2.79366e-05
2.79687e-05
2.8045e-05
2.81486e-05
2.82198e-05
2.81948e-05
2.80757e-05
2.7929e-05
2.78004e-05
2.75372e-05
2.74264e-05
2.7339e-05
2.72536e-05
2.71667e-05
2.7076e-05
2.698e-05
2.68775e-05
2.67677e-05
2.66498e-05
2.65235e-05
2.63886e-05
2.62446e-05
2.60913e-05
2.59283e-05
2.57549e-05
2.55706e-05
2.53745e-05
2.51659e-05
2.49438e-05
2.47073e-05
2.44555e-05
2.41873e-05
2.39019e-05
2.35984e-05
2.32758e-05
2.29336e-05
2.25711e-05
2.21878e-05
1.76071e-05
2.359e-05
2.19333e-05
2.2307e-05
2.26601e-05
2.29929e-05
2.3306e-05
2.36002e-05
2.38763e-05
2.41351e-05
2.43779e-05
2.46055e-05
2.48192e-05
2.50202e-05
2.52099e-05
2.539e-05
2.55623e-05
2.57292e-05
2.58933e-05
2.60571e-05
2.62222e-05
2.63867e-05
2.6544e-05
2.66823e-05
2.67905e-05
2.68654e-05
2.69171e-05
2.69637e-05
2.70217e-05
2.70981e-05
2.72046e-05
2.74504e-05
2.74999e-05
2.75172e-05
2.75182e-05
2.75157e-05
2.752e-05
2.75344e-05
2.75569e-05
2.75847e-05
2.76157e-05
2.76487e-05
2.76831e-05
2.77185e-05
2.77553e-05
2.77939e-05
2.78353e-05
2.78802e-05
2.79285e-05
2.7979e-05
2.80281e-05
2.80707e-05
2.81017e-05
2.81182e-05
2.81203e-05
2.81099e-05
2.80894e-05
2.80612e-05
2.80281e-05
2.7994e-05
2.79634e-05
2.79426e-05
2.79413e-05
2.79736e-05
2.80493e-05
2.81512e-05
2.82211e-05
2.81971e-05