/*--------------------------------*- C++ -*----------------------------------*\
  =========                 |
  \\      /  F ield         | OpenFOAM: The Open Source CFD Toolbox
   \\    /   O peration     | Website:  https://openfoam.org
    \\  /    A nd           | Version:  9
     \\/     M anipulation  |
\*---------------------------------------------------------------------------*/
FoamFile
{
    format      ascii;
    class       volVectorField;
    location    "0.1";
    object      U;
}
// * * * * * * * * * * * * * * * * * * * * * * * * * * * * * * * * * * * * * //

dimensions      [0 1 -1 0 0 0 0];

internalField   nonuniform List<vector> 
20000
(
(8.9091e-05 0 0.00656579)
(7.2868e-05 0 0.012896)
(7.17307e-05 0 0.0189414)
(7.40839e-05 0 0.024743)
(7.65726e-05 0 0.0302764)
(7.81335e-05 0 0.0355177)
(7.78849e-05 0 0.0404467)
(7.53292e-05 0 0.0450464)
(7.02032e-05 0 0.0492964)
(6.23691e-05 0 0.0531654)
(5.17229e-05 0 0.0566069)
(3.81606e-05 0 0.0595565)
(2.15893e-05 0 0.0619303)
(1.97164e-06 0 0.0636187)
(-2.05858e-05 0 0.0644755)
(-4.55672e-05 0 0.0642968)
(-7.14996e-05 0 0.0627896)
(-9.50007e-05 0 0.0595382)
(-0.000109724 0 0.0540094)
(-0.000107078 0 0.0457146)
(-8.22006e-05 0 0.0347294)
(-4.42856e-05 0 0.0226192)
(-1.60192e-05 0 0.0130339)
(-8.71419e-06 0 0.0102767)
(-7.84339e-06 0 0.0156397)
(-2.73769e-06 0 0.0254962)
(-4.90213e-06 0 0.0342167)
(-2.13516e-05 0 0.0380924)
(-3.9528e-05 0 0.0361901)
(-4.40523e-05 0 0.029376)
(-3.31839e-05 0 0.0190749)
(-2.10643e-05 0 0.00941478)
(-1.82551e-05 0 0.00496953)
(-1.92348e-05 0 0.00499436)
(-1.86162e-05 0 0.0058919)
(-1.6551e-05 0 0.00492857)
(-1.25927e-05 0 0.00146248)
(-6.17663e-06 0 -0.00399584)
(3.02087e-06 0 -0.0107432)
(1.47581e-05 0 -0.0183001)
(2.7974e-05 0 -0.026361)
(4.23764e-05 0 -0.0347367)
(5.82507e-05 0 -0.0433476)
(7.66748e-05 0 -0.0522375)
(9.95167e-05 0 -0.0615821)
(0.000129138 0 -0.0716773)
(0.000167367 0 -0.0828928)
(0.000212745 0 -0.0955379)
(0.000255769 0 -0.109561)
(0.000275912 0 -0.124118)
(0.000249214 0 -0.137371)
(0.000168386 0 -0.14704)
(5.49117e-05 0 -0.151594)
(-5.64128e-05 0 -0.150996)
(-0.000143324 0 -0.146177)
(-0.000200246 0 -0.138149)
(-0.000226566 0 -0.127734)
(-0.00022262 0 -0.115896)
(-0.000192504 0 -0.10386)
(-0.000142306 0 -0.0929067)
(-7.21555e-05 0 -0.0844281)
(3.82379e-05 0 -0.0808114)
(0.00024374 0 -0.0869566)
(0.000592664 0 -0.110564)
(0.000842947 0 -0.153461)
(0.000328583 0 -0.190715)
(-0.000661795 0 -0.179361)
(-0.000932452 0 -0.124999)
(-0.000566842 0 -0.0727844)
(-0.000247583 0 -0.0413517)
(-0.000102748 0 -0.0266022)
(-4.50002e-05 0 -0.0195964)
(-1.75479e-05 0 -0.0153044)
(-2.74623e-06 0 -0.0122923)
(6.24069e-06 0 -0.00996472)
(1.2223e-05 0 -0.00798695)
(1.63637e-05 0 -0.00612487)
(1.92647e-05 0 -0.00421356)
(2.1275e-05 0 -0.00216553)
(2.30638e-05 0 2.98263e-05)
(2.4674e-05 0 0.00231311)
(2.58136e-05 0 0.00458776)
(2.66394e-05 0 0.00674861)
(2.70749e-05 0 0.00870048)
(2.70598e-05 0 0.0103701)
(2.66038e-05 0 0.011709)
(2.5787e-05 0 0.0126914)
(2.47452e-05 0 0.0133094)
(2.36508e-05 0 0.0135688)
(2.26895e-05 0 0.0134852)
(2.20346e-05 0 0.0130825)
(2.18199e-05 0 0.0123911)
(2.21229e-05 0 0.0114484)
(2.2975e-05 0 0.0102971)
(2.43952e-05 0 0.00898219)
(2.64162e-05 0 0.00754717)
(2.90216e-05 0 0.006032)
(3.2575e-05 0 0.00447191)
(3.67948e-05 0 0.00289608)
(3.44456e-05 0 0.001217)
(0.000156372 0 0.00676953)
(0.000130757 0 0.0129698)
(0.000131223 0 0.0189818)
(0.000135828 0 0.0247724)
(0.000139648 0 0.0303005)
(0.000141206 0 0.0355394)
(0.000138876 0 0.0404673)
(0.000131546 0 0.045066)
(0.000118538 0 0.0493143)
(9.94634e-05 0 0.0531808)
(7.40515e-05 0 0.0566187)
(4.2106e-05 0 0.0595639)
(3.57384e-06 0 0.0619322)
(-4.12876e-05 0 0.0636139)
(-9.158e-05 0 0.0644619)
(-0.000145147 0 0.0642706)
(-0.000197509 0 0.0627445)
(-0.000240378 0 0.0594641)
(-0.000260828 0 0.0538946)
(-0.000244652 0 0.0455558)
(-0.000189036 0 0.0345501)
(-0.000119927 0 0.0224766)
(-8.43416e-05 0 0.0129775)
(-9.63323e-05 0 0.0102828)
(-0.000111891 0 0.0156355)
(-0.000100063 0 0.0254496)
(-8.75195e-05 0 0.0341402)
(-0.000100638 0 0.0379941)
(-0.000123771 0 0.0360658)
(-0.000128029 0 0.0292286)
(-0.000109137 0 0.0189285)
(-9.37212e-05 0 0.00929262)
(-9.61574e-05 0 0.00485963)
(-9.76534e-05 0 0.00487256)
(-8.91128e-05 0 0.00575121)
(-7.68136e-05 0 0.00477232)
(-6.20115e-05 0 0.00129429)
(-4.27836e-05 0 -0.00417485)
(-1.77442e-05 0 -0.0109333)
(1.37987e-05 0 -0.0184994)
(5.01069e-05 0 -0.0265683)
(9.02268e-05 0 -0.0349521)
(0.00013498 0 -0.043572)
(0.000186727 0 -0.0524728)
(0.00024924 0 -0.0618315)
(0.000326675 0 -0.0719444)
(0.000420917 0 -0.0831806)
(0.00052563 0 -0.0958446)
(0.000617211 0 -0.109874)
(0.000650651 0 -0.124415)
(0.000577448 0 -0.13763)
(0.000386269 0 -0.147261)
(0.000124512 0 -0.151797)
(-0.00013396 0 -0.151201)
(-0.000339957 0 -0.146391)
(-0.000477545 0 -0.138371)
(-0.000541746 0 -0.127964)
(-0.000530966 0 -0.116136)
(-0.000452249 0 -0.104109)
(-0.000317026 0 -0.0931665)
(-0.000125409 0 -0.0847148)
(0.000160376 0 -0.0811688)
(0.000629927 0 -0.0874747)
(0.00133596 0 -0.111247)
(0.00177556 0 -0.153847)
(0.000670319 0 -0.190258)
(-0.00137265 0 -0.178879)
(-0.00198977 0 -0.125219)
(-0.00129899 0 -0.0732123)
(-0.000633904 0 -0.0416671)
(-0.000290787 0 -0.0268266)
(-0.000128316 0 -0.019774)
(-3.70565e-05 0 -0.0154595)
(1.76693e-05 0 -0.0124346)
(5.30177e-05 0 -0.0100966)
(7.77432e-05 0 -0.00810907)
(9.50908e-05 0 -0.00623706)
(0.000107157 0 -0.00431564)
(0.000115664 0 -0.00225756)
(0.000123973 0 -5.32174e-05)
(0.000130622 0 0.00223565)
(0.00013444 0 0.00451578)
(0.000137788 0 0.00668173)
(0.000140293 0 0.0086382)
(0.000141825 0 0.0103119)
(0.000142434 0 0.0116546)
(0.000142312 0 0.0126401)
(0.000141758 0 0.0132607)
(0.000141131 0 0.013522)
(0.000140797 0 0.0134398)
(0.000141065 0 0.0130379)
(0.000142132 0 0.0123471)
(0.000144061 0 0.011405)
(0.000146815 0 0.0102543)
(0.000150334 0 0.00893995)
(0.000154545 0 0.00750547)
(0.000159321 0 0.00599105)
(0.000165236 0 0.00443216)
(0.000171675 0 0.00286873)
(0.000160517 0 0.00121318)
(0.000106829 0 0.00679447)
(0.000102747 0 0.0129441)
(0.000116369 0 0.0189343)
(0.000130677 0 0.0247257)
(0.000141643 0 0.030266)
(0.000147273 0 0.0355218)
(0.000146027 0 0.0404686)
(0.000136914 0 0.0450867)
(0.000119391 0 0.049354)
(9.31583e-05 0 0.0532385)
(5.8021e-05 0 0.0566934)
(1.38945e-05 0 0.0596544)
(-3.90575e-05 0 0.0620369)
(-0.000100157 0 0.0637304)
(-0.000167772 0 0.0645863)
(-0.000238615 0 0.0643963)
(-0.000306602 0 0.0628605)
(-0.000361475 0 0.0595542)
(-0.000388488 0 0.0539396)
(-0.00037292 0 0.0455446)
(-0.000314577 0 0.0344991)
(-0.000245969 0 0.022435)
(-0.000219706 0 0.0129828)
(-0.000243739 0 0.0103063)
(-0.000257263 0 0.0156271)
(-0.000224959 0 0.0254247)
(-0.000190038 0 0.0341471)
(-0.000193828 0 0.0380378)
(-0.000219528 0 0.0361151)
(-0.000229375 0 0.02926)
(-0.000214309 0 0.0189483)
(-0.000203318 0 0.00931934)
(-0.000208581 0 0.00488733)
(-0.000203492 0 0.00489221)
(-0.000181911 0 0.00576902)
(-0.000156937 0 0.00479361)
(-0.000132143 0 0.00131776)
(-0.000102765 0 -0.00415117)
(-6.38388e-05 0 -0.0109157)
(-1.439e-05 0 -0.0184847)
(4.29771e-05 0 -0.0265557)
(0.000106843 0 -0.0349416)
(0.000178599 0 -0.0435648)
(0.000261209 0 -0.0524712)
(0.000359145 0 -0.0618383)
(0.000476601 0 -0.0719614)
(0.000613635 0 -0.0832049)
(0.000758444 0 -0.0958631)
(0.000876675 0 -0.109858)
(0.00090856 0 -0.124326)
(0.000793597 0 -0.137443)
(0.000521595 0 -0.146995)
(0.000157322 0 -0.151509)
(-0.000202272 0 -0.150943)
(-0.000491308 0 -0.146191)
(-0.000685147 0 -0.138237)
(-0.000773526 0 -0.127898)
(-0.000751858 0 -0.116136)
(-0.000628011 0 -0.104165)
(-0.000416059 0 -0.0932717)
(-0.000115617 0 -0.0848815)
(0.000313822 0 -0.0814346)
(0.000958577 0 -0.0878866)
(0.00183807 0 -0.111645)
(0.00230301 0 -0.153518)
(0.000810464 0 -0.188745)
(-0.0018151 0 -0.17768)
(-0.00261437 0 -0.125366)
(-0.00174328 0 -0.073807)
(-0.000881117 0 -0.0420791)
(-0.000411306 0 -0.0270445)
(-0.00016879 0 -0.0198862)
(-2.09352e-05 0 -0.0155181)
(7.36159e-05 0 -0.0124661)
(0.000137743 0 -0.0101122)
(0.000183543 0 -0.00811522)
(0.000216757 0 -0.00623741)
(0.000241121 0 -0.00431222)
(0.000259977 0 -0.00225166)
(0.00027398 0 -4.71496e-05)
(0.00028542 0 0.00224084)
(0.000296357 0 0.00452102)
(0.000305347 0 0.00668768)
(0.000312391 0 0.00864551)
(0.000317648 0 0.010321)
(0.000321289 0 0.0116655)
(0.000323608 0 0.0126527)
(0.000325009 0 0.0132744)
(0.000325946 0 0.0135361)
(0.000326855 0 0.0134534)
(0.000328084 0 0.0130503)
(0.000329829 0 0.0123577)
(0.000332117 0 0.0114135)
(0.000334863 0 0.0102605)
(0.000337947 0 0.00894379)
(0.000341151 0 0.00750702)
(0.000344109 0 0.00599116)
(0.000346884 0 0.00443429)
(0.000349684 0 0.00288073)
(0.000334599 0 0.0012384)
(5.12454e-05 0 0.00679288)
(5.52779e-05 0 0.0129156)
(6.92698e-05 0 0.018889)
(8.54827e-05 0 0.0246841)
(9.86504e-05 0 0.0302407)
(0.000105753 0 0.0355181)
(0.000104675 0 0.0404884)
(9.41277e-05 0 0.0451302)
(7.33867e-05 0 0.0494205)
(4.2047e-05 0 0.0533269)
(-1.15949e-07 0 0.0568022)
(-5.31546e-05 0 0.0597817)
(-0.000116766 0 0.0621801)
(-0.00019 0 0.0638857)
(-0.000270815 0 0.0647479)
(-0.000355317 0 0.0645551)
(-0.000436598 0 0.0630029)
(-0.000503381 0 0.0596613)
(-0.000539853 0 0.0539909)
(-0.000530476 0 0.045531)
(-0.000474894 0 0.0344423)
(-0.000406546 0 0.022389)
(-0.000379536 0 0.0129867)
(-0.000401316 0 0.010331)
(-0.000407655 0 0.0156224)
(-0.000363239 0 0.0254073)
(-0.00031852 0 0.0341677)
(-0.000320515 0 0.038101)
(-0.000350523 0 0.0361847)
(-0.000365265 0 0.0293085)
(-0.000351696 0 0.0189817)
(-0.000340074 0 0.00935923)
(-0.000343063 0 0.00492994)
(-0.0003309 0 0.0049286)
(-0.000299465 0 0.00580453)
(-0.000264735 0 0.00483223)
(-0.000230137 0 0.00135558)
(-0.00019053 0 -0.00411418)
(-0.000138462 0 -0.0108863)
(-7.16777e-05 0 -0.0184594)
(5.54209e-06 0 -0.0265338)
(9.17779e-05 0 -0.0349232)
(0.000188747 0 -0.0435511)
(0.000299522 0 -0.0524649)
(0.000428678 0 -0.0618423)
(0.000579793 0 -0.0719766)
(0.00075079 0 -0.0832256)
(0.000925276 0 -0.09587)
(0.00106102 0 -0.109813)
(0.00108896 0 -0.124181)
(0.000941878 0 -0.137172)
(0.000611053 0 -0.14662)
(0.000173188 0 -0.151098)
(-0.00025959 0 -0.150562)
(-0.000609413 0 -0.145879)
(-0.000843832 0 -0.13801)
(-0.000947795 0 -0.127764)
(-0.00091402 0 -0.116093)
(-0.000750587 0 -0.104205)
(-0.000473775 0 -0.0933859)
(-8.44834e-05 0 -0.0850846)
(0.000455038 0 -0.0817666)
(0.00121966 0 -0.0883712)
(0.0021937 0 -0.112043)
(0.00264522 0 -0.153026)
(0.000917218 0 -0.186948)
(-0.00204648 0 -0.1762)
(-0.00297867 0 -0.125368)
(-0.00202192 0 -0.0744071)
(-0.00103484 0 -0.042546)
(-0.000469903 0 -0.0273064)
(-0.00016062 0 -0.0200268)
(3.745e-05 0 -0.0155926)
(0.000169931 0 -0.0125041)
(0.00026341 0 -0.0101287)
(0.000331728 0 -0.0081186)
(0.0003827 0 -0.00623276)
(0.000421275 0 -0.00430299)
(0.000451301 0 -0.00224037)
(0.000474723 0 -3.70376e-05)
(0.000494715 0 0.00225236)
(0.000512887 0 0.00453329)
(0.00052794 0 0.00670061)
(0.000540161 0 0.0086594)
(0.000549721 0 0.0103361)
(0.000556859 0 0.0116817)
(0.000561968 0 0.0126695)
(0.000565555 0 0.0132912)
(0.000568164 0 0.0135521)
(0.000570314 0 0.0134677)
(0.000572413 0 0.0130622)
(0.000574708 0 0.0123669)
(0.000577265 0 0.0114199)
(0.000580037 0 0.0102643)
(0.000582933 0 0.00894527)
(0.000585706 0 0.00750705)
(0.000587746 0 0.00599187)
(0.000588856 0 0.00443996)
(0.000590437 0 0.00289627)
(0.000576318 0 0.00125577)
(-2.67281e-05 0 0.00678494)
(-2.04733e-05 0 0.0128913)
(-1.08287e-05 0 0.0188509)
(2.13147e-06 0 0.0246471)
(1.29841e-05 0 0.0302169)
(1.82259e-05 0 0.0355139)
(1.52153e-05 0 0.0405068)
(2.24836e-06 0 0.045172)
(-2.17677e-05 0 0.0494852)
(-5.75111e-05 0 0.0534133)
(-0.00010536 0 0.0569086)
(-0.000165437 0 0.0599059)
(-0.000237421 0 0.062319)
(-0.000320229 0 0.0640349)
(-0.000411566 0 0.0649006)
(-0.000507085 0 0.0647016)
(-0.000599172 0 0.0631286)
(-0.000675568 0 0.059747)
(-0.000719321 0 0.0540173)
(-0.000713939 0 0.045492)
(-0.000658565 0 0.0343639)
(-0.000586672 0 0.022328)
(-0.000553569 0 0.0129814)
(-0.000569709 0 0.0103488)
(-0.000573208 0 0.0156069)
(-0.000527891 0 0.0253685)
(-0.000483261 0 0.0341555)
(-0.00048678 0 0.0381256)
(-0.00051919 0 0.0362146)
(-0.000535104 0 0.0293186)
(-0.00051925 0 0.0189793)
(-0.000503084 0 0.0093646)
(-0.000501624 0 0.00493598)
(-0.000484161 0 0.00492325)
(-0.000446366 0 0.00579249)
(-0.000404434 0 0.00481922)
(-0.000360184 0 0.00133878)
(-0.000309383 0 -0.00413701)
(-0.000244038 0 -0.0109184)
(-0.000160753 0 -0.0184992)
(-6.50443e-05 0 -0.0265807)
(4.21951e-05 0 -0.034977)
(0.000162462 0 -0.0436135)
(0.000298636 0 -0.0525384)
(0.000455044 0 -0.0619296)
(0.000634341 0 -0.0720778)
(0.000832399 0 -0.0833335)
(0.00102916 0 -0.0959629)
(0.00117703 0 -0.109851)
(0.00120143 0 -0.124114)
(0.00103208 0 -0.136973)
(0.000662005 0 -0.146314)
(0.000175086 0 -0.150755)
(-0.000307446 0 -0.15025)
(-0.000699166 0 -0.145639)
(-0.000960879 0 -0.13786)
(-0.00107345 0 -0.127713)
(-0.00102734 0 -0.116142)
(-0.000830514 0 -0.104345)
(-0.000501185 0 -0.0936103)
(-4.29316e-05 0 -0.0854057)
(0.000577442 0 -0.0822208)
(0.00142208 0 -0.0889685)
(0.00244174 0 -0.112518)
(0.00286538 0 -0.15258)
(0.00102495 0 -0.185221)
(-0.0020936 0 -0.174759)
(-0.00312963 0 -0.12537)
(-0.00216597 0 -0.0750607)
(-0.00110669 0 -0.0431038)
(-0.000466363 0 -0.0276625)
(-9.87032e-05 0 -0.0202556)
(0.000145139 0 -0.0157476)
(0.000313943 0 -0.0126145)
(0.000436808 0 -0.0102105)
(0.000528673 0 -0.00818112)
(0.000598726 0 -0.00628159)
(0.000653172 0 -0.00434236)
(0.000696191 0 -0.00227342)
(0.000731382 0 -6.58306e-05)
(0.000761544 0 0.0022272)
(0.000787321 0 0.00451117)
(0.000808841 0 0.00668159)
(0.000826589 0 0.00864364)
(0.000840762 0 0.0103236)
(0.000851708 0 0.0116722)
(0.000859938 0 0.0126626)
(0.000866064 0 0.0132861)
(0.000870738 0 0.0135478)
(0.000874568 0 0.0134636)
(0.000878047 0 0.0130575)
(0.000881491 0 0.0123612)
(0.000885028 0 0.0114131)
(0.000888659 0 0.0102566)
(0.000892326 0 0.00893713)
(0.000895753 0 0.0074995)
(0.000898143 0 0.00598753)
(0.000899215 0 0.00444267)
(0.000901796 0 0.00290727)
(0.000888513 0 0.00126613)
(-0.000149173 0 0.0067765)
(-0.000141756 0 0.0128712)
(-0.000135654 0 0.0188213)
(-0.000125853 0 0.0246175)
(-0.000117592 0 0.0301978)
(-0.000114649 0 0.0355126)
(-0.000119913 0 0.0405272)
(-0.000135391 0 0.0452158)
(-0.000162439 0 0.0495523)
(-0.000201932 0 0.0535027)
(-0.00025438 0 0.0570187)
(-0.000319965 0 0.0600343)
(-0.000398362 0 0.0624625)
(-0.000488397 0 0.0641886)
(-0.000587549 0 0.0650575)
(-0.000691067 0 0.0648511)
(-0.000790729 0 0.0632555)
(-0.000873491 0 0.0598317)
(-0.000921671 0 0.0540402)
(-0.000918548 0 0.0454477)
(-0.000863601 0 0.0342791)
(-0.00079033 0 0.0222598)
(-0.000753735 0 0.0129678)
(-0.000766135 0 0.0103587)
(-0.000769076 0 0.0155841)
(-0.000726012 0 0.0253192)
(-0.000683299 0 0.034128)
(-0.000687482 0 0.0381321)
(-0.000720041 0 0.0362257)
(-0.000735542 0 0.0293103)
(-0.000717326 0 0.0189584)
(-0.000696616 0 0.00935052)
(-0.000690305 0 0.0049208)
(-0.000667941 0 0.00489403)
(-0.000624583 0 0.00575361)
(-0.000576097 0 0.00477719)
(-0.000522958 0 0.00129213)
(-0.000460467 0 -0.00419297)
(-0.000381743 0 -0.0109847)
(-0.000283507 0 -0.0185765)
(-0.000170559 0 -0.0266674)
(-4.37522e-05 0 -0.035073)
(9.78935e-05 0 -0.0437201)
(0.000257052 0 -0.0526582)
(0.000437412 0 -0.0620646)
(0.000640527 0 -0.0722272)
(0.000860292 0 -0.0834884)
(0.0010737 0 -0.0960998)
(0.00122955 0 -0.109928)
(0.00125083 0 -0.124083)
(0.00106717 0 -0.136807)
(0.000673893 0 -0.14604)
(0.000158655 0 -0.150443)
(-0.000352994 0 -0.149971)
(-0.000769282 0 -0.145437)
(-0.00104578 0 -0.137754)
(-0.00115986 0 -0.127714)
(-0.00110007 0 -0.116251)
(-0.000873976 0 -0.104552)
(-0.000501266 0 -0.0939085)
(1.13352e-05 0 -0.0858036)
(0.000691586 0 -0.0827484)
(0.00158815 0 -0.0896225)
(0.00261821 0 -0.113014)
(0.00299873 0 -0.152141)
(0.00112461 0 -0.183545)
(-0.00201401 0 -0.173356)
(-0.00311036 0 -0.125375)
(-0.0021805 0 -0.0757489)
(-0.00108662 0 -0.0437257)
(-0.000389926 0 -0.0280866)
(2.6291e-05 0 -0.0205482)
(0.000310857 0 -0.0159606)
(0.000513902 0 -0.0127772)
(0.000665424 0 -0.0103394)
(0.000781141 0 -0.00828567)
(0.000871104 0 -0.006368)
(0.000942538 0 -0.00441524)
(0.00100023 0 -0.00233662)
(0.00104831 0 -0.000121355)
(0.00108916 0 0.00217732)
(0.00112357 0 0.00446645)
(0.00115256 0 0.00664205)
(0.00117663 0 0.00860932)
(0.00119613 0 0.0102944)
(0.00121156 0 0.0116479)
(0.00122357 0 0.0126425)
(0.00123286 0 0.0132693)
(0.00124018 0 0.0135335)
(0.00124624 0 0.0134507)
(0.00125159 0 0.0130452)
(0.00125661 0 0.0123491)
(0.00126146 0 0.0114009)
(0.00126619 0 0.0102444)
(0.00127075 0 0.00892527)
(0.0012748 0 0.00748926)
(0.00127745 0 0.00598161)
(0.00127862 0 0.00444401)
(0.00128259 0 0.00291522)
(0.00126877 0 0.00127305)
(-0.000317222 0 0.00676782)
(-0.000309051 0 0.0128538)
(-0.000305078 0 0.0187975)
(-0.000297091 0 0.0245947)
(-0.000290573 0 0.0301852)
(-0.000289296 0 0.0355176)
(-0.000296301 0 0.0405546)
(-0.000313818 0 0.0452675)
(-0.000343361 0 0.0496287)
(-0.000385904 0 0.0536029)
(-0.000442023 0 0.057141)
(-0.000511916 0 0.0601763)
(-0.000595233 0 0.0626205)
(-0.000690708 0 0.0643576)
(-0.000795624 0 0.0652298)
(-0.000904915 0 0.0650154)
(-0.00100992 0 0.0633958)
(-0.0010971 0 0.0599273)
(-0.00114848 0 0.0540714)
(-0.00114761 0 0.0454089)
(-0.00109469 0 0.0341973)
(-0.00102304 0 0.0221911)
(-0.000985975 0 0.0129505)
(-0.000996037 0 0.0103654)
(-0.000998153 0 0.0155624)
(-0.000956612 0 0.0252744)
(-0.000915101 0 0.0341053)
(-0.000919124 0 0.0381428)
(-0.000951175 0 0.0362405)
(-0.000966379 0 0.0293044)
(-0.000946875 0 0.018938)
(-0.00092248 0 0.00933535)
(-0.000911192 0 0.00490453)
(-0.000883543 0 0.00486434)
(-0.000834413 0 0.00571422)
(-0.000779183 0 0.00473376)
(-0.000717851 0 0.00124354)
(-0.000644193 0 -0.00425173)
(-0.000552779 0 -0.0110555)
(-0.000440868 0 -0.0186602)
(-0.000311589 0 -0.0267617)
(-0.000166566 0 -0.0351777)
(-5.2127e-06 0 -0.0438364)
(0.000174847 0 -0.0527881)
(0.000376535 0 -0.0622096)
(0.000600223 0 -0.0723852)
(0.000837962 0 -0.0836492)
(0.00106441 0 -0.096238)
(0.00122621 0 -0.11)
(0.00124577 0 -0.12404)
(0.00105454 0 -0.136624)
(0.000650372 0 -0.145746)
(0.000122618 0 -0.150109)
(-0.00040184 0 -0.149671)
(-0.00082842 0 -0.145217)
(-0.00110894 0 -0.137637)
(-0.0012179 0 -0.127713)
(-0.00114223 0 -0.116367)
(-0.000889075 0 -0.104776)
(-0.000479193 0 -0.0942303)
(7.75237e-05 0 -0.0862291)
(0.00080319 0 -0.0833014)
(0.00173401 0 -0.0902852)
(0.00275637 0 -0.113485)
(0.00308924 0 -0.151666)
(0.00122629 0 -0.181874)
(-0.00185325 0 -0.171947)
(-0.00296992 0 -0.125339)
(-0.00208299 0 -0.0764262)
(-0.000973787 0 -0.0443693)
(-0.000235441 0 -0.0285416)
(0.00022004 0 -0.020871)
(0.000540144 0 -0.0162009)
(0.000774808 0 -0.0129642)
(0.000953783 0 -0.0104895)
(0.00109315 0 -0.00840873)
(0.00120352 0 -0.00647057)
(0.00129264 0 -0.00450228)
(0.00136591 0 -0.00241218)
(0.00142743 0 -0.000187892)
(0.00147961 0 0.00211787)
(0.00152383 0 0.00441352)
(0.0015613 0 0.00659542)
(0.00159257 0 0.00856889)
(0.00161821 0 0.01026)
(0.00163887 0 0.0116191)
(0.00165529 0 0.0126186)
(0.0016683 0 0.0132494)
(0.00167875 0 0.0135165)
(0.0016874 0 0.0134356)
(0.00169487 0 0.0130312)
(0.00170157 0 0.0123355)
(0.00170774 0 0.0113877)
(0.00171344 0 0.0102315)
(0.00171861 0 0.00891315)
(0.00172291 0 0.00747941)
(0.00172543 0 0.00597656)
(0.0017265 0 0.00444571)
(0.00173176 0 0.00292199)
(0.00171673 0 0.00127856)
(-0.000523414 0 0.00676067)
(-0.000515418 0 0.0128392)
(-0.000513414 0 0.0187781)
(-0.000507053 0 0.0245766)
(-0.000502074 0 0.0301771)
(-0.000502197 0 0.0355273)
(-0.000510619 0 0.0405872)
(-0.000529786 0 0.0453255)
(-0.000561362 0 0.0497125)
(-0.0006064 0 0.0537117)
(-0.000665517 0 0.057273)
(-0.000738916 0 0.060329)
(-0.00082621 0 0.0627903)
(-0.000926056 0 0.0645387)
(-0.00103558 0 0.0654143)
(-0.00114948 0 0.0651914)
(-0.00125879 0 0.0635467)
(-0.00134964 0 0.060032)
(-0.00140394 0 0.0541099)
(-0.00140561 0 0.0453764)
(-0.00135547 0 0.0341208)
(-0.00128641 0 0.0221254)
(-0.00124969 0 0.0129328)
(-0.00125754 0 0.0103708)
(-0.00125824 0 0.0155426)
(-0.00121758 0 0.0252345)
(-0.00117714 0 0.0340885)
(-0.00118132 0 0.0381597)
(-0.00121332 0 0.0362616)
(-0.00122868 0 0.0293041)
(-0.00120839 0 0.0189214)
(-0.00118058 0 0.00932233)
(-0.00116411 0 0.00489025)
(-0.00113089 0 0.00483741)
(-0.001076 0 0.005678)
(-0.00101405 0 0.00469297)
(-0.000944894 0 0.00119635)
(-0.000861111 0 -0.00430962)
(-0.000758092 0 -0.0111267)
(-0.000633213 0 -0.0187452)
(-0.000488426 0 -0.0268583)
(-0.000326401 0 -0.0352856)
(-0.000146744 0 -0.0439563)
(5.24846e-05 0 -0.0529217)
(0.00027345 0 -0.0623577)
(0.000515399 0 -0.0725449)
(0.000768828 0 -0.0838086)
(0.00100665 0 -0.0963703)
(0.00117432 0 -0.110061)
(0.00119473 0 -0.123981)
(0.00100197 0 -0.136423)
(0.000596408 0 -0.145431)
(6.78492e-05 0 -0.149754)
(-0.000457171 0 -0.14935)
(-0.000882983 0 -0.144978)
(-0.00115879 0 -0.137507)
(-0.00125684 0 -0.127704)
(-0.00116287 0 -0.116483)
(-0.000883645 0 -0.105006)
(-0.00044076 0 -0.0945648)
(0.000152993 0 -0.0866702)
(0.000914499 0 -0.0838664)
(0.00186983 0 -0.0909432)
(0.00287983 0 -0.113925)
(0.00317164 0 -0.151162)
(0.00134633 0 -0.180225)
(-0.00163439 0 -0.170548)
(-0.00274388 0 -0.125266)
(-0.00189459 0 -0.0770828)
(-0.000776101 0 -0.0450215)
(-4.631e-06 0 -0.0290165)
(0.000483596 0 -0.0212158)
(0.000835197 0 -0.0164623)
(0.0010991 0 -0.0131708)
(0.0013043 0 -0.0106575)
(0.00146694 0 -0.008548)
(0.00159795 0 -0.00658795)
(0.00170527 0 -0.004603)
(0.00179464 0 -0.00250014)
(0.00187015 0 -0.000265777)
(0.00193447 0 0.00204845)
(0.00198938 0 0.00435175)
(0.00203607 0 0.00654089)
(0.00207528 0 0.00852139)
(0.00210772 0 0.0102193)
(0.00213418 0 0.0115846)
(0.00215553 0 0.0125897)
(0.00217269 0 0.013225)
(0.00218658 0 0.0134956)
(0.00219807 0 0.0134171)
(0.00220782 0 0.0130143)
(0.0022163 0 0.0123197)
(0.00222378 0 0.0113727)
(0.00223036 0 0.0102175)
(0.00223601 0 0.00890076)
(0.0022404 0 0.00747004)
(0.00224273 0 0.00597226)
(0.00224377 0 0.0044475)
(0.00225041 0 0.00292777)
(0.00223396 0 0.00128311)
(-0.000763999 0 0.00675627)
(-0.000756773 0 0.012829)
(-0.000757131 0 0.0187636)
(-0.000752803 0 0.0245633)
(-0.00074969 0 0.0301729)
(-0.000751411 0 0.0355402)
(-0.000761288 0 0.0406229)
(-0.000781988 0 0.045387)
(-0.000815353 0 0.0498004)
(-0.000862544 0 0.0538253)
(-0.00092423 0 0.0574107)
(-0.00100063 0 0.060488)
(-0.00109133 0 0.0629667)
(-0.00119493 0 0.0647269)
(-0.00130843 0 0.0656057)
(-0.00142635 0 0.0653739)
(-0.00153945 0 0.0637032)
(-0.00163359 0 0.0601412)
(-0.00169057 0 0.0541523)
(-0.00169458 0 0.0453478)
(-0.00164692 0 0.0340484)
(-0.00158003 0 0.0220624)
(-0.00154337 0 0.0129149)
(-0.00154905 0 0.0103749)
(-0.00154846 0 0.0155231)
(-0.00150891 0 0.0251961)
(-0.00146997 0 0.0340729)
(-0.00147488 0 0.0381776)
(-0.00150732 0 0.0362838)
(-0.00152303 0 0.0293049)
(-0.00150196 0 0.018905)
(-0.0014707 0 0.00930784)
(-0.00144906 0 0.00487372)
(-0.00141033 0 0.00480818)
(-0.00134996 0 0.00563927)
(-0.00128166 0 0.00464907)
(-0.00120506 0 0.00114467)
(-0.00111198 0 -0.00437314)
(-0.000998136 0 -0.0112043)
(-0.00086084 0 -0.0188373)
(-0.000701504 0 -0.0269633)
(-0.000523548 0 -0.0354026)
(-0.000326777 0 -0.044086)
(-0.000109776 0 -0.0530652)
(0.000128924 0 -0.0625152)
(0.000387577 0 -0.0727126)
(0.000655432 0 -0.0839738)
(0.000904159 0 -0.0965053)
(0.00107871 0 -0.110122)
(0.00110313 0 -0.12392)
(0.000914411 0 -0.136219)
(0.00051519 0 -0.145116)
(-4.98059e-06 0 -0.149398)
(-0.000521009 0 -0.149029)
(-0.00093723 0 -0.144741)
(-0.00120109 0 -0.137381)
(-0.00128318 0 -0.127704)
(-0.00116841 0 -0.116611)
(-0.000863228 0 -0.105254)
(-0.000389895 0 -0.0949188)
(0.000236354 0 -0.0871311)
(0.00102782 0 -0.0844461)
(0.0020027 0 -0.0916004)
(0.00300189 0 -0.114344)
(0.00326388 0 -0.150655)
(0.00149441 0 -0.178631)
(-0.00136644 0 -0.169192)
(-0.00245054 0 -0.125182)
(-0.00162987 0 -0.0777292)
(-0.000502011 0 -0.0456854)
(0.000298602 0 -0.0295134)
(0.000815958 0 -0.0215852)
(0.0011966 0 -0.0167487)
(0.0014881 0 -0.0134018)
(0.00171867 0 -0.0108487)
(0.00190434 0 -0.00870915)
(0.00205618 0 -0.00672593)
(0.00218218 0 -0.00472307)
(0.00228818 0 -0.00260607)
(0.00237832 0 -0.000360229)
(0.00245553 0 0.00196387)
(0.00252175 0 0.00427608)
(0.00257826 0 0.00647363)
(0.00262598 0 0.0084623)
(0.00266577 0 0.0101681)
(0.00269852 0 0.0115407)
(0.00272521 0 0.0125522)
(0.00274688 0 0.0131931)
(0.00276454 0 0.0134681)
(0.00277911 0 0.0133929)
(0.00279133 0 0.0129926)
(0.00280173 0 0.0123001)
(0.00281062 0 0.0113549)
(0.00281814 0 0.0102017)
(0.0028243 0 0.00888746)
(0.00282884 0 0.00746051)
(0.00283111 0 0.00596792)
(0.00283232 0 0.00444865)
(0.00284044 0 0.00293228)
(0.00282244 0 0.0012868)
(-0.00103829 0 0.00675518)
(-0.00103204 0 0.0128241)
(-0.00103501 0 0.0187554)
(-0.00103307 0 0.0245559)
(-0.00103223 0 0.0301738)
(-0.00103592 0 0.0355572)
(-0.0010475 0 0.0406621)
(-0.00106983 0 0.0454519)
(-0.00110495 0 0.049892)
(-0.00115415 0 0.053943)
(-0.00121818 0 0.0575529)
(-0.00129727 0 0.0606519)
(-0.00139102 0 0.0631483)
(-0.00149798 0 0.0649203)
(-0.00161505 0 0.0658024)
(-0.00173658 0 0.0655612)
(-0.00185306 0 0.0638636)
(-0.00195009 0 0.0602534)
(-0.00200933 0 0.0541969)
(-0.00201514 0 0.0453213)
(-0.00196921 0 0.0339779)
(-0.00190366 0 0.0220002)
(-0.00186663 0 0.0128957)
(-0.00187037 0 0.0103773)
(-0.0018692 0 0.0155035)
(-0.00183153 0 0.0251586)
(-0.0017947 0 0.0340573)
(-0.00180078 0 0.0381947)
(-0.00183385 0 0.036305)
(-0.00184981 0 0.0293043)
(-0.00182775 0 0.0188861)
(-0.00179305 0 0.00928947)
(-0.00176646 0 0.00485259)
(-0.00172259 0 0.0047741)
(-0.00165716 0 0.00559521)
(-0.00158303 0 0.00459915)
(-0.00149943 0 0.00108591)
(-0.00139767 0 -0.00444499)
(-0.00127347 0 -0.0112912)
(-0.00112433 0 -0.0189398)
(-0.000951408 0 -0.0270798)
(-0.000758434 0 -0.0355321)
(-0.000545567 0 -0.0442287)
(-0.000311907 0 -0.053222)
(-5.66052e-05 0 -0.0626857)
(0.000217745 0 -0.0728924)
(0.000499417 0 -0.0841494)
(0.00075926 0 -0.0966487)
(0.000942243 0 -0.11019)
(0.000973973 0 -0.123866)
(0.000794442 0 -0.136024)
(0.000408307 0 -0.144811)
(-9.57539e-05 0 -0.149055)
(-0.00059486 0 -0.14872)
(-0.000994042 0 -0.144518)
(-0.00123968 0 -0.13727)
(-0.00130126 0 -0.127721)
(-0.00116309 0 -0.116758)
(-0.000831348 0 -0.105522)
(-0.000328821 0 -0.0952952)
(0.00032735 0 -0.0876135)
(0.00114554 0 -0.0850424)
(0.00213769 0 -0.0922618)
(0.00312971 0 -0.114754)
(0.00337371 0 -0.150162)
(0.00167478 0 -0.17711)
(-0.00105224 0 -0.167898)
(-0.00209764 0 -0.125102)
(-0.00129688 0 -0.078373)
(-0.000157598 0 -0.0463637)
(0.00067081 0 -0.0300332)
(0.00121583 0 -0.0219803)
(0.00162442 0 -0.0170615)
(0.00194276 0 -0.0136589)
(0.00219838 0 -0.0110653)
(0.00240719 0 -0.00889462)
(0.00258022 0 -0.00688703)
(0.00272542 0 -0.00486488)
(0.00284861 0 -0.00273227)
(0.00295405 0 -0.000473466)
(0.00304478 0 0.00186188)
(0.0031229 0 0.00418433)
(0.00318981 0 0.00639165)
(0.00324659 0 0.0083898)
(0.00329421 0 0.0101047)
(0.0033337 0 0.0114859)
(0.00336615 0 0.0125051)
(0.00339269 0 0.0131527)
(0.00341442 0 0.0134331)
(0.00343234 0 0.0133625)
(0.00344726 0 0.0129658)
(0.00345975 0 0.0122763)
(0.00347019 0 0.011334)
(0.00347877 0 0.0101837)
(0.00348556 0 0.008873)
(0.0034904 0 0.00745045)
(0.00349276 0 0.00596311)
(0.00349425 0 0.00444891)
(0.00350388 0 0.00293562)
(0.00348419 0 0.00128982)
(-0.00134585 0 0.00675753)
(-0.00134069 0 0.012825)
(-0.00134644 0 0.0187542)
(-0.00134718 0 0.0245557)
(-0.001349 0 0.0301809)
(-0.00135509 0 0.0355793)
(-0.00136873 0 0.0407057)
(-0.00139292 0 0.0455208)
(-0.0014299 0 0.0499878)
(-0.00148111 0 0.0540652)
(-0.00154738 0 0.0576999)
(-0.00162902 0 0.0608211)
(-0.00172559 0 0.0633355)
(-0.00183564 0 0.0651194)
(-0.00195597 0 0.0660045)
(-0.00208075 0 0.0657534)
(-0.00220024 0 0.0640282)
(-0.00229975 0 0.0603687)
(-0.00236073 0 0.0542437)
(-0.00236771 0 0.0452964)
(-0.00232269 0 0.0339086)
(-0.00225762 0 0.021938)
(-0.00221972 0 0.012875)
(-0.00222173 0 0.0103783)
(-0.0022208 0 0.0154847)
(-0.00218603 0 0.0251231)
(-0.00215218 0 0.0340431)
(-0.00215986 0 0.0382121)
(-0.00219359 0 0.0363257)
(-0.00220953 0 0.0293024)
(-0.00218619 0 0.0188648)
(-0.002148 0 0.00926754)
(-0.0021168 0 0.00482743)
(-0.00206835 0 0.00473593)
(-0.00199843 0 0.00554671)
(-0.00191898 0 0.00454411)
(-0.00182887 0 0.00102119)
(-0.001719 0 -0.00452387)
(-0.00158489 0 -0.0113863)
(-0.00142445 0 -0.0190517)
(-0.00123876 0 -0.0272068)
(-0.00103155 0 -0.0356729)
(-0.000803438 0 -0.0443833)
(-0.000553983 0 -0.0533909)
(-0.000282884 0 -0.0628681)
(6.56353e-06 0 -0.0730832)
(0.000301907 0 -0.0843348)
(0.000573519 0 -0.0968005)
(0.000766786 0 -0.110265)
(0.000809176 0 -0.123821)
(0.000643667 0 -0.135841)
(0.000276649 0 -0.144521)
(-0.000204624 0 -0.148728)
(-0.000679985 0 -0.148428)
(-0.00105564 0 -0.14431)
(-0.00127749 0 -0.137175)
(-0.00131432 0 -0.127755)
(-0.00115004 0 -0.116924)
(-0.000790606 0 -0.10581)
(-0.00025901 0 -0.0956922)
(0.000426002 0 -0.0881152)
(0.00126951 0 -0.0856538)
(0.00227856 0 -0.0929281)
(0.0032679 0 -0.115161)
(0.00350529 0 -0.149692)
(0.00188952 0 -0.175666)
(-0.000692777 0 -0.16667)
(-0.00168875 0 -0.125032)
(-0.00090049 0 -0.0790174)
(0.000252804 0 -0.0470567)
(0.00110933 0 -0.0305751)
(0.00168208 0 -0.0223998)
(0.00211858 0 -0.0173996)
(0.00246376 0 -0.0139413)
(0.00274469 0 -0.0113065)
(0.00297713 0 -0.00910401)
(0.00317195 0 -0.00707104)
(0.00333696 0 -0.00502833)
(0.00347798 0 -0.00287878)
(0.00359935 0 -0.000605667)
(0.00370426 0 0.00174226)
(0.00379489 0 0.0040763)
(0.0038728 0 0.00629475)
(0.00393919 0 0.00830373)
(0.00399517 0 0.0100291)
(0.00404186 0 0.0114201)
(0.00408047 0 0.0124483)
(0.00411224 0 0.0131037)
(0.00413836 0 0.0133909)
(0.0041599 0 0.0133258)
(0.00417773 0 0.0129338)
(0.00419251 0 0.0122485)
(0.00420466 0 0.01131)
(0.00421446 0 0.0101636)
(0.00422204 0 0.00885725)
(0.00422734 0 0.00743964)
(0.00422997 0 0.00595765)
(0.00423182 0 0.00444832)
(0.00424294 0 0.00293808)
(0.00422145 0 0.00129238)
(-0.00168628 0 0.00676362)
(-0.00168236 0 0.0128321)
(-0.00169111 0 0.0187606)
(-0.00169484 0 0.0245635)
(-0.00169974 0 0.0301954)
(-0.00170868 0 0.0356077)
(-0.00172479 0 0.0407545)
(-0.00175116 0 0.0455944)
(-0.00179019 0 0.050088)
(-0.00184349 0 0.054192)