/*--------------------------------*- C++ -*----------------------------------*\
  =========                 |
  \\      /  F ield         | OpenFOAM: The Open Source CFD Toolbox
   \\    /   O peration     | Website:  https://openfoam.org
    \\  /    A nd           | Version:  9
     \\/     M anipulation  |
\*---------------------------------------------------------------------------*/
FoamFile
{
    format      ascii;
    class       surfaceVectorField;
    location    "0.1";
    object      Uf;
}
// * * * * * * * * * * * * * * * * * * * * * * * * * * * * * * * * * * * * * //

dimensions      [0 1 -1 0 0 0 0];

internalField   nonuniform List<vector> 
39700
(
(7.64334e-05 0 0.00965525)
(0.000122731 0 0.00666494)
(7.14149e-05 0 0.0158465)
(0.000101813 0 0.0129284)
(7.25802e-05 0 0.0217729)
(0.000101477 0 0.0189573)
(7.51773e-05 0 0.0274436)
(0.000104956 0 0.0247546)
(7.74183e-05 0 0.0328344)
(0.00010811 0 0.0302868)
(7.82231e-05 0 0.0379233)
(0.00010967 0 0.0355284)
(7.69237e-05 0 0.0426916)
(0.00010838 0 0.0404583)
(7.31512e-05 0 0.0471206)
(0.000103438 0 0.0450586)
(6.67226e-05 0 0.0511847)
(9.43708e-05 0 0.0493087)
(5.75272e-05 0 0.0548451)
(8.09163e-05 0 0.0531773)
(4.54632e-05 0 0.0580465)
(6.28872e-05 0 0.0566179)
(3.04286e-05 0 0.060715)
(4.01333e-05 0 0.059566)
(1.23466e-05 0 0.0627543)
(1.25816e-05 0 0.0619378)
(-8.77137e-06 0 0.0640369)
(-1.9658e-05 0 0.0636238)
(-3.26635e-05 0 0.0643883)
(-5.60829e-05 0 0.0644772)
(-5.84699e-05 0 0.0635612)
(-9.53571e-05 0 0.0642933)
(-8.39606e-05 0 0.0612027)
(-0.000134505 0 0.0627779)
(-0.000104419 0 0.0568399)
(-0.000167689 0 0.0595131)
(-0.000112021 0 0.0499611)
(-0.000185276 0 0.0539638)
(-9.84594e-05 0 0.0403533)
(-0.000175865 0 0.0456444)
(-6.39041e-05 0 0.028819)
(-0.000135618 0 0.0346438)
(-2.62754e-05 0 0.0179411)
(-8.21065e-05 0 0.0225462)
(-8.83495e-06 0 0.0116882)
(-5.01804e-05 0 0.0130009)
(-8.82802e-06 0 0.0128941)
(-5.25233e-05 0 0.0102749)
(-6.08219e-06 0 0.0204502)
(-5.9867e-05 0 0.0156364)
(-2.93185e-06 0 0.0297522)
(-5.14003e-05 0 0.0254794)
(-1.27868e-05 0 0.0361083)
(-4.62108e-05 0 0.0341919)
(-3.18544e-05 0 0.037164)
(-6.09946e-05 0 0.038059)
(-4.47596e-05 0 0.0328645)
(-8.16495e-05 0 0.0361425)
(-4.05549e-05 0 0.0247438)
(-8.60407e-05 0 0.0293137)
(-2.52158e-05 0 0.0142448)
(-7.11604e-05 0 0.0190103)
(-1.79398e-05 0 0.00719215)
(-5.73928e-05 0 0.00936139)
(-1.90129e-05 0 0.00498194)
(-5.72063e-05 0 0.00492377)
(-1.94095e-05 0 0.00544313)
(-5.84441e-05 0 0.00494514)
(-1.7899e-05 0 0.00541024)
(-5.38645e-05 0 0.00583524)
(-1.5063e-05 0 0.00319553)
(-4.66823e-05 0 0.00486495)
(-9.80706e-06 0 -0.00126668)
(-3.73021e-05 0 0.00139266)
(-1.92361e-06 0 -0.0073695)
(-2.44801e-05 0 -0.0040708)
(8.58716e-06 0 -0.0145216)
(-7.36164e-06 0 -0.0108227)
(2.11671e-05 0 -0.0223305)
(1.42784e-05 0 -0.0183836)
(3.49897e-05 0 -0.0305489)
(3.90405e-05 0 -0.0264478)
(5.00223e-05 0 -0.0390422)
(6.63016e-05 0 -0.0348267)
(6.6924e-05 0 -0.0477926)
(9.66155e-05 0 -0.0434413)
(8.71961e-05 0 -0.0569098)
(0.000131701 0 -0.0523357)
(0.000113034 0 -0.0666297)
(0.000174378 0 -0.0616866)
(0.000146795 0 -0.077285)
(0.000227907 0 -0.0717901)
(0.000189308 0 -0.0892154)
(0.000294142 0 -0.0830154)
(0.000236011 0 -0.102549)
(0.000369188 0 -0.0956692)
(0.00027187 0 -0.116839)
(0.00043649 0 -0.109694)
(0.000272043 0 -0.130745)
(0.000463281 0 -0.12424)
(0.000217081 0 -0.142205)
(0.000413331 0 -0.137469)
(0.000114205 0 -0.149317)
(0.000277327 0 -0.147115)
(-3.06452e-06 0 -0.151295)
(8.97119e-05 0 -0.151659)
(-0.00010466 0 -0.148586)
(-9.51866e-05 0 -0.151062)
(-0.000176777 0 -0.142163)
(-0.000241641 0 -0.14625)
(-0.000218594 0 -0.132941)
(-0.000338895 0 -0.138228)
(-0.000229654 0 -0.121815)
(-0.000384156 0 -0.127819)
(-0.000211605 0 -0.109878)
(-0.000376793 0 -0.115988)
(-0.000170574 0 -0.0983835)
(-0.000322377 0 -0.103958)
(-0.00011107 0 -0.0886674)
(-0.000229666 0 -0.0930109)
(-2.37381e-05 0 -0.0826197)
(-9.8782e-05 0 -0.0845468)
(0.000121733 0 -0.083884)
(9.93067e-05 0 -0.0809677)
(0.00039349 0 -0.0987604)
(0.000436834 0 -0.0872013)
(0.000772374 0 -0.132012)
(0.000964311 0 -0.110905)
(0.000750973 0 -0.172088)
(0.00130925 0 -0.15363)
(-0.000195623 0 -0.185038)
(0.000499451 0 -0.190384)
(-0.000963718 0 -0.15218)
(-0.00101722 0 -0.179043)
(-0.00077672 0 -0.0988915)
(-0.00146111 0 -0.125115)
(-0.000377141 0 -0.0570681)
(-0.000932914 0 -0.0730039)
(-0.000152927 0 -0.0332348)
(-0.000440744 0 -0.0414943)
(-6.67682e-05 0 -0.0230156)
(-0.000196768 0 -0.0266945)
(-2.82107e-05 0 -0.0173991)
(-8.66581e-05 0 -0.0196656)
(-8.75939e-06 0 -0.0137624)
(-2.73022e-05 0 -0.0153641)
(2.42265e-06 0 -0.0111007)
(7.46153e-06 0 -0.012347)
(9.67626e-06 0 -0.0089522)
(2.96292e-05 0 -0.0100157)
(1.4603e-05 0 -0.00703366)
(4.49831e-05 0 -0.00803434)
(1.8037e-05 0 -0.00514638)
(5.57272e-05 0 -0.00616849)
(2.0414e-05 0 -0.00316507)
(6.32107e-05 0 -0.00425331)
(2.21382e-05 0 -0.00104162)
(6.84694e-05 0 -0.00220163)
(2.40509e-05 0 0.00119875)
(7.35182e-05 0 -3.61411e-06)
(2.53003e-05 0 0.00347762)
(7.76481e-05 0 0.00228282)
(2.62866e-05 0 0.00569401)
(8.0127e-05 0 0.00455985)
(2.69265e-05 0 0.00774787)
(8.22139e-05 0 0.00672279)
(2.71356e-05 0 0.00955523)
(8.3684e-05 0 0.00867651)
(2.68885e-05 0 0.0110556)
(8.44421e-05 0 0.0103478)
(2.62314e-05 0 0.012212)
(8.45189e-05 0 0.0116882)
(2.52754e-05 0 0.0130078)
(8.40496e-05 0 0.0126717)
(2.41783e-05 0 0.0134422)
(8.32517e-05 0 0.0132907)
(2.31224e-05 0 0.013526)
(8.23909e-05 0 0.0135506)
(2.22916e-05 0 0.013279)
(8.1743e-05 0 0.0134674)
(2.18431e-05 0 0.0127285)
(8.15496e-05 0 0.0130646)
(2.18833e-05 0 0.0119085)
(8.19761e-05 0 0.0123731)
(2.24617e-05 0 0.010859)
(8.30917e-05 0 0.0114303)
(2.35968e-05 0 0.00962394)
(8.4895e-05 0 0.0102788)
(2.53123e-05 0 0.00824754)
(8.73647e-05 0 0.00896369)
(2.76396e-05 0 0.00677148)
(9.04805e-05 0 0.00752847)
(3.0578e-05 0 0.00523331)
(9.41712e-05 0 0.00601316)
(3.41117e-05 0 0.00366516)
(9.89057e-05 0 0.00445312)
(3.65501e-05 0 0.00203648)
(0.000104235 0 0.00288288)
(9.74815e-05 0 0.00121506)
(0.000138785 0 0.00979557)
(0.0001316 0 0.0067788)
(0.000131256 0 0.0159039)
(0.000116752 0 0.0129518)
(0.000133118 0 0.0218079)
(0.000123796 0 0.0189518)
(0.000137206 0 0.0274704)
(0.000133252 0 0.0247431)
(0.000140181 0 0.0328574)
(0.000140645 0 0.0302789)
(0.000140045 0 0.0379445)
(0.000144239 0 0.0355289)
(0.000135428 0 0.0427117)
(0.000142451 0 0.0404697)
(0.000125433 0 0.0471394)
(0.00013423 0 0.045082)
(0.000109535 0 0.0512013)
(0.000118965 0 0.0493442)
(8.74105e-05 0 0.0548587)
(9.63109e-05 0 0.0532244)
(5.88244e-05 0 0.0580561)
(6.60362e-05 0 0.0566758)
(2.36361e-05 0 0.0607197)
(2.80002e-05 0 0.059634)
(-1.80828e-05 0 0.0627529)
(-1.77419e-05 0 0.0620146)
(-6.58017e-05 0 0.0640277)
(-7.07223e-05 0 0.0637075)
(-0.000118087 0 0.0643685)
(-0.000129676 0 0.0645646)
(-0.000171736 0 0.0635258)
(-0.000191881 0 0.0643788)
(-0.000220457 0 0.0611435)
(-0.000252056 0 0.0628519)
(-0.000253539 0 0.0567459)
(-0.000300926 0 0.0595609)
(-0.000256721 0 0.0498249)
(-0.000324658 0 0.0539681)
(-0.00021977 0 0.0401844)
(-0.000308786 0 0.0455958)
(-0.000152686 0 0.0286576)
(-0.000251807 0 0.0345596)
(-9.49629e-05 0 0.0178406)
(-0.000182948 0 0.0224772)
(-8.48172e-05 0 0.0116624)
(-0.000152024 0 0.0129893)
(-0.000106615 0 0.0128952)
(-0.000170036 0 0.0102986)
(-0.000111266 0 0.0204253)
(-0.000184577 0 0.0156412)
(-9.53447e-05 0 0.0296911)
(-0.000162511 0 0.0254636)
(-9.33636e-05 0 0.0360211)
(-0.000138779 0 0.03419)
(-0.000112333 0 0.037053)
(-0.000147233 0 0.0380761)
(-0.000127485 0 0.0327289)
(-0.00017165 0 0.0361554)
(-0.000119241 0 0.0245969)
(-0.000178702 0 0.029307)
(-9.74133e-05 0 0.0141106)
(-0.000161723 0 0.0189958)
(-9.36869e-05 0 0.00707613)
(-0.00014852 0 0.00935892)
(-9.9214e-05 0 0.0048661)
(-0.000152369 0 0.00492748)
(-9.50556e-05 0 0.00531188)
(-0.000150573 0 0.0049424)
(-8.3416e-05 0 0.00526176)
(-0.000135512 0 0.00582751)
(-6.99437e-05 0 0.00303331)
(-0.000116875 0 0.00485599)
(-5.26647e-05 0 -0.00144028)
(-9.70772e-05 0 0.00138117)
(-3.10362e-05 0 -0.00755408)
(-7.27741e-05 0 -0.0040852)
(-2.5021e-06 0 -0.0147163)
(-4.07915e-05 0 -0.0108417)
(3.15237e-05 0 -0.0225338)
(-2.95676e-07 0 -0.0184063)
(6.96332e-05 0 -0.0307602)
(4.6542e-05 0 -0.0264732)
(0.00011193 0 -0.039262)
(9.85349e-05 0 -0.0348549)
(0.000159886 0 -0.0480224)
(0.00015679 0 -0.0434733)
(0.000216682 0 -0.0571521)
(0.000223968 0 -0.0523736)
(0.000286478 0 -0.0668879)
(0.000304192 0 -0.0617332)
(0.000372694 0 -0.0775625)
(0.000401638 0 -0.0718476)
(0.000473803 0 -0.0895126)
(0.000517276 0 -0.0830828)
(0.000575521 0 -0.102859)
(0.000642037 0 -0.095737)
(0.000643042 0 -0.117145)
(0.000746943 0 -0.109739)
(0.000626696 0 -0.131023)
(0.000779605 0 -0.124229)
(0.000492615 0 -0.142445)
(0.000685523 0 -0.13738)
(0.00025921 0 -0.149529)
(0.000453932 0 -0.146959)
(-7.13827e-06 0 -0.151499)
(0.000140917 0 -0.151481)
(-0.000243276 0 -0.148796)
(-0.000168116 0 -0.150905)
(-0.000416376 0 -0.142381)
(-0.000415633 0 -0.146134)
(-0.00051816 0 -0.133167)
(-0.000581346 0 -0.13816)
(-0.000545168 0 -0.12205)
(-0.000657636 0 -0.127801)
(-0.000499567 0 -0.110122)
(-0.000641412 0 -0.116018)
(-0.000391778 0 -0.0986379)
(-0.00054013 0 -0.10403)
(-0.000228341 0 -0.0889407)
(-0.000366543 0 -0.0931199)
(1.03785e-05 0 -0.0829418)
(-0.000120513 0 -0.084706)
(0.000380294 0 -0.0843218)
(0.000237099 0 -0.0812144)
(0.000968674 0 -0.0993607)
(0.000794252 0 -0.0875936)
(0.00161155 0 -0.132547)
(0.00158701 0 -0.111334)
(0.00139527 0 -0.172052)
(0.00203928 0 -0.153485)
(-0.000369489 0 -0.184568)
(0.000740391 0 -0.189208)
(-0.00185163 0 -0.152049)
(-0.00159388 0 -0.178055)
(-0.00168644 0 -0.0992158)
(-0.00230207 0 -0.125225)
(-0.000951786 0 -0.0574397)
(-0.00152113 0 -0.0734936)
(-0.000433003 0 -0.0335001)
(-0.000757511 0 -0.0418401)
(-0.000199505 0 -0.0232161)
(-0.000351047 0 -0.026885)
(-7.65734e-05 0 -0.0175652)
(-0.000148553 0 -0.0197707)
(-7.08137e-06 0 -0.0139109)
(-2.89959e-05 0 -0.0154264)
(3.74037e-05 0 -0.0112377)
(4.56426e-05 0 -0.0123889)
(6.69669e-05 0 -0.0090791)
(9.53806e-05 0 -0.010045)
(8.75237e-05 0 -0.0071507)
(0.000130643 0 -0.00805577)
(0.000102063 0 -0.0052534)
(0.000155924 0 -0.00618451)
(0.000112089 0 -0.00326201)
(0.000174139 0 -0.00426504)
(0.000119282 0 -0.00112905)
(0.00018782 0 -0.00221062)
(0.000128541 0 0.00111856)
(0.000198976 0 -1.56839e-05)
(0.000132556 0 0.00340296)
(0.000208021 0 0.00227706)
(0.000136224 0 0.00562464)
(0.000215399 0 0.00455432)
(0.000139143 0 0.00768334)
(0.000221568 0 0.00671814)
(0.000141136 0 0.00949507)
(0.000226342 0 0.00867316)
(0.000142176 0 0.0109993)
(0.000229736 0 0.0103459)
(0.000142385 0 0.0121591)
(0.000231861 0 0.0116877)
(0.000142013 0 0.0129578)
(0.00023296 0 0.0126725)
(0.000141391 0 0.0133944)
(0.000233384 0 0.013292)
(0.000140887 0 0.0134799)
(0.000233538 0 0.0135519)
(0.000140841 0 0.013234)
(0.000233826 0 0.0134678)
(0.000141511 0 0.0126842)
(0.000234574 0 0.0130636)
(0.000143022 0 0.0118648)
(0.000235981 0 0.0123702)
(0.000145377 0 0.0108159)
(0.000238089 0 0.0114252)
(0.000148521 0 0.0095814)
(0.000240839 0 0.0102715)
(0.000152408 0 0.00820557)
(0.00024414 0 0.00895407)
(0.000156961 0 0.00673017)
(0.000247848 0 0.0075165)
(0.000161917 0 0.00519298)
(0.000251715 0 0.0059994)
(0.000166572 0 0.00363176)
(0.00025606 0 0.00443951)
(0.00016792 0 0.00202117)
(0.00026068 0 0.00287882)
(0.000247558 0 0.00122691)
(0.000104107 0 0.0097958)
(7.9037e-05 0 0.00679467)
(0.000110557 0 0.0158676)
(7.90127e-05 0 0.0129318)
(0.000123329 0 0.0217608)
(9.28195e-05 0 0.018914)
(0.000135977 0 0.0274297)
(0.00010808 0 0.0247075)
(0.000144454 0 0.0328311)
(0.000120147 0 0.0302562)
(0.000146756 0 0.0379361)
(0.000126513 0 0.0355231)
(0.000141689 0 0.0427225)
(0.000125351 0 0.0404823)
(0.000128498 0 0.0471693)
(0.000115521 0 0.045113)
(0.00010675 0 0.0512498)
(9.63887e-05 0 0.0493928)
(7.61879e-05 0 0.0549247)
(6.76027e-05 0 0.0532895)
(3.66605e-05 0 0.0581386)
(2.89525e-05 0 0.0567559)
(-1.18119e-05 0 0.0608172)
(-1.96301e-05 0 0.0597276)
(-6.88213e-05 0 0.0628634)
(-7.7912e-05 0 0.0621195)
(-0.000133247 0 0.0641481)
(-0.000145079 0 0.0638205)
(-0.000202671 0 0.0644935)
(-0.000219294 0 0.0646806)
(-0.000272463 0 0.0636467)
(-0.000296966 0 0.06449)
(-0.000334503 0 0.0612469)
(-0.0003716 0 0.0629461)
(-0.00037629 0 0.056814)
(-0.000432428 0 0.0596214)
(-0.000382879 0 0.0498424)
(-0.00046417 0 0.0539771)
(-0.000345952 0 0.0401538)
(-0.000451698 0 0.0455471)
(-0.000280283 0 0.0286112)
(-0.000394735 0 0.0344771)
(-0.000229349 0 0.0178218)
(-0.000326258 0 0.0224162)
(-0.000228507 0 0.0116765)
(-0.000299621 0 0.0129883)
(-0.000251611 0 0.0129031)
(-0.000322527 0 0.0103236)
(-0.000243625 0 0.0204088)
(-0.000332459 0 0.0156329)
(-0.000208125 0 0.0296816)
(-0.000294099 0 0.0254286)
(-0.000191684 0 0.0360459)
(-0.000254279 0 0.0341745)
(-0.000206977 0 0.0370994)
(-0.000257172 0 0.0380898)
(-0.000225555 0 0.0327695)
(-0.000285026 0 0.0361713)
(-0.000222929 0 0.024623)
(-0.00029732 0 0.0293049)
(-0.000206075 0 0.0141338)
(-0.000283003 0 0.0189846)
(-0.000205218 0 0.00710334)
(-0.000271696 0 0.00935839)
(-0.000207515 0 0.00488977)
(-0.000275822 0 0.00492906)
(-0.000193672 0 0.00533062)
(-0.000267196 0 0.00493322)
(-0.000170093 0 0.00528131)
(-0.000240688 0 0.00581184)
(-0.000144963 0 0.00305568)
(-0.000210836 0 0.00483928)
(-0.000117153 0 -0.0014167)
(-0.00018114 0 0.00136266)
(-8.5099e-05 0 -0.00753344)
(-0.000146647 0 -0.00410655)
(-3.94122e-05 0 -0.0147002)
(-0.00010115 0 -0.0108722)
(1.39279e-05 0 -0.0225202)
(-4.30339e-05 0 -0.0184418)
(7.43602e-05 0 -0.0307487)
(2.42596e-05 0 -0.0265135)
(0.000142121 0 -0.0392532)
(9.93104e-05 0 -0.0349001)
(0.000219143 0 -0.048018)
(0.000183673 0 -0.0435247)
(0.000309294 0 -0.0571548)
(0.000280366 0 -0.0524338)
(0.000417067 0 -0.0668998)
(0.000393911 0 -0.0618051)
(0.000544856 0 -0.0775832)
(0.000528197 0 -0.0719328)
(0.000687166 0 -0.089534)
(0.000682212 0 -0.0831777)
(0.000821276 0 -0.102861)
(0.00084186 0 -0.0958265)
(0.000899701 0 -0.117092)
(0.000968846 0 -0.109791)
(0.00086033 0 -0.130885)
(0.00099876 0 -0.124203)
(0.000665337 0 -0.142219)
(0.000867738 0 -0.13725)
(0.000342205 0 -0.149252)
(0.000566324 0 -0.146744)
(-2.421e-05 0 -0.151226)
(0.000165255 0 -0.151237)
(-0.000351597 0 -0.148567)
(-0.000230931 0 -0.150687)
(-0.000594327 0 -0.142214)
(-0.000550361 0 -0.145972)
(-0.000736407 0 -0.133067)
(-0.00076449 0 -0.138065)
(-0.000770155 0 -0.122017)
(-0.000860661 0 -0.127778)
(-0.000696833 0 -0.110151)
(-0.000832939 0 -0.116067)
(-0.000528309 0 -0.0987186)
(-0.000689299 0 -0.104142)
(-0.000272121 0 -0.0890766)
(-0.000444917 0 -0.0932908)
(9.34531e-05 0 -0.083158)
(-0.00010005 0 -0.0849499)
(0.000631088 0 -0.0846606)
(0.00038443 0 -0.0815729)
(0.00139537 0 -0.0997658)
(0.00108912 0 -0.0881032)
(0.00210513 0 -0.132582)
(0.00201589 0 -0.111807)
(0.00168037 0 -0.171132)
(0.00247412 0 -0.153202)
(-0.000519502 0 -0.183212)
(0.000863841 0 -0.187741)
(-0.00233563 0 -0.151523)
(-0.00193079 0 -0.176844)
(-0.00219898 0 -0.0995867)
(-0.00279652 0 -0.125316)
(-0.00130802 0 -0.057943)
(-0.0018826 0 -0.0740875)
(-0.000618743 0 -0.0338053)
(-0.000957977 0 -0.0422996)
(-0.00028287 0 -0.0233798)
(-0.000440605 0 -0.0271589)
(-8.92737e-05 0 -0.01765)
(-0.000164705 0 -0.0199363)
(2.98585e-05 0 -0.0139556)
(8.25737e-06 0 -0.0155333)
(0.000108224 0 -0.011261)
(0.000121774 0 -0.0124627)
(0.00016247 0 -0.00908986)
(0.000200577 0 -0.0100987)
(0.000201336 0 -0.00715388)
(0.000257635 0 -0.00809627)
(0.000229883 0 -0.00525181)
(0.000299728 0 -0.00621589)
(0.000251537 0 -0.00325732)
(0.000331198 0 -0.00429021)
(0.000268136 0 -0.00112306)
(0.000355639 0 -0.00223105)
(0.000278995 0 0.00112418)
(0.000374351 0 -2.99468e-05)
(0.000291363 0 0.00340818)
(0.000390068 0 0.00226013)
(0.000301194 0 0.00563024)
(0.000404622 0 0.00454015)
(0.000309084 0 0.00768999)
(0.000416644 0 0.00670623)
(0.000315172 0 0.0095033)
(0.000426276 0 0.00866357)
(0.000319572 0 0.0110094)
(0.000433685 0 0.0103387)
(0.000322511 0 0.0121709)
(0.000439074 0 0.0116829)
(0.000324339 0 0.012971)
(0.000442788 0 0.0126695)
(0.000325485 0 0.0134084)
(0.000445282 0 0.0132902)
(0.000326395 0 0.0134938)
(0.000447055 0 0.0135506)
(0.000327459 0 0.013247)
(0.000448584 0 0.0134662)
(0.000328948 0 0.0126957)
(0.000450248 0 0.013061)
(0.000330972 0 0.0118743)
(0.000452268 0 0.0123663)
(0.000333495 0 0.0108232)
(0.000454691 0 0.0114198)
(0.000336411 0 0.00958641)
(0.00045745 0 0.0102648)
(0.000339586 0 0.00820824)
(0.00046044 0 0.00894634)
(0.000342777 0 0.00673098)
(0.000463428 0 0.00750826)
(0.000345406 0 0.00519412)
(0.000465927 0 0.00599226)
(0.000346156 0 0.00363894)
(0.00046787 0 0.0044375)
(0.000343037 0 0.00203994)
(0.000470061 0 0.00288866)
(0.000455459 0 0.00124707)
(5.33595e-05 0 0.00978109)
(1.22586e-05 0 0.00678952)
(6.23173e-05 0 0.015831)
(1.74023e-05 0 0.0129039)
(7.71042e-05 0 0.0217173)
(2.92206e-05 0 0.0188702)
(9.19476e-05 0 0.027396)
(4.38071e-05 0 0.0246656)
(0.000102253 0 0.0328164)
(5.58172e-05 0 0.0302286)
(0.000105361 0 0.0379438)
(6.19897e-05 0 0.0355154)
(9.96589e-05 0 0.0427538)
(5.99452e-05 0 0.0404965)
(8.41423e-05 0 0.0472241)
(4.8188e-05 0 0.0451495)
(5.82314e-05 0 0.051327)
(2.58095e-05 0 0.0494508)
(2.16027e-05 0 0.055023)
(-7.73201e-06 0 0.0533674)
(-2.58855e-05 0 0.0582563)
(-5.27381e-05 0 0.0568522)
(-8.41093e-05 0 0.0609522)
(-0.000109296 0 0.0598401)
(-0.000152468 0 0.0630125)
(-0.000177094 0 0.0622454)
(-0.00022949 0 0.0643065)
(-0.000255115 0 0.0639555)
(-0.000312235 0 0.0646538)
(-0.000341191 0 0.0648189)
(-0.000395348 0 0.0637976)
(-0.000431201 0 0.0646224)
(-0.000469799 0 0.061372)
(-0.000517885 0 0.0630591)
(-0.000522097 0 0.0568938)
(-0.000589475 0 0.059697)
(-0.000536537 0 0.049862)
(-0.000629587 0 0.053997)
(-0.000504737 0 0.0401191)
(-0.000622207 0 0.0455051)
(-0.000442098 0 0.0285596)
(-0.00056673 0 0.0343984)
(-0.000392113 0 0.0178002)
(-0.000496609 0 0.0223563)
(-0.000388515 0 0.0116906)
(-0.000466552 0 0.0129841)
(-0.000404228 0 0.0129135)
(-0.000485512 0 0.0103407)
(-0.000385801 0 0.020398)
(-0.000490432 0 0.0156138)
(-0.000340586 0 0.0296829)
(-0.000445565 0 0.0253839)
(-0.000319484 0 0.0360874)
(-0.000400891 0 0.0341546)
(-0.00033615 0 0.0371657)
(-0.000403648 0 0.0381047)
(-0.000359152 0 0.0328287)
(-0.000434856 0 0.036191)
(-0.000360279 0 0.0246647)
(-0.000450184 0 0.0293058)
(-0.000344369 0 0.0141705)
(-0.000435473 0 0.018974)
(-0.000340918 0 0.00714459)
(-0.000421579 0 0.00935614)
(-0.000337466 0 0.00492927)
(-0.000422344 0 0.00492681)
(-0.000315481 0 0.00536657)
(-0.00040753 0 0.00491862)
(-0.00028266 0 0.00531838)
(-0.000372915 0 0.00579002)
(-0.000248399 0 0.00309391)
(-0.000334584 0 0.00481649)
(-0.000210343 0 -0.0013793)
(-0.000295161 0 0.00133733)
(-0.000165923 0 -0.00750023)
(-0.000249957 0 -0.00413614)
(-0.000105261 0 -0.0146728)
(-0.00019125 0 -0.0109126)
(-3.35466e-05 0 -0.0224966)
(-0.000116215 0 -0.0184897)
(4.81281e-05 0 -0.0307285)
(-2.97511e-05 0 -0.026568)
(0.000139763 0 -0.0392372)
(6.69865e-05 0 -0.0349613)
(0.000243551 0 -0.048008)
(0.000175605 0 -0.0435939)
(0.0003635 0 -0.0571536)
(0.000299079 0 -0.0525138)
(0.000503795 0 -0.0669094)
(0.000441861 0 -0.0618986)
(0.000665385 0 -0.0776011)
(0.000607067 0 -0.0720405)
(0.000839263 0 -0.0895478)
(0.000791594 0 -0.0832936)
(0.000996359 0 -0.102842)
(0.00097722 0 -0.0959312)
(0.00108072 0 -0.116997)
(0.00111902 0 -0.109847)
(0.00102256 0 -0.130677)
(0.0011452 0 -0.124164)
(0.000782379 0 -0.141896)
(0.00098698 0 -0.13709)
(0.000394262 0 -0.148859)
(0.000636529 0 -0.146485)
(-4.45279e-05 0 -0.15083)
(0.000174137 0 -0.150944)
(-0.000438422 0 -0.148221)
(-0.000283518 0 -0.150424)
(-0.0007317 0 -0.141945)
(-0.00065429 0 -0.145777)
(-0.000901775 0 -0.132887)
(-0.000902356 0 -0.137952)
(-0.000937208 0 -0.121929)
(-0.00101062 0 -0.127755)
(-0.000838112 0 -0.110149)
(-0.00097068 0 -0.116133)
(-0.000617319 0 -0.0987953)
(-0.000790551 0 -0.10429)
(-0.000284135 0 -0.0892353)
(-0.00048748 0 -0.0935131)
(0.00018118 0 -0.0834256)
(-6.37075e-05 0 -0.0852602)
(0.000835477 0 -0.0850689)
(0.00051624 0 -0.0820092)
(0.00170917 0 -0.100207)
(0.00132087 0 -0.0886858)
(0.00244373 0 -0.132535)
(0.00231772 0 -0.112297)
(0.001873 0 -0.169987)
(0.0027553 0 -0.152822)
(-0.000580319 0 -0.181574)
(0.000971085 0 -0.186106)
(-0.00260298 0 -0.150784)
(-0.00207004 0 -0.175496)
(-0.00251084 0 -0.0998873)
(-0.00305415 0 -0.125377)
(-0.00152773 0 -0.0584766)
(-0.00209395 0 -0.0747428)
(-0.000722391 0 -0.0341594)
(-0.00107076 0 -0.0428364)
(-0.000308959 0 -0.0235797)
(-0.000468133 0 -0.0274961)
(-5.66415e-05 0 -0.0177567)
(-0.000129662 0 -0.0201521)
(0.000106971 0 -0.0140115)
(9.12943e-05 0 -0.0156801)
(0.000219273 0 -0.011288)
(0.000241937 0 -0.0125684)
(0.0002995 0 -0.00909963)
(0.000350109 0 -0.010178)
(0.000358576 0 -0.00715315)
(0.000430201 0 -0.0081577)
(0.000402996 0 -0.00524482)
(0.000490713 0 -0.00626452)
(0.000437162 0 -0.00324704)
(0.000537224 0 -0.00432963)
(0.000463768 0 -0.00111238)
(0.000573746 0 -0.00226342)
(0.000485002 0 0.00113502)
(0.000603052 0 -5.71764e-05)
(0.000504298 0 0.00342008)
(0.00062813 0 0.00223416)
(0.000520734 0 0.00564285)
(0.000650104 0 0.00451694)
(0.000534325 0 0.00770341)
(0.000668391 0 0.00668614)
(0.000545167 0 0.00951779)
(0.000683375 0 0.00864684)
(0.000553462 0 0.011025)
(0.000695242 0 0.0103254)
(0.00055954 0 0.0121874)
(0.000704283 0 0.0116728)
(0.000563851 0 0.0129878)
(0.000710953 0 0.0126621)
(0.000566923 0 0.0134248)
(0.000715809 0 0.0132849)
(0.000569285 0 0.0135089)
(0.000719451 0 0.0135464)
(0.000571399 0 0.0132601)
(0.000722441 0 0.0134624)
(0.000573592 0 0.0127062)
(0.00072523 0 0.0130568)
(0.000576019 0 0.0118821)
(0.000728099 0 0.0123613)
(0.000578685 0 0.0108282)
(0.000731147 0 0.011414)
(0.000581512 0 0.009589)
(0.000734348 0 0.0102583)
(0.000584358 0 0.00820898)
(0.000737629 0 0.00893938)
(0.00058688 0 0.00673135)
(0.000740729 0 0.00750177)
(0.000588297 0 0.00519737)
(0.000742945 0 0.0059885)
(0.000587373 0 0.00364967)
(0.000744035 0 0.00444043)
(0.000583369 0 0.00205642)
(0.000746116 0 0.00290123)
(0.000732416 0 0.00126081)
(-2.3496e-05 0 0.00976518)
(-8.79505e-05 0 0.00678051)
(-1.6119e-05 0 0.0157999)
(-8.11144e-05 0 0.012881)
(-4.47933e-06 0 0.0216797)
(-7.32411e-05 0 0.0188358)
(7.50932e-06 0 0.0273655)
(-6.18608e-05 0 0.0246319)
(1.56547e-05 0 0.0328021)
(-5.23038e-05 0 0.0302069)
(1.68567e-05 0 0.0379507)
(-4.82116e-05 0 0.0355125)
(8.98897e-06 0 0.0427837)
(-5.23487e-05 0 0.0405161)
(-9.36686e-06 0 0.0472771)
(-6.65715e-05 0 0.0451927)
(-3.91039e-05 0 0.0514023)
(-9.21036e-05 0 0.0495172)
(-8.07571e-05 0 0.0551192)
(-0.000129722 0 0.0534561)
(-0.000134586 0 0.0583714)
(-0.00017987 0 0.0569614)
(-0.000200497 0 0.0610836)
(-0.000242701 0 0.0599674)
(-0.000277807 0 0.0631564)
(-0.000317891 0 0.0623877)
(-0.000364849 0 0.0644574)
(-0.000404313 0 0.0641082)
(-0.000458328 0 0.0648035)
(-0.000499558 0 0.0649752)
(-0.00055231 0 0.0639339)
(-0.000599076 0 0.0647721)
(-0.000636911 0 0.0614782)
(-0.00069495 0 0.0631876)
(-0.000697551 0 0.0569506)
(-0.000774529 0 0.0597848)
(-0.000717468 0 0.0498565)
(-0.000820496 0 0.0540244)
(-0.000687746 0 0.0400609)
(-0.000816244 0 0.0454659)
(-0.000623963 0 0.0284897)
(-0.000761083 0 0.0343183)
(-0.000569974 0 0.0177663)
(-0.000688501 0 0.0222917)
(-0.000560404 0 0.0116966)
(-0.000653652 0 0.0129731)
(-0.000571087 0 0.0129151)
(-0.000667922 0 0.0103522)
(-0.000550814 0 0.0203711)
(-0.000671142 0 0.0155927)
(-0.000505591 0 0.029657)
(-0.000626951 0 0.0253391)
(-0.000485065 0 0.0360931)
(-0.00058328 0 0.0341352)
(-0.000503313 0 0.0371929)
(-0.000587131 0 0.0381211)
(-0.000527918 0 0.032849)
(-0.000619615 0 0.0362121)
(-0.000528972 0 0.0246692)
(-0.000635323 0 0.0293067)
(-0.000510306 0 0.014172)
(-0.000618288 0 0.0189616)
(-0.000501958 0 0.00715029)
(-0.00059985 0 0.00935063)
(-0.000493139 0 0.00492961)
(-0.000595964 0 0.004921)
(-0.000465448 0 0.00535787)
(-0.000576051 0 0.00490023)
(-0.000425777 0 0.00530586)
(-0.000535474 0 0.00576364)
(-0.000383323 0 0.003079)
(-0.000490265 0 0.00478824)
(-0.000335551 0 -0.00139912)
(-0.000441571 0 0.00130551)
(-0.000277126 0 -0.00752768)
(-0.000384925 0 -0.00417508)
(-0.000202686 0 -0.0147088)
(-0.000312891 0 -0.0109623)
(-0.000113483 0 -0.02254)
(-0.00022213 0 -0.0185492)
(-1.17674e-05 0 -0.0307789)
(-0.000117802 0 -0.0266358)
(0.000101917 0 -0.0392953)
(-7.78535e-07 0 -0.0350371)
(0.000230109 0 -0.0480759)
(0.000130178 0 -0.0436794)
(0.000376462 0 -0.057234)
(0.000277844 0 -0.0526114)
(0.000544532 0 -0.0670037)
(0.000446228 0 -0.0620107)
(0.000733729 0 -0.0777056)
(0.000637434 0 -0.0721667)
(0.000932056 0 -0.0896482)
(0.000846346 0 -0.0834258)
(0.00110583 0 -0.102907)
(0.00105143 0 -0.096047)
(0.0011937 0 -0.116982)
(0.00120329 0 -0.109906)
(0.00112198 0 -0.130544)
(0.00122613 0 -0.124116)
(0.000851312 0 -0.141644)
(0.00104963 0 -0.136909)
(0.000420171 0 -0.148534)
(0.000667949 0 -0.146197)
(-6.71581e-05 0 -0.150502)
(0.00016687 0 -0.150619)
(-0.00050634 0 -0.147945)
(-0.00033022 0 -0.150131)
(-0.000834102 0 -0.14175)
(-0.000734224 0 -0.145559)
(-0.00102204 0 -0.132787)
(-0.00100333 0 -0.137827)
(-0.00105557 0 -0.121928)
(-0.00111666 0 -0.127733)
(-0.000933733 0 -0.110244)
(-0.0010637 0 -0.116215)
(-0.000669987 0 -0.0989775)
(-0.000852245 0 -0.104466)
(-0.000275769 0 -0.089508)
(-0.000501226 0 -0.093776)
(0.000264499 0 -0.0838132)
(-1.57982e-05 0 -0.0856205)
(0.00100039 0 -0.0855947)
(0.000634514 0 -0.0824999)
(0.0019385 0 -0.100743)
(0.00150512 0 -0.0893112)
(0.00266815 0 -0.132549)
(0.00252998 0 -0.112783)
(0.00200613 0 -0.1689)
(0.00293205 0 -0.152381)
(-0.000545378 0 -0.17999)
(0.00107478 0 -0.184405)
(-0.00267165 0 -0.150065)
(-0.00205381 0 -0.174078)
(-0.00265357 0 -0.100216)
(-0.00311999 0 -0.125389)
(-0.00163996 0 -0.0590823)
(-0.00217323 0 -0.0754185)
(-0.000754186 0 -0.0346062)
(-0.00109666 0 -0.0434268)
(-0.000276547 0 -0.0238705)
(-0.000428145 0 -0.0278856)
(2.77262e-05 0 -0.0179477)
(-3.62061e-05 0 -0.0204124)
(0.000232774 0 -0.0141436)
(0.000227998 0 -0.0158641)
(0.000378014 0 -0.0113838)
(0.000413922 0 -0.0127052)
(0.000484754 0 -0.00917159)
(0.000551116 0 -0.0102835)
(0.000565246 0 -0.00720866)
(0.000654907 0 -0.00824124)
(0.000627038 0 -0.0052888)
(0.000734915 0 -0.00633192)
(0.000675457 0 -0.00328317)
(0.000797855 0 -0.00438516)
(0.000714618 0 -0.00114325)
(0.000848211 0 -0.00231064)
(0.000747231 0 0.00110808)
(0.000889845 0 -9.84933e-05)
(0.000774944 0 0.00339647)
(0.000925354 0 0.00219731)
(0.000798468 0 0.00562231)
(0.000955446 0 0.00448415)
(0.000818064 0 0.00768606)
(0.0009807 0 0.00665753)
(0.000833962 0 0.0095037)
(0.00100161 0 0.00862256)
(0.000846463 0 0.011014)
(0.00101845 0 0.0103055)
(0.000856002 0 0.0121793)
(0.00103164 0 0.0116569)
(0.00086314 0 0.0129818)
(0.00104175 0 0.0126497)
(0.000868509 0 0.0134201)
(0.00104946 0 0.0132752)
(0.000872739 0 0.0135047)
(0.00105546 0 0.0135385)
(0.000876381 0 0.0132557)
(0.0010604 0 0.0134552)
(0.000879835 0 0.012701)
(0.00106482 0 0.0130497)
(0.000883322 0 0.0118758)
(0.00106905 0 0.0123538)
(0.000886905 0 0.010821)
(0.00107324 0 0.0114059)
(0.000890544 0 0.0095811)
(0.00107743 0 0.0102496)
(0.00089409 0 0.00820114)
(0.00108154 0 0.00893047)
(0.000897106 0 0.00672545)
(0.00108528 0 0.00749382)
(0.0008987 0 0.00519664)
(0.0010878 0 0.00598415)
(0.000897862 0 0.00365662)
(0.00108892 0 0.00444304)
(0.000894725 0 0.00206709)
(0.00109219 0 0.00291106)
(0.00107864 0 0.00126954)
(-0.000145704 0 0.00975105)
(-0.000233197 0 0.00677216)
(-0.000139748 0 0.0157752)
(-0.000225403 0 0.0128626)
(-0.000130848 0 0.0216501)
(-0.000220366 0 0.0188095)
(-0.000121732 0 0.027341)
(-0.000211472 0 0.0246063)
(-0.000116079 0 0.0327917)
(-0.000204082 0 0.0301919)
(-0.00011715 0 0.03796)
(-0.000201973 0 0.0355156)
(-0.000127394 0 0.0428155)
(-0.000208107 0 0.0405414)
(-0.000148516 0 0.0473322)
(-0.000224605 0 0.0452423)
(-0.000181637 0 0.0514803)
(-0.0002529 0 0.0495913)
(-0.000227456 0 0.0552187)
(-0.000293918 0 0.0535536)
(-0.000286329 0 0.0584905)
(-0.000348201 0 0.0570807)
(-0.000358189 0 0.0612194)
(-0.00041594 0 0.0601062)
(-0.000442306 0 0.0633049)
(-0.000496797 0 0.0625425)
(-0.000536849 0 0.0646127)
(-0.000589553 0 0.0642741)
(-0.00063821 0 0.0649568)
(-0.000691586 0 0.0651446)
(-0.000739944 0 0.0640724)
(-0.000797991 0 0.0649342)
(-0.000831469 0 0.0615845)
(-0.000900324 0 0.0633265)
(-0.000897438 0 0.0570052)
(-0.000985296 0 0.0598802)
(-0.00092059 0 0.0498466)
(-0.00103507 0 0.0540563)
(-0.000892108 0 0.0399969)
(-0.00103308 0 0.0454284)
(-0.000827997 0 0.0284131)
(-0.000979147 0 0.0342378)
(-0.000772035 0 0.0177248)
(-0.000906686 0 0.0222246)
(-0.000759042 0 0.0116944)
(-0.000869855 0 0.0129582)
(-0.000767416 0 0.012909)
(-0.000881086 0 0.0103612)
(-0.000748162 0 0.0203353)
(-0.000883614 0 0.0155727)
(-0.000705181 0 0.0296184)
(-0.000841312 0 0.0252966)
(-0.000685572 0 0.0360822)
(-0.0007992 0 0.0341167)
(-0.000703795 0 0.0372017)
(-0.000803303 0 0.0381375)
(-0.000728043 0 0.0328506)
(-0.000835608 0 0.0362329)
(-0.000727992 0 0.0246553)
(-0.000850961 0 0.0293067)
(-0.000706358 0 0.0141545)
(-0.000832101 0 0.0189472)
(-0.000693299 0 0.00713566)
(-0.000809548 0 0.00934199)
(-0.000679424 0 0.00490741)
(-0.000800749 0 0.00491182)
(-0.000646573 0 0.00532382)
(-0.000775742 0 0.0048784)
(-0.000600706 0 0.0052654)
(-0.000729498 0 0.00573312)
(-0.00055023 0 0.00303466)
(-0.00067764 0 0.00475464)
(-0.000492701 0 -0.00145042)
(-0.000620404 0 0.00126718)
(-0.000421162 0 -0.00758884)
(-0.00055233 0 -0.00422277)
(-0.00033309 0 -0.0147806)
(-0.000467261 0 -0.011021)
(-0.000227571 0 -0.022622)
(-0.000362187 0 -0.0186195)
(-0.000107562 0 -0.0308702)
(-0.000241074 0 -0.0267159)
(2.67846e-05 0 -0.0393965)
(-0.000105159 0 -0.0351267)
(0.000177158 0 -0.0481892)
(4.63404e-05 0 -0.0437797)
(0.000347021 0 -0.0573614)
(0.000215949 0 -0.0527247)
(0.000539013 0 -0.0671459)
(0.000406973 0 -0.0621387)
(0.000750944 0 -0.0778578)
(0.000620375 0 -0.072308)
(0.000968236 0 -0.0897941)
(0.000849127 0 -0.0835707)
(0.00115388 0 -0.103014)
(0.00106905 0 -0.0961707)
(0.00124357 0 -0.117005)
(0.00122788 0 -0.109966)
(0.00116268 0 -0.130445)
(0.0012483 0 -0.124062)
(0.000873474 0 -0.141424)
(0.00106086 0 -0.136716)
(0.000417406 0 -0.148241)
(0.000662133 0 -0.145893)