/*--------------------------------*- C++ -*----------------------------------*\
  =========                 |
  \\      /  F ield         | OpenFOAM: The Open Source CFD Toolbox
   \\    /   O peration     | Website:  https://openfoam.org
    \\  /    A nd           | Version:  9
     \\/     M anipulation  |
\*---------------------------------------------------------------------------*/
FoamFile
{
    format      ascii;
    class       volScalarField;
    location    "0.01";
    object      alpha.water;
}
// * * * * * * * * * * * * * * * * * * * * * * * * * * * * * * * * * * * * * //

dimensions      [0 0 0 0 0 0 0];

internalField   nonuniform List<scalar> 
20000
(
2.40181e-255
1.07982e-254
4.83044e-254
2.23572e-253
1.0727e-252
5.33776e-252
2.75552e-251
1.47624e-250
8.21008e-250
4.74135e-249
2.84405e-248
1.77238e-247
1.14779e-246
7.72587e-246
5.4062e-245
3.93348e-244
2.97629e-243
2.34238e-242
1.91775e-241
1.63358e-240
1.44801e-239
1.33579e-238
1.28262e-237
1.28202e-236
1.33401e-235
1.44512e-234
1.62969e-233
1.91297e-232
2.33667e-231
2.96907e-230
3.93157e-229
6.19242e-228
9.70472e-227
1.51127e-225
2.33646e-224
3.58278e-223
5.44336e-222
8.18466e-221
1.2164e-219
1.78445e-218
2.58013e-217
3.67113e-216
5.13132e-215
7.03279e-214
9.43248e-213
1.23535e-211
1.57617e-210
1.95422e-209
2.34806e-208
2.72592e-207
3.04765e-206
3.26966e-205
3.35273e-204
3.27138e-203
3.02237e-202
2.62918e-201
2.13987e-200
1.61763e-199
1.12623e-198
7.15053e-198
4.09194e-197
2.08119e-196
9.24903e-196
3.51727e-195
1.11519e-194
2.85335e-194
5.65379e-194
8.23385e-194
8.23819e-194
5.25038e-194
2.47995e-194
9.39649e-195
3.00914e-195
8.46324e-196
2.15081e-196
5.04707e-197
1.11222e-197
2.33296e-198
4.70924e-199
9.23115e-200
1.77058e-200
3.34446e-201
6.2557e-202
1.1642e-202
2.1646e-203
4.03544e-204
7.56742e-205
1.43141e-205
2.73786e-206
5.30695e-207
1.04451e-207
2.09107e-208
4.2646e-209
8.87235e-210
1.88528e-210
4.09597e-211
9.10723e-212
2.07382e-212
4.82849e-213
1.10337e-213
9.84462e-253
4.42289e-252
1.97707e-251
9.14384e-251
4.38394e-250
2.17979e-249
1.12441e-248
6.01922e-248
3.34495e-247
1.93018e-246
1.15686e-245
7.20354e-245
4.66115e-244
3.13482e-243
2.19175e-242
1.59333e-241
1.20456e-240
9.47186e-240
7.74801e-239
6.59417e-238
5.83993e-237
5.38261e-236
5.16381e-235
5.15687e-234
5.36134e-233
5.80286e-232
6.53847e-231
7.66862e-230
9.35955e-229
1.18833e-227
1.57237e-226
2.47476e-225
3.87581e-224
6.03184e-223
9.32013e-222
1.42845e-220
2.16934e-219
3.26071e-218
4.84478e-217
7.10604e-216
1.02739e-214
1.46186e-213
2.04363e-212
2.80167e-211
3.75913e-210
4.92587e-209
6.28918e-208
7.80423e-207
9.38654e-206
1.09101e-204
1.22148e-203
1.31257e-202
1.34841e-201
1.31847e-200
1.22104e-199
1.06509e-198
8.69558e-198
6.59657e-197
4.61112e-196
2.94105e-195
1.69188e-194
8.65718e-194
3.87442e-193
1.48551e-192
4.75553e-192
1.23062e-191
2.47072e-191
3.6512e-191
3.7068e-191
2.39191e-191
1.14086e-191
4.36106e-192
1.40802e-192
3.99029e-193
1.02133e-193
2.41279e-194
5.35086e-195
1.12913e-195
2.29219e-196
4.51737e-197
8.7087e-198
1.65292e-198
3.10586e-199
5.80509e-200
1.08376e-200
2.0283e-201
3.81756e-202
7.24625e-203
1.39058e-203
2.70389e-204
5.33761e-205
1.07158e-205
2.19126e-206
4.57039e-207
9.73495e-208
2.11984e-208
4.72356e-209
1.07781e-209
2.51434e-210
5.75556e-211
3.5757e-250
1.60577e-249
7.17487e-249
3.31692e-248
1.58959e-247
7.90039e-247
4.07354e-246
2.1797e-245
1.21075e-244
6.98342e-244
4.18366e-243
2.6039e-242
1.68412e-241
1.13212e-240
7.91165e-240
5.74881e-239
4.34408e-238
3.41427e-237
2.79156e-236
2.3747e-235
2.10209e-234
1.93656e-233
1.85697e-232
1.85362e-231
1.92624e-230
2.08396e-229
2.34713e-228
2.75171e-227
3.35718e-226
4.26091e-225
5.63611e-224
8.8682e-223
1.38856e-221
2.1606e-220
3.3381e-219
5.11593e-218
7.76964e-217
1.16798e-215
1.73575e-214
2.54667e-213
3.68348e-212
5.24396e-211
7.33559e-210
1.00644e-208
1.35164e-207
1.77305e-206
2.26656e-205
2.81653e-204
3.39299e-203
3.95082e-202
4.4322e-201
4.77349e-200
4.91618e-199
4.82054e-198
4.4783e-197
3.91997e-196
3.2128e-195
2.44789e-194
1.71949e-193
1.10276e-192
6.38333e-192
3.28947e-191
1.48415e-190
5.74391e-190
1.85887e-189
4.87142e-189
9.92315e-189
1.49002e-188
1.53688e-188
1.00517e-188
4.84552e-189
1.8702e-189
6.09215e-190
1.74088e-190
4.49069e-191
1.06869e-191
2.3865e-192
5.069e-193
1.03541e-193
2.05252e-194
3.97884e-195
7.59149e-196
1.43352e-196
2.69192e-197
5.0479e-198
9.48694e-199
1.79266e-199
3.41549e-200
6.57772e-201
1.28329e-201
2.54134e-202
5.11734e-203
1.04942e-203
2.19471e-204
4.68667e-205
1.02301e-205
2.28476e-206
5.22463e-207
1.22131e-207
2.80083e-208
1.29405e-247
5.80846e-247
2.59405e-246
1.19863e-245
5.74144e-245
2.85212e-244
1.46985e-243
7.86101e-243
4.36431e-242
2.51598e-241
1.50651e-240
9.37159e-240
6.05806e-239
4.07028e-238
2.84294e-237
2.06465e-236
1.55931e-235
1.22489e-234
1.00094e-233
8.51011e-233
7.52904e-232
6.93238e-231
6.64387e-230
6.6283e-229
6.88431e-228
7.44407e-227
8.37988e-226
9.81946e-225
1.19744e-223
1.5191e-222
2.00854e-221
3.15916e-220
4.94488e-219
7.69213e-218
1.18816e-216
1.82069e-215
2.76491e-214
4.15642e-213
6.17754e-212
9.06544e-211
1.31162e-209
1.86808e-208
2.61463e-207
3.58974e-206
4.82498e-205
6.33558e-204
8.10843e-203
1.00894e-201
1.21731e-200
1.41992e-199
1.59608e-198
1.72282e-197
1.77877e-196
1.74906e-195
1.63e-194
1.43181e-193
1.17813e-192
9.01615e-192
6.36476e-191
4.10482e-190
2.39118e-189
1.24114e-188
5.64621e-188
2.20606e-187
7.21844e-187
1.91599e-186
3.96036e-186
6.04297e-186
6.33371e-186
4.2002e-186
2.04729e-186
7.9823e-187
2.62481e-187
7.56711e-188
1.96828e-188
4.72107e-189
1.06214e-189
2.27198e-190
4.67195e-191
9.32015e-192
1.8176e-192
3.48771e-193
6.62154e-194
1.24979e-194
2.355e-195
4.44634e-196
8.43856e-197
1.61443e-197
3.12135e-198
6.11236e-199
1.21472e-199
2.45423e-200
5.04894e-201
1.05911e-201
2.26816e-202
4.96447e-203
1.11162e-203
2.54825e-204
5.9707e-205
1.37216e-205
4.69797e-245
2.1075e-244
9.40658e-244
4.34394e-243
2.07952e-242
1.03241e-241
5.31739e-241
2.84212e-240
1.57694e-239
9.08538e-239
5.43675e-238
3.37996e-237
2.18354e-236
1.46614e-235
1.0234e-234
7.4275e-234
5.60592e-233
4.40077e-232
3.59381e-231
3.05347e-230
2.69965e-229
2.48405e-228
2.37907e-227
2.37191e-226
2.46187e-225
2.66028e-224
2.99274e-223
3.50459e-222
4.271e-221
5.41499e-220
7.15545e-219
1.12483e-217
1.75974e-216
2.73615e-215
4.22469e-214
6.47156e-213
9.82515e-212
1.47672e-210
2.1946e-209
3.22057e-208
4.66019e-207
6.63883e-206
9.29535e-205
1.27684e-203
1.71733e-202
2.25683e-201
2.8912e-200
3.6018e-199
4.35167e-198
5.08412e-197
5.72543e-196
6.1931e-195
6.40954e-194
6.31962e-193
5.90747e-192
5.20712e-191
4.30127e-190
3.30617e-189
2.3455e-188
1.52117e-187
8.91771e-187
4.66238e-186
2.13868e-185
8.4364e-185
2.79116e-184
7.50392e-184
1.57389e-183
2.44036e-183
2.59924e-183
1.74827e-183
8.61997e-184
3.39672e-184
1.12808e-184
3.2827e-185
8.6145e-186
2.08367e-186
4.72534e-187
1.01846e-187
2.10941e-188
4.23694e-189
8.31661e-190
1.6057e-190
3.06639e-191
5.81999e-192
1.10248e-192
2.092e-193
3.98933e-194
7.66688e-195
1.48873e-195
2.92727e-196
5.84016e-197
1.18433e-197
2.44507e-198
5.14626e-199
1.10564e-199
2.42738e-200
5.45111e-201
1.25306e-201
2.94372e-202
6.78145e-203
1.70808e-242
7.65746e-242
3.41565e-241
1.57633e-240
7.54128e-240
3.74154e-239
1.9258e-238
1.02865e-237
5.7036e-237
3.28384e-236
1.96373e-235
1.21999e-234
7.87592e-234
5.28459e-233
3.68613e-232
2.67335e-231
2.01625e-230
1.58164e-229
1.29065e-228
1.09577e-227
9.68065e-227
8.90067e-226
8.51789e-225
8.48559e-224
8.8005e-223
9.50224e-222
1.06813e-220
1.24984e-219
1.52198e-218
1.92817e-217
2.54601e-216
3.99941e-215
6.2526e-214
9.71567e-213
1.49924e-211
2.29539e-210
3.48327e-209
5.23337e-208
7.77519e-207
1.14078e-205
1.65058e-204
2.35147e-203
3.29295e-202
4.52468e-201
6.08841e-200
8.00607e-199
1.02648e-197
1.28004e-196
1.54842e-195
1.81165e-194
2.04363e-193
2.21491e-192
2.29752e-191
2.27118e-190
2.12936e-189
1.88325e-188
1.56158e-187
1.20552e-186
8.59445e-186
5.60509e-185
3.30686e-184
1.74149e-183
8.05511e-183
3.20808e-182
1.0732e-181
2.92241e-181
6.21952e-181
9.79907e-181
1.06068e-180
7.23821e-181
3.61161e-181
1.43903e-181
4.82927e-182
1.41927e-182
3.75959e-183
9.17529e-184
2.09853e-184
4.55977e-185
9.51715e-186
1.92568e-186
3.80637e-187
7.398e-188
1.42174e-188
2.71474e-189
5.17203e-190
9.86776e-191
1.89151e-191
3.65317e-192
7.12703e-193
1.40767e-193
2.82043e-194
5.74286e-195
1.19023e-195
2.51441e-196
5.42112e-197
1.19419e-197
2.69039e-198
6.20348e-199
1.46159e-199
3.37616e-200
6.20604e-240
2.78032e-239
1.23935e-238
5.7158e-238
2.73262e-237
1.35484e-236
6.96864e-236
3.71963e-235
2.06099e-234
1.18577e-233
7.08576e-233
4.39889e-232
2.83771e-231
1.90262e-230
1.32611e-229
9.61021e-229
7.24238e-228
5.67673e-227
4.62861e-226
3.92651e-225
3.466e-224
3.18405e-223
3.0445e-222
3.03032e-221
3.14001e-220
3.38737e-219
3.80428e-218
4.44744e-217
5.41096e-216
6.84891e-215
9.0354e-214
1.41809e-212
2.21515e-211
3.43926e-210
5.30313e-209
8.11354e-208
1.23044e-206
1.8476e-205
2.74364e-204
4.02394e-203
5.82052e-202
8.29073e-201
1.16097e-199
1.59541e-198
2.14735e-197
2.82492e-196
3.62414e-195
4.52311e-194
5.4771e-193
6.4164e-192
7.24916e-191
7.87105e-190
8.18205e-189
8.10828e-188
7.62369e-187
6.76465e-186
5.63026e-185
4.36508e-184
3.12715e-183
2.05079e-182
1.2176e-181
6.45889e-181
3.01248e-180
1.21133e-179
4.09742e-179
1.13009e-178
2.44029e-178
3.90654e-178
4.29748e-178
2.9763e-178
1.50349e-178
6.06032e-179
2.05618e-179
6.10619e-180
1.63366e-180
4.02497e-181
9.28956e-182
2.03602e-182
4.28487e-183
8.73866e-184
1.74038e-184
3.407e-185
6.59269e-186
1.26712e-186
2.42923e-187
4.66252e-188
8.98852e-189
1.74549e-189
3.42307e-190
6.79464e-191
1.36787e-191
2.79788e-192
5.82392e-193
1.23544e-193
2.67421e-194
5.91326e-195
1.33704e-195
3.09364e-196
7.31301e-197
1.69444e-197
2.24902e-237
1.00684e-236
4.48504e-236
2.06704e-235
9.87526e-235
4.89271e-234
2.51478e-233
1.34135e-232
7.42678e-232
4.26977e-231
2.54957e-230
1.58159e-229
1.0195e-228
6.83019e-228
4.75683e-227
3.44445e-226
2.59366e-225
2.03127e-224
1.65482e-223
1.40258e-222
1.23699e-221
1.13534e-220
1.08458e-219
1.07852e-218
1.11649e-217
1.20327e-216
1.35003e-215
1.57669e-214
1.91634e-213
2.42316e-212
3.19349e-211
5.00711e-210
7.81371e-209
1.212e-207
1.86712e-206
2.85412e-205
4.32484e-204
6.48923e-203
9.62994e-202
1.41155e-200
2.04082e-199
2.9059e-198
4.0683e-197
5.59019e-196
7.5247e-195
9.9015e-194
1.27083e-192
1.58708e-191
1.92349e-190
2.25587e-189
2.55217e-188
2.77575e-187
2.89119e-186
2.87186e-185
2.70764e-184
2.41017e-183
2.01334e-182
1.56749e-181
1.12836e-180
7.44067e-180
4.44563e-179
2.37533e-178
1.11712e-177
4.53521e-177
1.55113e-176
4.33288e-176
9.49253e-176
1.54389e-175
1.7261e-175
1.21362e-175
6.20975e-176
2.53365e-176
8.69666e-177
2.61147e-177
7.06159e-178
1.75767e-178
4.09654e-179
9.06297e-180
1.92449e-180
3.95859e-181
7.94861e-182
1.56823e-182
3.0573e-183
5.91811e-184
1.14231e-184
2.20674e-185
4.28061e-186
8.3618e-187
1.6491e-187
3.29105e-188
6.65954e-189
1.36886e-189
2.86274e-190
6.10004e-191
1.32607e-191
2.94424e-192
6.68327e-193
1.55217e-193
3.68224e-194
8.56026e-195
8.11559e-235
3.63049e-234
1.61609e-233
7.44287e-233
3.55329e-232
1.75921e-231
9.03552e-231
4.81585e-230
2.66446e-229
1.53069e-228
9.13306e-228
5.66118e-227
3.64633e-226
2.44093e-225
1.69858e-224
1.22893e-223
9.24593e-223
7.23483e-222
5.88881e-221
4.98669e-220
4.39388e-219
4.02897e-218
3.84511e-217
3.81979e-216
3.95024e-215
4.25284e-214
4.76647e-213
5.5607e-212
6.75116e-211
8.52713e-210
1.12253e-208
1.75804e-207
2.74041e-206
4.24607e-205
6.53423e-204
9.97813e-203
1.51051e-201
2.2644e-200
3.35753e-199
4.91777e-198
7.10547e-197
1.0112e-195
1.41511e-194
1.94397e-193
2.6164e-192
3.44306e-191
4.42021e-190
5.52277e-189
6.69806e-188
7.86294e-187
8.90661e-186
9.70167e-185
1.01239e-183
1.00786e-182
9.52728e-182
8.5067e-181
7.13152e-180
5.57521e-179
4.03245e-178
2.67366e-177
1.60751e-176
8.6512e-176
4.10255e-175
1.68152e-174
5.81472e-174
1.6449e-173
3.65554e-173
6.03934e-173
6.86187e-173
4.89964e-173
2.54055e-173
1.04982e-173
3.64758e-174
1.10818e-174
3.03039e-175
7.62444e-176
1.79544e-176
4.01162e-177
8.59956e-178
1.78498e-178
3.61531e-179
7.19215e-180
1.41325e-180
2.75643e-181
5.35897e-182
1.04242e-182
2.03544e-183
4.00116e-184
7.93859e-185
1.59341e-185
3.24206e-186
6.69911e-187
1.40805e-187
3.01475e-188
6.58381e-189
1.46822e-189
3.34679e-190
7.80407e-191
1.85848e-191
4.33602e-192
2.90923e-232
1.30043e-231
5.78462e-231
2.66218e-230
1.27002e-229
6.28316e-229
3.2247e-228
1.71745e-227
9.49487e-227
5.45042e-226
3.24953e-225
2.01265e-224
1.29529e-223
8.66378e-223
6.02385e-222
4.35455e-221
3.27332e-220
2.55905e-219
2.08103e-218
1.76058e-217
1.54979e-216
1.41967e-215
1.3535e-214
1.34318e-213
1.38755e-212
1.49219e-211
1.6705e-210
1.94658e-209
2.3605e-208
2.97784e-207
3.91524e-206
6.12421e-205
9.53445e-204
1.47547e-202
2.26783e-201
3.45901e-200
5.23035e-199
7.83222e-198
1.16013e-196
1.69763e-195
2.45074e-194
3.48509e-193
4.8741e-192
6.69232e-191
9.00414e-190
1.18469e-188
1.52091e-187
1.90067e-186
2.30613e-185
2.709e-184
3.07143e-183
3.34967e-182
3.5008e-181
3.49163e-180
3.30798e-179
2.96139e-178
2.49026e-177
1.95369e-176
1.41878e-175
9.45019e-175
5.7113e-174
3.0916e-173
1.47566e-172
6.09233e-172
2.12381e-171
6.06209e-171
1.36074e-170
2.27364e-170
2.61825e-170
1.903e-170
1.00335e-170
4.21392e-171
1.48692e-171
4.58397e-172
1.27094e-172
3.2396e-173
7.72326e-174
1.74583e-174
3.78389e-175
7.93642e-176
1.62341e-176
3.25998e-177
6.46313e-178
1.27129e-178
2.49158e-179
4.88387e-180
9.60608e-181
1.90148e-181
3.79775e-182
7.67103e-183
1.57024e-183
3.26332e-184
6.89677e-185
1.48442e-185
3.25806e-186
7.3005e-187
1.67178e-187
3.91536e-188
9.36308e-189
2.19307e-189
9.34301e-230
4.17276e-229
1.85466e-228
8.52863e-228
4.06538e-227
2.00962e-226
1.03054e-225
5.48397e-225
3.02923e-224
1.73739e-223
1.03492e-222
6.40422e-222
4.11783e-221
2.75172e-220
1.91142e-219
1.38038e-218
1.03659e-217
8.09545e-217
6.57616e-216
5.55727e-215
4.88618e-214
4.47047e-213
4.25664e-212
4.21848e-211
4.35164e-210
4.67276e-209
5.22281e-208
6.07566e-207
7.35427e-206
9.25974e-205
1.21494e-203
1.89617e-202
2.945e-201
4.54581e-200
6.96785e-199
1.05964e-197
1.5972e-196
2.38355e-195
3.51754e-194
5.12665e-193
7.36876e-192
1.04292e-190
1.45104e-189
1.98103e-188
2.64874e-187
3.46096e-186
4.40924e-185
5.46321e-184
6.56533e-183
7.62928e-182
8.54452e-181
9.18915e-180
9.4508e-179
9.25281e-178
8.57896e-177
7.48828e-176
6.11166e-175
4.62736e-174
3.22017e-173
2.03716e-172
1.15626e-171
5.79522e-171
2.51585e-170
9.24205e-170
2.79501e-169
6.75316e-169
1.26909e-168
1.82649e-168
1.9833e-168
1.56586e-168
9.55773e-169
4.74125e-169
1.96502e-169
7.00457e-170
2.20552e-170
6.27636e-171
1.64544e-171
4.03757e-172
9.39573e-173
2.09642e-173
4.52654e-174
9.5321e-175
1.97079e-175
4.0236e-176
8.15201e-177
1.64614e-177
3.32554e-178
6.74361e-179
1.37667e-179
2.83658e-180
5.91272e-181
1.24937e-181
2.68096e-182
5.85172e-183
1.30104e-183
2.95029e-184
6.83101e-185
1.6163e-185
3.90187e-186
9.2157e-187
1.75206e-227
7.81541e-227
3.46956e-226
1.59354e-225
7.58671e-225
3.74565e-224
1.91836e-223
1.01954e-222
5.62437e-222
3.22153e-221
1.91638e-220
1.18423e-219
7.60355e-219
5.07356e-218
3.51887e-217
2.53724e-216
1.90219e-215
1.48302e-214
1.20253e-213
1.01428e-212
8.89998e-212
8.12526e-211
7.71873e-210
7.63042e-209
7.84994e-208
8.40425e-207
9.36302e-206
1.0853e-204
1.30849e-203
1.64028e-202
2.1416e-201
3.32389e-200
5.13058e-199
7.86485e-198
1.19627e-196
1.80363e-195
2.69261e-194
3.97545e-193
5.79715e-192
8.33754e-191
1.18081e-189
1.64402e-188
2.24605e-187
3.00507e-186
3.92889e-185
5.00779e-184
6.20678e-183
7.4596e-182
8.66676e-181
9.70109e-180
1.04227e-178
1.07037e-177
1.04583e-176
9.67169e-176
8.41596e-175
6.845e-174
5.16447e-173
3.58359e-172
2.2646e-171
1.28894e-170
6.52598e-170
2.89944e-169
1.11395e-168
3.64283e-168
9.95804e-168
2.22263e-167
3.93312e-167
5.4104e-167
5.77769e-167
4.69685e-167
3.01855e-167
1.59994e-167
7.20632e-168
2.83834e-168
9.99098e-169
3.19534e-169
9.4126e-170
2.58474e-170
6.68934e-171
1.64784e-171
3.89837e-172
8.92777e-173
1.99324e-173
4.36556e-174
9.43135e-175
2.01963e-175
4.3052e-176
9.17037e-177
1.95844e-177
4.20586e-178
9.1069e-179
1.99286e-179
4.41654e-180
9.93101e-181
2.26949e-181
5.27867e-182
1.25124e-182
3.02563e-183
7.45158e-184
1.79058e-184
1.93612e-225
8.62329e-225
3.82242e-224
1.75292e-223
8.33253e-223
4.10738e-222
2.10025e-221
1.11438e-220
6.13734e-220
3.50937e-219
2.08398e-218
1.28549e-217
8.23861e-217
5.48691e-216
3.79811e-215
2.73301e-214
2.04461e-213
1.59051e-212
1.28667e-211
1.08256e-210
9.47398e-210
8.62481e-209
8.16828e-208
8.04812e-207
8.24978e-206
8.7974e-205
9.75838e-204
1.12568e-202
1.34994e-201
1.68219e-200
2.18176e-199
3.36083e-198
5.14425e-197
7.8124e-196
1.17597e-194
1.7526e-193
2.58292e-192
3.75936e-191
5.39587e-190
7.62561e-189
1.05929e-187
1.44372e-186
1.92667e-185
2.51216e-184
3.19287e-183
3.94545e-182
4.72693e-181
5.47398e-180
6.10677e-179
6.53889e-178
6.69279e-177
6.51867e-176
6.01137e-175
5.21926e-174
4.2397e-173
3.19961e-172
2.22577e-171
1.41481e-170
8.13933e-170
4.19449e-169
1.91558e-168
7.66991e-168
2.66491e-167
7.95528e-167
2.01702e-166
4.26716e-166
7.32089e-166
9.91611e-166
1.05806e-165
8.75473e-166
5.79042e-166
3.19792e-166
1.52513e-166
6.4521e-167
2.46381e-167
8.59526e-168
2.76683e-168
8.29531e-169
2.33755e-169
6.24575e-170
1.59555e-170
3.9272e-171
9.3791e-172
2.18729e-172
5.00954e-173
1.13255e-173
2.53897e-174
5.66718e-175
1.26403e-175
2.82638e-176
6.35381e-177
1.43975e-177
3.29594e-178
7.63843e-179
1.79536e-179
4.28671e-180
1.04123e-180
2.57578e-181
6.47872e-182
1.58549e-182
1.49751e-223
6.65919e-223
2.94718e-222
1.3494e-221
6.40407e-221
3.15161e-220
1.60885e-219
8.52194e-219
4.68523e-218
2.67429e-217
1.58518e-216
9.75982e-216
6.24287e-215
4.14942e-214
2.8663e-213
2.05802e-212
1.53613e-211
1.19208e-210
9.61897e-210
8.07108e-209
7.04281e-208
6.39139e-207
6.03243e-206
5.92156e-205
6.04515e-204
6.41742e-203
7.08298e-202
8.12546e-201
9.68437e-200
1.19852e-198
1.54254e-197
2.35554e-196
3.57068e-195
5.36436e-194
7.97826e-193
1.17325e-191
1.7037e-190
2.43938e-189
3.43852e-188
4.76352e-187
6.4736e-186
8.6131e-185
1.11951e-183
1.41819e-182
1.74652e-181
2.08517e-180
2.40619e-179
2.67491e-178
2.85436e-177
2.9121e-176
2.82816e-175
2.602e-174
2.25585e-173
1.83214e-172
1.38499e-171
9.67625e-171
6.20029e-170
3.61426e-169
1.9004e-168
8.93706e-168
3.72857e-167
1.37008e-166
4.40781e-166
1.23535e-165
2.99552e-165
6.19003e-165
1.06048e-164
1.45587e-164
1.58112e-164
1.32732e-164
8.89316e-165
5.00225e-165
2.45383e-165
1.07907e-165
4.32686e-166
1.59869e-166
5.48225e-167
1.75587e-167
5.28668e-168
1.50677e-168
4.0945e-169
1.0684e-169
2.69531e-170
6.61578e-171
1.58923e-171
3.75596e-172
8.77528e-173
2.03547e-173
4.7054e-174
1.0878e-174
2.52263e-175
5.88441e-176
1.38408e-176
3.28987e-177
7.91783e-178
1.93287e-178
4.79333e-179
1.20902e-179
3.09645e-180
7.69846e-181
9.17135e-222
4.0721e-221
1.79952e-220
8.22689e-220
3.89838e-219
1.9155e-218
9.76279e-218
5.16289e-217
2.83377e-216
1.61474e-215
9.55457e-215
5.87203e-214
3.74901e-213
2.48698e-212
1.71444e-211
1.22835e-210
9.14791e-210
7.08208e-209
5.69998e-208
4.76963e-207
4.14965e-206
3.75371e-205
3.53043e-204
3.45215e-203
3.50916e-202
3.70765e-201
4.07067e-200
4.64247e-199
5.49701e-198
6.75337e-197
8.62082e-196
1.30425e-194
1.95668e-193
2.90589e-192
4.26682e-191
6.18611e-190
8.84275e-189
1.24431e-187
1.72068e-186
2.33398e-185
3.09921e-184
4.01996e-183
5.08148e-182
6.24384e-181
7.43715e-180
8.56145e-179
9.49403e-178
1.01055e-176
1.02841e-175
9.96335e-175
9.14597e-174
7.9141e-173
6.41928e-172
4.85128e-171
3.39404e-170
2.18358e-169
1.28323e-168
6.84485e-168
3.29548e-167
1.4257e-166
5.52448e-166
1.91317e-165
5.9126e-165
1.62807e-164
3.97008e-164
8.41213e-164
1.50103e-163
2.16381e-163
2.44465e-163
2.08236e-163
1.39381e-163
7.78014e-164
3.77757e-164
1.6486e-164
6.61675e-165
2.47719e-165
8.71846e-166
2.89834e-166
9.13903e-167
2.74585e-167
7.90093e-168
2.18884e-168
5.86949e-169
1.5314e-169
3.90676e-170
9.79023e-171
2.42038e-171
5.92667e-172
1.44264e-172
3.50243e-173
8.50692e-174
2.07284e-174
5.07978e-175
1.25487e-175
3.13126e-176
7.90708e-177
2.024e-177
5.2586e-178
1.38424e-178
3.52378e-179
5.62156e-220
2.49363e-219
1.10105e-218
5.02949e-218
2.38125e-217
1.16904e-216
5.95307e-216
3.14535e-215
1.7248e-214
9.81884e-214
5.80413e-213
3.56337e-212
2.27255e-211
1.50579e-210
1.03675e-209
7.41807e-209
5.51644e-208
4.26392e-207
3.42581e-206
2.86111e-205
2.48384e-204
2.24141e-203
2.10233e-202
2.04935e-201
2.07588e-200
2.18451e-199
2.38744e-198
2.70859e-197
3.18807e-196
3.8901e-195
4.92721e-194
7.38752e-193
1.09702e-191
1.61041e-190
2.33382e-189
3.3339e-188
4.68685e-187
6.47264e-186
8.76426e-185
1.16111e-183
1.50167e-182
1.89124e-181
2.3133e-180
2.74013e-179
3.13326e-178
3.44683e-177
3.63433e-176
3.65805e-175
3.49941e-174
3.16671e-173
2.69712e-172
2.15068e-171
1.5969e-170
1.09819e-169
6.95991e-169
4.0478e-168
2.15371e-167
1.04669e-166
4.64638e-166
1.88683e-165
7.02848e-165
2.40825e-164
7.59141e-164
2.18942e-163
5.68909e-163
1.29272e-162
2.47448e-162
3.81551e-162
4.51893e-162
3.90859e-162
2.60825e-162
1.43171e-162
6.73326e-163
2.81365e-163
1.07689e-163
3.86355e-164
1.31998e-164
4.33691e-165
1.37866e-165
4.2589e-166
1.28361e-166
3.78948e-167
1.09983e-167
3.1474e-168
8.90005e-169
2.49061e-169
6.90562e-170
1.89927e-170
5.18834e-171
1.40992e-171
3.81815e-172
1.03237e-172
2.79268e-173
7.57336e-174
2.06307e-174
5.65633e-175
1.56366e-175
4.36479e-176
1.22748e-176
3.30362e-177
6.17243e-218
2.7388e-217
1.20997e-216
5.53024e-216
2.61987e-215
1.28695e-214
6.55733e-214
3.46664e-213
1.90206e-212
1.08338e-211
6.40738e-211
3.93557e-210
2.51095e-209
1.66431e-208
1.14617e-207
8.20203e-207
6.0993e-206
4.71349e-205
3.78541e-204
3.15923e-203
2.73984e-202
2.4689e-201
2.3113e-200
2.24747e-199
2.26937e-198
2.37865e-197
2.58685e-196
2.91716e-195
3.40848e-194
4.12247e-193
5.16653e-192
7.64803e-191
1.11874e-189
1.61361e-188
2.29096e-187
3.19579e-186
4.37129e-185
5.85003e-184
7.64174e-183
9.71837e-182
1.1999e-180
1.43395e-179
1.65321e-178
1.83224e-177
1.94456e-176
1.9681e-175
1.89118e-174
1.71733e-173
1.46662e-172
1.17235e-171
8.73271e-171
6.03952e-170
3.86912e-169
2.29497e-168
1.26234e-167
6.45904e-167
3.08551e-166
1.38124e-165
5.82111e-165
2.32316e-164
8.81724e-164
3.17798e-163
1.07767e-162
3.37978e-162
9.56333e-162
2.35812e-161
4.85625e-161
7.94681e-161
9.78394e-161
8.60699e-161
5.76785e-161
3.1217e-161
1.42044e-161
5.67326e-162
2.05815e-162
6.95277e-163
2.23059e-163
6.91412e-164
2.10231e-164
6.35125e-165
1.92569e-165
5.9002e-166
1.83328e-166
5.77826e-167
1.84307e-167
5.92421e-168
1.90939e-168
6.1417e-169
1.96436e-169
6.23322e-170
1.96056e-170
6.11421e-171
1.8927e-171
5.82546e-172
1.78632e-172
5.46894e-173
1.67533e-173
5.14401e-174
1.57835e-174
4.56586e-175
1.43478e-215
6.36496e-215
2.81192e-214
1.28517e-213
6.08808e-213
2.9904e-212
1.52352e-211
8.05297e-211
4.41744e-210
2.51532e-209
1.487e-208
9.12856e-208
5.82009e-207
3.85426e-206
2.65138e-205
1.8947e-204
1.40653e-203
1.08464e-202
8.68797e-202
7.22767e-201
6.24387e-200
5.6e-199
5.21285e-198
5.03451e-197
5.04238e-196
5.23439e-195
5.62789e-194
6.26186e-193
7.20247e-192
8.5533e-191
1.04943e-189
1.51523e-188
2.15408e-187
3.00739e-186
4.11479e-185
5.50481e-184
7.18281e-183
9.11653e-182
1.1222e-180
1.33544e-179
1.53101e-178
1.68452e-177
1.7714e-176
1.7723e-175
1.67888e-174
1.49797e-173
1.25204e-172
9.74967e-172
7.03731e-171
4.6895e-170
2.87967e-169
1.63216e-168
8.59204e-168
4.24567e-167
1.99444e-166
9.01193e-166
3.95514e-165
1.69911e-164
7.17432e-164
2.97499e-163
1.2031e-162
4.68319e-162
1.72509e-161
5.8802e-161
1.79853e-160
4.74271e-160
1.03318e-159
1.76983e-159
2.24447e-159
2.0057e-159
1.35397e-159
7.27412e-160
3.238e-160
1.2481e-160
4.3263e-161
1.38968e-161
4.23166e-162
1.24302e-162
3.57744e-163
1.02579e-163
2.98566e-164
8.98293e-165
2.83047e-165
9.37608e-166
3.24635e-166
1.16115e-166
4.23555e-167
1.55844e-167
5.73704e-168
2.10121e-168
7.62976e-169
2.74155e-169
9.74251e-170
3.42542e-170
1.19295e-170
4.12189e-171
1.41566e-171
4.83973e-172
1.63924e-172
5.14221e-173
4.32617e-213
1.91724e-212
8.4624e-212
3.86409e-211
1.82866e-210
8.97264e-210
4.566e-209
2.41044e-208
1.3204e-207
7.50682e-207
4.43016e-206
2.7143e-205
1.72668e-204
1.14054e-203
7.82274e-203
5.57112e-202
4.11935e-201
3.16198e-200
2.51914e-199
2.08257e-198
1.78592e-197
1.58807e-196
1.46356e-195
1.39712e-194
1.38053e-193
1.41086e-192
1.48982e-191
1.62369e-190
1.82388e-189
2.10827e-188
2.5085e-187
3.49593e-186
4.77599e-185
6.37693e-184
8.30052e-183
1.05038e-181
1.28835e-180
1.52667e-179
1.74148e-178
1.90484e-177
1.98928e-176
1.97421e-175
1.85232e-174
1.63401e-173
1.34719e-172
1.03175e-171
7.29577e-171
4.73819e-170
2.81617e-169
1.5314e-168
7.65437e-168
3.55396e-167
1.55734e-166
6.56736e-166
2.725e-165
1.13753e-164
4.84818e-164
2.1148e-163
9.34925e-163
4.12223e-162
1.7849e-161
7.46855e-161
2.95979e-160
1.0811e-159
3.5186e-159
9.79101e-159
2.22303e-158
3.93364e-158
5.08818e-158
4.60533e-158
3.15789e-158
1.70486e-158
7.50723e-159
2.81444e-159
9.37326e-160
2.87354e-160
8.33837e-161
2.34125e-161
6.47543e-162
1.79122e-162
5.03015e-163
1.45879e-163
4.45213e-164
1.45205e-164
5.084e-165
1.89451e-165
7.38913e-166
2.96391e-166
1.20557e-166
4.9247e-167
2.0081e-167
8.14374e-168
3.27761e-168
1.30758e-168
5.16822e-169
2.02402e-169
7.85761e-170
3.02348e-170
1.14348e-170
3.9236e-171
1.35719e-210
6.00673e-210
2.64797e-209
1.20751e-208
5.70638e-208
2.79562e-207
1.42024e-206
7.48367e-206
4.09098e-205
2.32044e-204
1.36584e-203
8.34359e-203
5.28982e-202
3.48062e-201
2.37667e-200
1.68392e-199
1.23772e-198
9.43546e-198
7.45747e-197
6.10836e-196
5.18253e-195
4.55175e-194
4.13549e-193
3.88353e-192
3.76586e-191
3.7667e-190
3.88123e-189
4.11395e-188
4.47815e-187
4.99616e-186
5.71225e-185
7.60614e-184
9.87705e-183
1.24645e-181
1.52401e-180
1.79943e-179
2.04432e-178
2.22592e-177
2.31279e-176
2.28226e-175
2.12785e-174
1.86386e-173
1.52462e-172
1.15728e-171
8.10063e-171
5.19889e-170
3.04625e-169
1.62714e-168
7.94349e-168
3.57056e-167
1.495e-166
5.91988e-166
2.26327e-165
8.59608e-165
3.3505e-164
1.37727e-163
6.01446e-163
2.74846e-162
1.2844e-161
6.01254e-161
2.77206e-160
1.23469e-159
5.18745e-159
1.99642e-158
6.8025e-158
1.9779e-157
4.68296e-157
8.53334e-157
1.12223e-156
1.03006e-156
7.19254e-157
3.90568e-157
1.70301e-157
6.28981e-158
2.04772e-158
6.06911e-159
1.68649e-159
4.51471e-160
1.19286e-160
3.17638e-161
8.67403e-162
2.46314e-162
7.3552e-163
2.33248e-163
7.91915e-164
2.88726e-164
1.12435e-164
4.61638e-165
1.96689e-165
8.57264e-166
3.7812e-166
1.67559e-166
7.42584e-167
3.28222e-167
1.44456e-167
6.32443e-168
2.75208e-168
1.18748e-168
5.01008e-169
1.87837e-169
4.23542e-208
1.87158e-207
8.23771e-207
3.75021e-206
1.76899e-205
8.64894e-205
4.38398e-204
2.30424e-203
1.25605e-202
7.10156e-202
4.1648e-201
2.53354e-200
1.59856e-199
1.04604e-198
7.09736e-198
4.99184e-197
3.63822e-196
2.74656e-195
2.14652e-194
1.7356e-193
1.45083e-192
1.25275e-191
1.11628e-190
1.02532e-189
9.69568e-189
9.42585e-188
9.4058e-187
9.61666e-186
1.00535e-184
1.07213e-183
1.16556e-182
1.46564e-181
1.78643e-180
2.10197e-179
2.37888e-178
2.57932e-177
2.66768e-176
2.61936e-175
2.42903e-174
2.11542e-173
1.71978e-172
1.29697e-171
9.01686e-171
5.74619e-170
3.34236e-169
1.77153e-168
8.57322e-168
3.81119e-167
1.5703e-166
6.06082e-166
2.22166e-165
7.88825e-165
2.78674e-164
1.01534e-163
3.95189e-163
1.67244e-162
7.63596e-162
3.66905e-161
1.80888e-160
8.94212e-160
4.33748e-159
2.01928e-158
8.81976e-158
3.52729e-157
1.2552e-156
3.82542e-156
9.54675e-156
1.82297e-155
2.46013e-155
2.28876e-155
1.63058e-155
8.83303e-156
3.75104e-156
1.35142e-156
4.32732e-157
1.26995e-157
3.48639e-158
9.12285e-159
2.32505e-159
5.91476e-160
1.54043e-160
4.20015e-161
1.21785e-161
3.78121e-162
1.25697e-162
4.46012e-163
1.684e-163
6.74084e-164
2.84305e-164
1.25185e-164
5.69262e-165
2.64615e-165
1.24699e-165
5.92203e-166
2.82278e-166
1.34679e-166
6.41718e-167
3.03964e-167
1.4032e-167
5.65517e-168
1.30123e-205
5.7388e-205
2.52086e-204
1.14509e-203
5.38825e-203
2.62721e-202
1.32758e-201
6.95349e-201
3.77537e-200
2.12492e-199
1.23975e-198
7.49706e-198
4.69825e-197
3.0504e-196
2.05119e-195
1.42788e-194
1.02845e-193
7.65963e-193
5.89435e-192
4.68266e-191
3.83663e-190
3.23831e-189
2.81222e-188
2.50917e-187
2.29655e-186
2.15241e-185
2.06171e-184
2.0139e-183
2.0012e-182
2.01722e-181
2.0601e-180
2.41346e-179
2.72107e-178
2.93818e-177
3.02531e-176
2.95632e-175
2.72757e-174
2.36271e-173
1.91013e-172
1.43233e-171
9.90128e-171
6.275e-170
3.63118e-169
1.91576e-168
9.23368e-168
4.08905e-167
1.67716e-166
6.42857e-166
2.32721e-165
8.06612e-165
2.72248e-164
9.16732e-164
3.17423e-163
1.16798e-162
4.68738e-162
2.06517e-161
9.85963e-161
4.96388e-160
2.55839e-159
1.31359e-158
6.56668e-158
3.13671e-157
1.40673e-156
5.79738e-156
2.14997e-155
6.99018e-155
1.87896e-154
3.80059e-154
5.25098e-154
4.95578e-154
3.61253e-154
1.948e-154
8.00683e-155
2.74261e-155
8.37471e-156
2.40453e-156
6.6429e-157
1.7781e-157
4.62755e-158
1.18086e-158
3.00557e-159
7.82161e-160
2.1394e-160
6.28799e-161
2.00454e-161
6.90593e-162
2.54498e-162
9.93232e-163
4.07797e-163
1.75434e-163
7.87697e-164
3.67099e-164
1.7632e-164
8.66262e-165
4.32405e-165
2.18099e-165
1.10625e-165
5.59947e-166
2.75667e-166
1.1694e-166
3.9128e-203
1.72133e-202
7.54094e-202
3.41521e-201
1.60163e-200
7.77957e-200
3.91425e-199
2.04014e-198
1.10151e-197
6.16017e-197
3.56788e-196
2.13962e-195
1.3281e-194
8.52919e-194
5.66425e-193
3.88742e-192
2.75512e-191
2.01468e-190
1.51853e-189
1.17845e-188
9.40392e-188
7.70561e-187
6.47318e-186
5.56518e-185
4.8871e-184
4.37424e-183
3.98112e-182
3.67468e-181
3.42976e-180
3.22607e-179
3.05213e-178
3.27958e-177
3.36284e-176
3.27165e-175
3.0044e-174
2.58979e-173
2.08315e-172
1.5541e-171
1.06891e-170
6.7421e-170
3.88496e-169
2.04254e-168
9.81972e-168
4.3413e-167
1.77864e-166
6.81025e-166
2.46059e-165
8.48716e-165
2.83128e-164
9.2929e-164
3.06034e-163
1.03421e-162
3.67089e-162
1.39644e-161
5.78632e-161
2.62525e-160
1.29153e-159
6.70285e-159
3.54132e-158
1.84601e-157
9.28712e-157
4.44089e-156
2.00223e-155
8.5305e-155
3.40892e-154
1.22501e-153
3.56887e-153
7.48259e-153
1.04844e-152
1.00302e-152
7.56378e-153
4.16369e-153
1.6887e-153
5.42052e-154