/*--------------------------------*- C++ -*----------------------------------*\
  =========                 |
  \\      /  F ield         | OpenFOAM: The Open Source CFD Toolbox
   \\    /   O peration     | Website:  https://openfoam.org
    \\  /    A nd           | Version:  9
     \\/     M anipulation  |
\*---------------------------------------------------------------------------*/
FoamFile
{
    format      ascii;
    class       surfaceScalarField;
    location    "0.01";
    object      alphaPhi0.water;
}
// * * * * * * * * * * * * * * * * * * * * * * * * * * * * * * * * * * * * * //

dimensions      [0 3 -1 0 0 0 0];

internalField   nonuniform List<scalar> 
39700
(
9.00411e-262
3.72563e-261
4.04817e-261
1.7566e-260
1.81091e-260
8.24058e-260
8.38162e-260
3.99972e-259
4.02154e-259
2.01245e-258
2.00112e-258
1.0501e-257
1.03305e-257
5.68447e-257
5.53444e-257
3.19336e-256
3.07798e-256
1.86224e-255
1.77755e-255
1.12766e-254
1.06625e-254
7.09234e-254
6.64477e-254
4.63423e-253
4.30316e-253
3.14659e-252
2.89649e-252
2.2206e-251
2.02684e-251
1.62911e-250
1.47471e-250
1.24267e-249
1.11585e-249
9.85749e-249
8.78192e-249
8.13293e-248
7.18994e-248
6.98017e-247
6.1246e-247
6.23286e-246
5.42887e-246
5.79127e-245
5.00817e-245
5.59993e-244
4.80885e-244
5.63596e-243
4.80663e-243
5.90436e-242
5.00159e-242
6.43914e-241
5.41819e-241
7.31043e-240
6.11026e-240
8.63968e-239
7.17241e-239
1.06275e-237
8.7611e-238
1.36029e-236
1.11323e-236
1.81109e-235
1.47413e-235
2.93127e-234
2.32184e-234
4.61059e-233
3.63881e-233
7.21588e-232
5.6666e-232
1.12217e-230
8.7608e-231
1.73257e-229
1.34341e-229
2.65319e-228
2.04107e-228
4.02567e-227
3.06899e-227
6.04503e-226
4.56116e-226
8.9724e-225
6.69122e-225
1.31455e-223
9.67489e-224
1.89831e-222
1.37659e-222
2.69767e-221
1.92414e-221
3.76614e-220
2.63716e-220
5.1557e-219
3.53699e-219
6.90713e-218
4.6323e-218
9.03632e-217
5.9103e-217
1.15176e-215
7.32787e-216
1.42663e-214
8.80464e-215
1.71261e-213
1.02214e-213
1.98656e-212
1.14277e-212
2.21937e-211
1.226e-211
2.37947e-210
1.25713e-210
2.43854e-209
1.22661e-209
2.37826e-208
1.13322e-208
2.19644e-207
9.8578e-208
1.91023e-206
8.02301e-207
1.55452e-205
6.06485e-206
1.17514e-204
4.2224e-205
8.18272e-204
2.68078e-204
5.19669e-203
1.53406e-203
2.97508e-202
7.80217e-203
1.51399e-201
3.4673e-202
6.73314e-201
1.31854e-201
2.56272e-200
4.18051e-201
8.13364e-200
1.06962e-200
2.08353e-199
2.11939e-200
4.13387e-199
3.08654e-200
6.02918e-199
3.08816e-200
6.04211e-199
1.96816e-200
3.85755e-199
9.29638e-201
1.49143e-199
3.52241e-201
5.39581e-200
1.12803e-201
1.64993e-200
3.17264e-202
4.43082e-201
8.0629e-203
1.07514e-201
1.89206e-203
2.40883e-202
4.16958e-204
5.06808e-203
8.74614e-205
1.01492e-203
1.7655e-205
1.95582e-204
3.46082e-206
3.65988e-205
6.63815e-207
6.70101e-206
1.2539e-207
1.20821e-206
2.34541e-208
2.15706e-207
4.36494e-209
3.83146e-208
8.11584e-210
6.79894e-209
1.51305e-210
1.20966e-209
2.83737e-211
2.16474e-210
5.36705e-212
3.90738e-211
1.02657e-212
7.13146e-212
1.98988e-213
1.31898e-212
3.91651e-214
2.47691e-213
7.84075e-215
4.73096e-214
1.59908e-215
9.20502e-215
3.32686e-216
1.82697e-215
7.06925e-217
3.70336e-216
1.53587e-217
7.67513e-217
3.41495e-218
1.62783e-217
7.77621e-219
3.53567e-218
1.81055e-219
7.85194e-219
1.71139e-219
3.68907e-259
1.52706e-258
1.65743e-258
7.1949e-258
7.40897e-258
3.3728e-257
3.42665e-257
1.63584e-256
1.6429e-256
8.22451e-256
8.16893e-256
4.28829e-255
4.21387e-255
2.31959e-254
2.25579e-254
1.30206e-253
1.25358e-253
7.58712e-253
7.23373e-253
4.59063e-252
4.3356e-252
2.88491e-251
2.69972e-251
1.8835e-250
1.74691e-250
1.27782e-249
1.17488e-249
9.01021e-249
8.21439e-249
6.60461e-248
5.97165e-248
5.03367e-247
4.51465e-247
3.98952e-246
3.55005e-246
3.2887e-245
2.90399e-245
2.8201e-244
2.47155e-244
2.51597e-243
2.18889e-243
2.33566e-242
2.01751e-242
2.2565e-241
1.93553e-241
2.26903e-240
1.93296e-240
2.375e-239
2.00964e-239
2.58786e-238
2.17518e-238
2.9355e-237
2.45097e-237
3.46631e-236
2.87466e-236
4.2603e-235
3.50861e-235
5.44863e-234
4.45479e-234
7.24863e-233
5.89464e-233
1.17231e-231
9.27786e-232
1.84259e-230
1.45308e-230
2.88183e-229
2.26146e-229
4.47885e-228
3.4944e-228
6.9112e-227
5.35585e-227
1.05783e-225
8.13396e-226
1.60435e-224
1.22263e-224
2.40829e-223
1.81664e-223
3.5736e-222
2.6646e-222
5.23481e-221
3.85255e-221
7.55893e-220
5.48186e-220
1.07423e-218
7.66354e-219
1.49992e-217
1.05063e-217
2.05388e-216
1.4097e-216
2.7527e-215
1.84724e-215
3.60318e-214
2.3585e-214
4.5957e-213
2.92665e-213
5.69729e-212
3.52001e-212
6.84626e-211
4.09132e-211
7.95093e-210
4.58052e-210
8.89509e-209
4.92202e-209
9.55214e-208
5.05629e-208
9.80739e-207
4.9439e-207
9.58517e-206
4.57842e-206
8.87367e-205
3.99354e-205
7.73844e-204
3.26027e-204
6.31699e-203
2.47319e-203
4.79215e-202
1.72874e-202
3.35025e-201
1.10258e-201
2.13743e-200
6.34251e-201
1.2301e-199
3.24529e-200
6.29782e-199
1.45235e-199
2.82052e-198
5.56836e-199
1.08236e-197
1.78256e-198
3.46845e-197
4.61281e-198
8.98604e-197
9.26113e-198
1.80651e-196
1.36861e-197
2.67356e-196
1.38948e-197
2.71866e-196
8.96622e-198
1.75738e-196
4.27672e-198
6.86102e-197
1.63489e-198
2.50428e-197
5.27867e-199
7.72025e-198
1.49603e-199
2.08906e-198
3.82932e-200
5.10537e-199
9.04685e-201
1.15156e-199
2.00642e-201
2.43824e-200
4.23413e-202
4.9121e-201
8.59594e-203
9.51976e-202
1.69414e-203
1.791e-202
3.26617e-204
3.29591e-203
6.19953e-205
5.97127e-204
1.16495e-205
1.07094e-204
2.17747e-206
1.91048e-205
4.06533e-207
3.40406e-206
7.60869e-208
6.07998e-207
1.43211e-208
1.09205e-207
2.71843e-209
1.97804e-208
5.21691e-210
3.6221e-209
1.01442e-210
6.72016e-210
2.00256e-211
1.26573e-210
4.02043e-212
2.4244e-211
8.22146e-213
4.72975e-212
1.71481e-213
9.41119e-213
3.65258e-214
1.91228e-213
7.95372e-215
3.9722e-214
1.77231e-215
8.4429e-215
4.04403e-216
1.83757e-215
9.43409e-217
4.08873e-216
8.92715e-217
1.33913e-256
5.54644e-256
6.01392e-256
2.61216e-255
2.68718e-255
1.224e-254
1.2423e-254
5.93397e-254
5.95364e-254
2.98215e-253
2.95904e-253
1.55424e-252
1.52574e-252
8.40343e-252
8.16411e-252
4.71506e-251
4.53494e-251
2.74625e-250
2.61572e-250
1.6609e-249
1.56705e-249
1.0433e-248
9.75344e-249
6.80837e-248
6.30829e-248
4.61687e-247
4.2407e-247
3.25397e-246
2.9636e-246
2.38409e-245
2.15346e-245
1.81617e-244
1.62729e-244
1.43876e-243
1.279e-243
1.18546e-242
1.04575e-242
1.01606e-241
8.89613e-242
9.06054e-241
7.87502e-241
8.40721e-240
7.25508e-240
8.11846e-239
6.95709e-239
8.15969e-238
6.94471e-238
8.53685e-237
7.21699e-237
9.29775e-236
7.80812e-236
1.05421e-234
8.79446e-235
1.24431e-233
1.03107e-233
1.52871e-232
1.25798e-232
1.95436e-231
1.59668e-231
2.59908e-230
2.11211e-230
4.2021e-229
3.32348e-229
6.60284e-228
5.20405e-228
1.03245e-226
8.09792e-227
1.60432e-225
1.25117e-225
2.47531e-224
1.91762e-224
3.78854e-223
2.91245e-223
5.74606e-222
4.37836e-222
8.62643e-221
6.50702e-221
1.28032e-219
9.54743e-220
1.87605e-218
1.38099e-218
2.71009e-217
1.9661e-217
3.85343e-216
2.7504e-216
5.38395e-215
3.77366e-215
7.37816e-214
5.0681e-214
9.89761e-213
6.64838e-213
1.29695e-211
8.49905e-212
1.65625e-210
1.05614e-210
2.05614e-209
1.27231e-209
2.47475e-208
1.48149e-208
2.87922e-207
1.662e-207
3.22763e-206
1.78996e-206
3.47387e-205
1.84344e-205
3.57568e-204
1.80754e-204
3.50448e-203
1.67917e-203
3.25451e-202
1.46979e-202
2.84806e-201
1.2046e-201
2.33397e-200
9.17782e-201
1.7783e-199
6.44664e-200
1.24931e-198
4.13432e-199
8.0144e-198
2.3931e-198
4.64107e-197
1.23319e-197
2.39299e-196
5.56387e-197
1.08044e-195
2.1533e-196
4.18508e-195
6.96866e-196
1.35577e-194
1.82627e-195
3.55712e-194
3.72025e-195
7.25547e-194
5.58644e-195
1.09105e-193
5.76251e-195
1.12719e-193
3.76916e-195
7.38511e-194
1.8171e-195
2.91404e-194
7.01393e-196
1.07393e-194
2.28497e-196
3.34033e-195
6.53007e-197
9.11408e-196
1.68462e-197
2.24477e-196
4.00941e-198
5.10052e-197
8.95427e-199
1.08746e-197
1.90208e-199
2.20517e-198
3.88561e-200
4.30018e-199
7.70319e-201
8.13755e-200
1.4934e-201
1.50583e-200
2.84957e-202
2.74244e-201
5.38131e-203
4.94293e-202
1.01059e-203
8.85917e-203
1.89519e-204
1.58551e-203
3.562e-205
2.84376e-204
6.73117e-206
5.12804e-205
1.28253e-206
9.32334e-206
2.47006e-207
1.71332e-206
4.81921e-208
3.18944e-207
9.54393e-209
6.02636e-208
1.92186e-209
1.15777e-208
3.94129e-210
2.26512e-209
8.24283e-211
4.51926e-210
1.76023e-211
9.20622e-211
3.8423e-212
1.91694e-211
8.58135e-213
4.08378e-212
1.96235e-213
8.90748e-213
4.58727e-214
1.98604e-213
4.34421e-214
4.84259e-254
2.00725e-253
2.17369e-253
9.44874e-253
9.70789e-253
4.4253e-252
4.48581e-252
2.14434e-251
2.14874e-251
1.07712e-250
1.06743e-250
5.61093e-250
5.50111e-250
3.03219e-249
2.94213e-249
1.70047e-248
1.63344e-248
9.89923e-248
9.41678e-248
5.98385e-247
5.63862e-247
3.75683e-246
3.5077e-246
2.45037e-245
2.26752e-245
1.66076e-244
1.52352e-244
1.16989e-243
1.06415e-243
8.56688e-243
7.72837e-243
6.52265e-242
5.83692e-242
5.16441e-241
4.5852e-241
4.25289e-240
3.74698e-240
3.64318e-239
3.18581e-239
3.24697e-238
2.81862e-238
3.0112e-237
2.59533e-237
2.90619e-236
2.4874e-236
2.91936e-235
2.48166e-235
3.05265e-234
2.57761e-234
3.32297e-233
2.7873e-233
3.76572e-232
3.13783e-232
4.4425e-231
3.67704e-231
5.45517e-230
4.4842e-230
6.97082e-229
5.68905e-229
9.26624e-228
7.5225e-228
1.4975e-226
1.18326e-226
2.35215e-225
1.85222e-225
3.67671e-224
2.88146e-224
5.71165e-223
4.45113e-223
8.81059e-222
6.82118e-222
1.34829e-220
1.03594e-220
2.04479e-219
1.5574e-219
3.06983e-218
2.31485e-218
4.55664e-217
3.39722e-217
6.67821e-216
4.91553e-216
9.65011e-215
7.00135e-215
1.37272e-213
9.79992e-214
1.919e-212
1.34554e-212
2.6316e-211
1.80864e-211
3.53318e-210
2.375e-210
4.63434e-209
3.03971e-209
5.92507e-208
3.78249e-208
7.36552e-207
4.5638e-207
8.87868e-206
5.32354e-206
1.03479e-204
5.98414e-205
1.1623e-203
6.45942e-204
1.25377e-202
6.66926e-203
1.29375e-201
6.55795e-202
1.27155e-200
6.11155e-201
1.18457e-199
5.36846e-200
1.04028e-198
4.41734e-199
8.55868e-198
3.38055e-198
6.54989e-197
2.38644e-197
4.62438e-196
1.53909e-196
2.98321e-195
8.96578e-196
1.73853e-194
4.65379e-195
9.0289e-194
2.11717e-194
4.11035e-193
8.27245e-194
1.60736e-192
2.70697e-193
5.26476e-192
7.18562e-193
1.39906e-191
1.4854e-192
2.89567e-191
2.26676e-192
4.42489e-191
2.37612e-192
4.64527e-191
1.57596e-192
3.08592e-191
7.68266e-193
1.23121e-191
2.99585e-193
4.58366e-192
9.8526e-194
1.43917e-192
2.84082e-194
3.96158e-193
7.39029e-195
9.83874e-194
1.77287e-195
2.25318e-194
3.98914e-196
4.83979e-195
8.53415e-197
9.8837e-196
1.75513e-197
1.94028e-196
3.50178e-198
3.69508e-197
6.82993e-199
6.87879e-198
1.31071e-199
1.25993e-198
2.48869e-200
2.28315e-199
4.69778e-201
4.11305e-200
8.85288e-202
7.39683e-201
1.6716e-202
1.3328e-201
3.17271e-203
2.41388e-202
6.07029e-204
4.40689e-203
1.17371e-204
8.13021e-204
2.29853e-205
1.51912e-204
4.56814e-206
2.8805e-205
9.22984e-207
5.55251e-206
1.89887e-207
1.08978e-206
3.98335e-208
2.18086e-207
8.53082e-209
4.45541e-208
1.86723e-209
9.30248e-209
4.1811e-210
1.98691e-209
9.58481e-211
4.3445e-210
2.24582e-211
9.70925e-211
2.12828e-211
1.75634e-251
7.28718e-251
7.87906e-251
3.42829e-250
3.51682e-250
1.6047e-249
1.6241e-249
7.77124e-249
7.77501e-249
3.90125e-248
3.86009e-248
2.03104e-247
1.98816e-247
1.09694e-246
1.06268e-246
6.14796e-246
5.89635e-246
3.57685e-245
3.39717e-245
2.1608e-244
2.03293e-244
1.35578e-243
1.26387e-243
8.83748e-243
8.16508e-243
5.98595e-242
5.48259e-242
4.214e-241
3.82705e-241
3.08388e-240
2.77762e-240
2.34649e-239
2.09648e-239
1.85667e-238
1.64583e-238
1.52797e-237
1.34408e-237
1.30805e-236
1.14203e-236
1.16503e-235
1.00973e-235
1.07971e-234
9.29129e-235
1.04136e-233
8.89898e-234
1.04538e-232
8.87255e-233
1.09237e-231
9.2095e-232
1.18831e-230
9.95219e-231
1.34574e-229
1.11965e-229
1.58656e-228
1.31122e-228
1.94696e-227
1.59806e-227
2.48633e-226
2.02623e-226
3.30303e-225
2.67771e-225
5.33484e-224
4.20969e-224
8.37489e-223
6.5864e-223
1.30843e-221
1.02418e-221
2.03167e-220
1.58149e-220
3.13272e-219
2.42281e-219
4.79241e-218
3.67864e-218
7.26617e-217
5.52949e-217
1.09067e-215
8.21826e-216
1.61876e-214
1.20613e-214
2.37247e-213
1.74544e-213
3.42866e-212
2.48674e-212
4.87839e-211
3.4821e-211
6.82226e-210
4.78354e-210
9.36036e-209
6.4343e-209
1.25754e-207
8.4563e-208
1.65081e-206
1.08341e-206
2.11268e-205
1.34979e-205
2.6294e-204
1.63092e-204
3.17396e-203
1.90555e-203
3.70512e-202
2.14605e-202
4.16937e-201
2.32148e-201
4.50696e-200
2.40275e-200
4.66183e-199
2.36916e-199
4.59429e-198
2.21477e-198
4.29312e-197
1.9523e-197
3.78323e-196
1.61276e-196
3.12469e-195
1.23972e-195
2.4018e-194
8.79543e-195
1.70414e-193
5.70463e-194
1.10552e-192
3.34454e-193
6.48368e-192
1.74875e-192
3.39171e-191
8.02247e-192
1.55692e-190
3.16496e-191
6.14681e-190
1.04725e-190
2.03571e-189
2.81591e-190
5.47932e-189
5.90714e-190
1.15076e-188
9.16095e-190
1.7869e-188
9.75947e-190
1.90631e-188
6.56583e-190
1.28445e-188
3.238e-190
5.18385e-189
1.27621e-190
1.95047e-189
4.23926e-191
6.18511e-190
1.23388e-191
1.71856e-190
3.23861e-192
4.30603e-191
7.8351e-193
9.94442e-192
1.77718e-193
2.15313e-192
3.83109e-194
4.43049e-193
7.93626e-195
8.76034e-194
1.59434e-195
1.67976e-194
3.12999e-196
3.14741e-195
6.04403e-197
5.80048e-196
1.15438e-197
1.0573e-196
2.19129e-198
1.91532e-197
4.15143e-199
3.46272e-198
7.87837e-200
6.27073e-199
1.5025e-200
1.14115e-199
2.88784e-201
2.0928e-200
5.60794e-202
3.87766e-201
1.10276e-202
7.27515e-202
2.20023e-203
1.38487e-202
4.4621e-204
2.67944e-203
9.2125e-205
5.27751e-204
1.93907e-205
1.05968e-204
4.16609e-206
2.17183e-205
9.14668e-207
4.54843e-206
2.05409e-207
9.74322e-207
4.72187e-208
2.13633e-207
1.10929e-208
4.78691e-208
1.05183e-208
6.37794e-249
2.64945e-248
2.85935e-248
1.24564e-247
1.27546e-247
5.82685e-247
5.88642e-247
2.82001e-246
2.81617e-246
1.41476e-245
1.39725e-245
7.36063e-245
7.19187e-245
3.97275e-244
3.84154e-244
2.22512e-243
2.13008e-243
1.2937e-242
1.22642e-242
7.81004e-242
7.33411e-242
4.897e-241
4.55649e-241
3.18985e-240
2.94162e-240
2.1591e-239
1.97382e-239
1.5189e-238
1.37682e-238
1.11076e-237
9.98568e-238
8.44562e-237
7.53147e-237
6.67776e-236
5.90821e-236
5.49149e-235
4.82142e-235
4.69763e-234
4.09357e-234
4.18081e-233
3.61663e-233
3.8717e-232
3.32538e-232
3.73131e-231
3.18252e-231
3.74279e-230
3.17061e-230
3.90799e-229
3.28846e-229
4.24786e-228
3.55087e-228
4.80684e-227
3.99173e-227
5.66254e-226
4.67109e-226
6.94339e-225
5.68858e-225
8.86004e-224
7.20732e-224
1.17614e-222
9.51765e-223
1.8982e-221
1.49524e-221
2.97774e-220
2.33786e-220
4.649e-219
3.63308e-219
7.21413e-218
5.60686e-218
1.11172e-216
8.58523e-217
1.6998e-215
1.30296e-215
2.57603e-214
1.95782e-214
3.8652e-213
2.90907e-213
5.73503e-212
4.26872e-212
8.40369e-211
6.17707e-211
1.21438e-209
8.8011e-210
1.72792e-208
1.23263e-208
2.41682e-207
1.69391e-207
3.31697e-206
2.2796e-206
4.45829e-205
2.99797e-205
5.85621e-204
3.84423e-204
7.5007e-203
4.79443e-203
9.34455e-202
5.80031e-202
1.12936e-200
6.78717e-201
1.32026e-199
7.65716e-200
1.4882e-198
8.29989e-199
1.61187e-197
8.61047e-198
1.67104e-196
8.51275e-197
1.65111e-195
7.98214e-196
1.54745e-194
7.06042e-195
1.36826e-193
5.85523e-194
1.13442e-192
4.52077e-193
8.75758e-192
3.22341e-192
6.24432e-191
2.10255e-191
4.0735e-190
1.24065e-190
2.40426e-189
6.53477e-190
1.26686e-188
3.02319e-189
5.8639e-188
1.20429e-188
2.3374e-187
4.02965e-188
7.82726e-187
1.09758e-187
2.1339e-186
2.33652e-187
4.54738e-186
3.68237e-187
7.17506e-186
3.98719e-187
7.77902e-186
2.72184e-187
5.31782e-186
1.3585e-187
2.1719e-186
5.41449e-188
8.26306e-187
1.81758e-188
2.64778e-187
5.34318e-189
7.43e-188
1.41578e-189
1.87923e-188
3.45612e-190
4.37885e-189
7.90669e-191
9.5619e-190
1.71841e-191
1.98354e-190
3.58749e-192
3.95238e-191
7.26043e-193
7.63431e-192
1.43541e-193
1.44048e-192
2.79037e-194
2.67242e-193
5.36344e-195
4.9021e-194
1.02428e-195
8.93387e-195
1.95171e-196
1.62443e-195
3.72419e-197
2.95779e-196
7.13958e-198
5.41057e-197
1.37906e-198
9.97178e-198
2.69067e-199
1.85634e-198
5.31482e-200
3.49844e-199
1.06497e-200
6.68798e-200
2.16859e-201
1.29926e-200
4.49471e-202
2.569e-201
9.49569e-203
5.17745e-202
2.04736e-203
1.06487e-202
4.51017e-204
2.23767e-203
1.01612e-204
4.80874e-204
2.34299e-205
1.05762e-204
5.52035e-206
2.37675e-205
5.23654e-206
2.31403e-246
9.62634e-246
1.03671e-245
4.52273e-245
4.62135e-245
2.11423e-244
2.13138e-244
1.02254e-243
1.019e-243
5.12645e-243
5.05232e-243
2.66533e-242
2.59872e-242
1.43756e-241
1.38714e-241
8.0461e-241
7.68611e-241
4.67475e-240
4.42221e-240
2.82013e-239
2.64263e-239
1.76699e-238
1.6406e-238
1.15015e-237
1.05838e-237
7.77925e-237
7.09638e-237
5.4685e-236
4.94628e-236
3.99605e-235
3.58464e-235
3.03603e-234
2.70153e-234
2.39864e-233
2.11759e-233
1.97097e-232
1.72668e-232
1.68468e-231
1.46483e-231
1.49811e-230
1.29309e-230
1.38619e-229
1.18796e-229
1.3348e-228
1.13596e-228
1.33776e-227
1.13073e-227
1.39559e-226
1.17173e-226
1.51562e-225
1.26412e-225
1.71354e-224
1.4198e-224
2.01677e-223
1.65996e-223
2.47073e-222
2.01975e-222
3.14991e-221
2.55671e-221
4.17765e-220
3.37332e-220
6.73639e-219
5.295e-219
1.05583e-217
8.27209e-218
1.64702e-216
1.28449e-216
2.55372e-215
1.98086e-215
3.93237e-214
3.03102e-214
6.00827e-213
4.59726e-213
9.09961e-212
6.9041e-212
1.36457e-210
1.02539e-210
2.02371e-209
1.5041e-209
2.96425e-208
2.17598e-208
4.2823e-207
3.09995e-207
6.09217e-206
4.34164e-206
8.52077e-205
5.96727e-205
1.16956e-203
8.03302e-204
1.5724e-202
1.05696e-202
2.06633e-201
1.35623e-201
2.64821e-200
1.69294e-200
3.30192e-199
2.05038e-199
3.99475e-198
2.40246e-198
4.67597e-197
2.71477e-197
5.2789e-196
2.94823e-196
5.72798e-195
3.06533e-195
5.95093e-194
3.03831e-194
5.89453e-193
2.85732e-193
5.54025e-192
2.5359e-192
4.91476e-191
2.11112e-191
4.09007e-190
1.63711e-190
3.171e-189
1.17312e-189
2.27201e-188
7.69535e-189
1.49039e-187
4.57017e-188
8.85247e-187
2.425e-187
4.6985e-186
1.1314e-186
2.19297e-185
4.55091e-186
8.82557e-185
1.53993e-185
2.98834e-184
4.24884e-185
8.2516e-184
9.17854e-185
1.78417e-183
1.46998e-184
2.86037e-183
1.61782e-184
3.1517e-183
1.12099e-184
2.1866e-183
5.665e-185
9.04126e-184
2.28436e-185
3.4798e-184
7.75349e-186
1.12733e-184
2.30338e-186
3.19656e-185
6.1647e-187
8.16561e-186
1.51936e-187
1.92084e-186
3.50779e-188
4.23265e-187
7.69048e-189
8.85665e-188
1.61895e-189
1.77942e-188
3.30261e-190
3.46432e-189
6.57909e-191
6.58614e-190
1.28823e-191
1.2307e-190
2.49332e-192
2.27307e-191
4.7931e-193
4.16983e-192
9.19062e-194
7.62956e-193
1.76428e-194
1.39753e-193
3.40171e-195
2.57108e-194
6.60666e-196
4.76444e-195
1.29577e-196
8.91573e-196
2.57231e-197
1.68863e-196
5.17891e-198
3.24354e-197
1.05939e-198
6.3298e-198
2.2053e-199
1.25702e-198
4.67839e-200
2.54388e-199
1.01272e-200
5.25293e-200
2.23942e-201
1.10801e-200
5.06365e-202
2.38978e-201
1.17165e-202
5.27427e-202
2.76969e-203
1.18919e-202
2.62813e-203
8.37217e-244
3.4885e-243
3.74813e-243
1.63782e-242
1.66966e-242
7.65107e-242
7.6952e-242
3.69784e-241
3.67645e-241
1.85261e-240
1.82154e-240
9.62522e-240
9.36267e-240
5.18774e-239
4.994e-239
2.90151e-238
2.76515e-238
1.68454e-237
1.58976e-237
1.01548e-236
9.49305e-237
6.35787e-236
5.88905e-236
4.1353e-235
3.7962e-235
2.79483e-234
2.54337e-234
1.96312e-233
1.77137e-233
1.4334e-232
1.2827e-232
1.08816e-231
9.65909e-232
8.59004e-231
7.56499e-231
7.05257e-230
6.16326e-230
6.02304e-229
5.22408e-229
5.35138e-228
4.60755e-228
4.94721e-227
4.22915e-227
4.75949e-226
4.04031e-226
4.76565e-225
4.01796e-225
4.967e-224
4.1597e-224
5.38904e-223
4.48335e-223
6.08684e-222
5.03057e-222
7.1569e-221
5.87567e-221
8.7591e-220
7.14206e-220
1.11557e-218
9.0318e-219
1.47805e-217
1.19046e-217
2.38091e-216
1.86678e-216
3.72796e-215
2.91356e-215
5.80966e-214
4.51993e-214
8.9993e-213
6.96411e-213
1.3845e-211
1.06471e-211
2.11353e-210
1.61362e-210
3.19836e-209
2.42158e-209
4.79267e-208
3.59423e-208
7.10299e-207
5.26939e-207
1.03982e-205
7.61993e-206
1.50147e-204
1.08521e-204
2.13528e-203
1.51963e-203
2.98583e-202
2.08855e-202
4.098e-201
2.81193e-201
5.50993e-200
3.70098e-200
7.24251e-199
4.75127e-199
9.28607e-198
5.9351e-198
1.15857e-196
7.19498e-197
1.40289e-195
8.44051e-196
1.64395e-194
9.55175e-195
1.85848e-193
1.03915e-193
2.01996e-192
1.08268e-192
2.10278e-191
1.07577e-191
2.08774e-190
1.01458e-190
1.96765e-189
9.03411e-190
1.75105e-188
7.54927e-189
1.46256e-187
5.87961e-188
1.13868e-186
4.23404e-187
8.19788e-186
2.79313e-186
5.40732e-185
1.66952e-185
3.23208e-184
8.9243e-185
1.72789e-183
4.19903e-184
8.132e-183
1.70552e-183
3.30421e-182
5.83619e-183
1.13124e-181
1.63114e-182
3.16365e-181
3.57553e-182
6.94008e-181
5.81877e-182
1.13041e-180
6.50946e-182
1.26585e-180
4.5797e-182
8.91583e-181
2.34453e-182
3.73411e-181
9.57082e-183
1.45476e-181
3.28676e-183
4.76789e-182
9.87427e-184
1.36704e-182
2.67126e-184
3.52951e-183
6.65174e-185
8.38785e-184
1.55092e-185
1.86646e-184
3.43247e-186
3.94225e-185
7.2913e-187
7.99175e-186
1.50028e-187
1.56928e-186
3.01338e-188
3.00791e-187
5.94696e-189
5.66471e-188
1.15967e-189
1.05409e-188
2.24533e-190
1.94748e-189
4.33483e-191
3.5876e-190
8.37572e-192
6.61425e-191
1.62499e-192
1.2244e-191
3.17475e-193
2.28236e-192
6.262e-194
4.29516e-193
1.24983e-194
8.17889e-194
2.52933e-195
1.57911e-194
5.19946e-196
3.09681e-195
1.08746e-196
6.17881e-196
2.31733e-197
1.25604e-196
5.03783e-198
2.60476e-197
1.11858e-198
5.51682e-198
2.5392e-199
1.19454e-198
5.89736e-200
2.64624e-199
1.39906e-200
5.9878e-200
1.32772e-200
3.01551e-241
1.25882e-240
1.349e-240
5.90566e-240
6.00509e-240
2.75689e-239
2.7657e-239
1.33149e-238
1.3204e-238
6.66597e-238
6.53734e-238
3.46081e-237
3.35773e-237
1.86393e-236
1.78968e-236
1.04173e-235
9.90197e-236
6.0435e-235
5.68864e-235
3.64042e-234
3.3943e-234
2.27751e-233
2.10404e-233
1.48019e-232
1.35524e-232
9.99592e-232
9.07253e-232
7.01563e-231
6.31356e-231
5.11837e-230
4.56806e-230
3.88236e-229
3.43696e-229
3.06218e-228
2.6895e-228
2.51193e-227
2.18923e-227
2.14334e-226
1.85395e-226
1.9026e-225
1.63364e-225
1.75727e-224
1.49806e-224
1.68899e-223
1.42978e-223
1.68953e-222
1.42046e-222
1.75916e-221
1.46908e-221
1.90668e-220
1.58174e-220
2.15132e-219
1.77293e-219
2.52683e-218
2.06854e-218
3.08916e-217
2.51163e-217
3.93004e-216
3.1727e-216
5.20125e-215
4.17719e-215
8.36895e-214
6.54308e-214
1.30891e-212
1.02008e-212
2.03754e-211
1.58081e-211
3.15274e-210
2.4331e-210
4.84517e-209
3.71615e-209
7.38892e-208
5.62668e-208
1.11706e-206
8.43659e-207
1.67237e-205
1.2512e-205
2.47647e-204
1.83304e-204
3.62262e-203
2.6491e-203
5.22755e-202
3.77095e-202
7.43029e-201
5.27859e-201
1.03857e-199
7.25329e-200
1.42504e-198
9.76507e-199
1.91582e-197
1.28542e-197
2.5184e-196
1.65075e-196
3.22983e-195
2.06319e-195
4.03156e-194
2.50311e-194
4.88511e-193
2.93949e-193
5.72995e-192
3.3309e-192
6.48565e-191
3.62966e-191
7.05993e-190
3.78919e-190
7.36304e-189
3.77384e-189
7.32666e-188
3.56897e-188
6.92335e-187
3.18814e-187
6.18018e-186
2.67404e-186
5.18044e-185
2.09155e-185
4.04991e-184
1.51358e-184
2.92961e-183
1.00412e-183
1.94296e-182
6.04065e-183
1.16866e-181
3.2529e-182
6.29295e-181
1.54356e-181
2.98633e-180
6.33079e-181
1.22506e-179
2.19071e-180
4.24054e-179
6.20164e-180
1.20098e-178
1.37924e-179
2.67249e-178
2.28041e-179
4.42171e-178
2.59303e-179
5.03201e-178
1.85302e-179
3.59935e-178
9.61466e-180
1.52765e-178
3.97556e-180
6.02755e-179
1.38215e-180
1.99968e-179
4.20158e-181
5.80083e-180
1.14958e-181
1.51458e-180
2.89384e-182
3.63835e-181
6.8179e-183
8.18006e-182
1.52404e-183
1.74492e-182
3.26841e-184
3.57097e-183
6.78678e-185
7.07583e-184
1.37509e-185
1.36805e-184
2.73646e-186
2.59783e-185
5.37874e-187
4.87242e-186
1.04936e-187
9.07031e-187
2.04065e-188
1.68302e-187
3.97033e-189
3.12436e-188
7.75402e-190
5.8219e-189
1.52451e-190
1.09209e-189
3.0252e-191
2.0676e-190
6.0729e-192
3.95984e-191
1.23578e-192
7.68742e-192
2.55375e-193
1.51553e-192
5.36804e-194
3.03902e-193
1.14942e-194
6.20751e-194
2.51033e-195
1.29323e-194
5.59841e-196
2.75107e-195
1.2762e-196
5.98185e-196
2.97594e-197
1.33048e-196
7.0871e-198
3.02211e-197
6.72526e-198
1.07875e-238
4.51254e-238
4.82209e-238
2.11538e-237
2.14502e-237
9.86796e-237
9.87191e-237
4.76248e-236
4.7096e-236
2.38255e-235
2.33003e-235
1.23605e-234
1.19587e-234
6.65217e-234
6.36921e-234
3.71504e-233
3.52129e-233
2.15361e-232
2.02141e-232
1.29627e-231
1.2052e-231
8.10331e-231
7.46477e-231
5.2623e-230
4.80429e-230
3.55084e-229
3.21355e-229
2.4901e-228
2.23444e-228
1.81518e-227
1.61531e-227
1.37566e-226
1.21428e-226
1.08409e-225
9.49355e-226
8.88494e-225
7.7206e-225
7.57426e-224
6.53208e-224
6.7172e-223
5.75033e-223
6.19813e-222
5.26787e-222
5.95138e-221
5.02268e-221
5.94721e-220
4.98472e-220
6.1858e-219
5.1498e-219
6.69733e-218
5.53861e-218
7.54826e-217
6.20104e-217
8.8557e-216
7.2266e-216
1.08138e-214
8.76421e-215
1.37411e-213
1.10576e-213
1.81637e-212
1.45407e-212
2.91896e-211
2.27483e-211
4.55961e-210
3.54218e-210
7.08895e-209
5.4826e-209
1.09554e-207
8.42851e-208
1.6816e-206
1.28582e-206
2.56141e-205
1.94472e-205
3.86794e-204
2.91281e-204
5.78441e-203
4.31561e-203
8.55685e-202
6.31676e-202
1.25053e-200
9.12158e-201
1.803e-199
1.29753e-199
2.56081e-198
1.81525e-198
3.57712e-197
2.49325e-197
4.90578e-196
3.35573e-196
6.59302e-195
4.41685e-195
8.66517e-194
5.67266e-194
1.1113e-192
7.09205e-193
1.38744e-191
8.60878e-192
1.6819e-190
1.01174e-190
1.97408e-189
1.14766e-189
2.23651e-188
1.25227e-188
2.4375e-187
1.30947e-187
2.54602e-186
1.30678e-186
2.53816e-185
1.23878e-185
2.40379e-184
1.10967e-184
2.1514e-183
9.3374e-184
1.8089e-182
7.33044e-183
1.41914e-181
5.32717e-182
1.03072e-180
3.55094e-181
6.86724e-180
2.14769e-180
4.15197e-179
1.1635e-179
2.24876e-178
5.55818e-179
1.07412e-177
2.2967e-178
4.43832e-177
8.01353e-178
1.54877e-176
2.28945e-177
4.42586e-176
5.14394e-177
9.94764e-176
8.60328e-177
1.66456e-175
9.91708e-177
1.91994e-175
7.21521e-177
1.3979e-175
3.80733e-177
6.03289e-176
1.60028e-177
2.4193e-176
5.65094e-178
8.15117e-177
1.74334e-178
2.39938e-177
4.83673e-179
6.35178e-178
1.23365e-179
1.54585e-178
2.94275e-180
3.51855e-179
6.65562e-181
7.59341e-180
1.44326e-181
1.57119e-180
3.02851e-182
3.14593e-181
6.1975e-183
6.14282e-182
1.245e-183
1.17747e-182
2.46918e-184
2.22818e-183
4.85837e-185
4.18316e-184
9.52458e-186
7.82469e-185
1.86744e-186
1.46375e-185
3.67389e-187
2.74751e-186
7.27376e-188
5.18984e-187
1.45302e-188
9.89096e-188
2.93538e-189
1.90631e-188
6.00943e-190
3.72319e-189
1.24904e-190
7.38242e-190
2.64e-191
1.48852e-190
5.68264e-192
3.05645e-191
1.24733e-192
6.39957e-192
2.7951e-193
1.36791e-192
6.40092e-194
2.98801e-193
1.49916e-194
6.67507e-194
3.58514e-195
1.52254e-194
3.4015e-195
3.45652e-236
1.4492e-235
1.54377e-235
6.78773e-235
6.86167e-235
3.16385e-234
3.15539e-234
1.52572e-233
1.50412e-233
7.62659e-233
7.43542e-233
3.95339e-232
3.813e-232
2.12587e-231
2.02912e-231
1.18624e-230
1.12087e-230
6.8708e-230
6.42885e-230
4.13201e-229
3.82962e-229
2.58076e-228
2.36988e-228
1.67445e-227
1.52385e-227
1.12884e-226
1.01834e-226
7.90884e-226
7.07396e-226
5.75969e-225
5.10886e-225
4.36078e-224
3.83662e-224
3.43306e-223
2.99644e-223
2.8107e-222
2.43422e-222
2.39349e-221
2.05718e-221
2.12027e-220
1.80887e-220
1.95414e-219
1.65508e-219
1.87405e-218
1.57603e-218
1.87033e-217
1.56202e-217
1.94275e-216
1.61146e-216
2.10041e-215
1.73052e-215
2.36371e-214
1.93442e-214
2.76871e-213
2.25053e-213
3.37518e-212
2.72447e-212
4.28107e-211
3.43081e-211
5.64803e-210
4.50221e-210
9.05777e-209
7.02792e-209
1.41173e-207
1.09174e-207
2.18962e-206
1.68551e-206
3.37524e-205
2.58413e-205
5.1666e-204
3.93074e-204
7.84658e-203
5.9263e-203
1.18114e-201
8.84641e-202
1.76033e-200
1.30589e-200
2.59442e-199
1.90387e-199
3.77638e-198
2.73742e-198
5.42109e-197
3.87573e-197
7.66312e-196
5.39445e-196
1.0649e-194
7.36779e-195
1.45216e-193
9.85539e-194
1.93942e-192
1.28835e-192
2.5314e-191
1.64215e-191
3.22166e-190
2.03575e-190
3.98789e-189
2.44779e-189
4.78806e-188
2.84613e-188
5.55937e-187
3.18954e-187
6.22163e-186
3.43241e-186
6.68657e-185
3.53257e-185
6.87303e-184
3.46106e-184
6.72587e-183
3.21143e-183
6.23378e-182
2.80537e-182
5.43989e-181
2.29155e-181
4.43926e-180
1.73652e-180
3.36111e-179
1.20954e-179
2.33929e-178
7.65906e-179
1.48028e-177
4.35145e-178
8.40529e-177
2.18318e-177
4.21508e-176
9.48776e-177
1.83116e-175
3.48915e-176
6.73254e-175
1.05638e-175
2.03812e-174
2.55532e-175
4.93011e-174
4.80778e-175
9.2771e-174
6.92769e-175
1.33712e-173
7.53161e-175
1.45425e-173
5.95364e-175
1.15017e-173
3.63764e-175
5.74645e-174
1.80621e-175
2.72188e-174
7.49261e-176
1.07714e-174
2.67308e-176
3.66616e-175
8.42336e-177
1.10219e-175
2.39885e-177
2.99472e-176
6.29325e-178
7.49585e-177
1.54521e-178
1.75603e-177
3.59793e-179
3.90118e-178
8.03217e-180
8.30959e-179
1.73514e-180
1.71271e-179
3.65553e-181
3.44272e-180
7.561e-182
6.79405e-181
1.54423e-182
1.3239e-181
3.1297e-183
2.55999e-182
6.32168e-184
4.93348e-183
1.27744e-184
9.5113e-184
2.59102e-185
1.84052e-184
5.29046e-186
3.58532e-185
1.09027e-186
7.04895e-186
2.27296e-187
1.40193e-186
4.80342e-188
2.82631e-187
1.03085e-188
5.78616e-188
2.25024e-189
1.20486e-188
5.00346e-190
2.55551e-189
1.13467e-190
5.52796e-190
2.62731e-191
1.22091e-190
6.21675e-192
2.75551e-191
1.50081e-192
6.34485e-192
1.42937e-192
6.46575e-234
2.71763e-233
2.88421e-233
1.27131e-232
1.28043e-232
5.91866e-232
5.88105e-232
2.85073e-231
2.79997e-231
1.42325e-230
1.38241e-230
7.36853e-230
7.08029e-230
3.95732e-229
3.763e-229
2.20537e-228
2.07595e-228
1.2757e-227
1.18909e-227
7.66167e-227
7.07373e-227
4.77881e-226
4.37134e-226
3.09627e-225
2.8068e-225
2.08438e-224
1.87294e-224
1.45821e-223
1.29907e-223
1.06034e-222
9.36716e-223
8.0154e-222
7.02297e-222
6.29983e-221
5.47562e-221
5.14894e-220
4.44023e-220
4.37674e-219
3.74536e-219
3.86977e-218
3.28664e-218
3.55937e-217
3.00074e-217
3.40613e-216
2.85081e-216
3.39153e-215
2.81842e-215
3.51403e-214
2.89975e-214
3.7889e-213
3.1048e-213
4.25126e-212
3.45935e-212
4.96348e-211
4.01029e-211
6.02905e-210
4.83562e-210
7.61695e-209
6.06258e-209
1.00049e-207
7.91691e-208
1.59662e-206
1.22899e-206
2.47466e-205
1.8974e-205
3.81456e-204
2.90924e-204
5.83954e-203
4.42609e-203
8.8701e-202
6.67502e-202
1.33556e-200
9.96786e-201
1.99118e-199
1.47213e-199
2.93594e-198
2.14743e-198
4.27571e-197
3.08957e-197
6.14147e-196
4.37732e-196
8.68689e-195
6.097e-195
1.20796e-193
8.33345e-194
1.64832e-192
1.1155e-192
2.20275e-191