/*--------------------------------*- C++ -*----------------------------------*\
  =========                 |
  \\      /  F ield         | OpenFOAM: The Open Source CFD Toolbox
   \\    /   O peration     | Website:  https://openfoam.org
    \\  /    A nd           | Version:  9
     \\/     M anipulation  |
\*---------------------------------------------------------------------------*/
FoamFile
{
    format      ascii;
    class       volScalarField;
    location    "0.01";
    object      p;
}
// * * * * * * * * * * * * * * * * * * * * * * * * * * * * * * * * * * * * * //

dimensions      [1 -1 -2 0 0 0 0];

internalField   nonuniform List<scalar> 
20000
(
0.493003
0.493003
0.493006
0.49301
0.493014
0.493019
0.493024
0.49303
0.493036
0.493042
0.493048
0.493055
0.493062
0.493068
0.493075
0.493082
0.493089
0.493096
0.493102
0.493108
0.493114
0.493119
0.493124
0.493128
0.493131
0.493133
0.493134
0.493134
0.493131
0.493127
0.49312
0.49311
0.493097
0.493081
0.493063
0.493042
0.493018
0.492992
0.492964
0.492934
0.492902
0.492869
0.492834
0.492798
0.492762
0.492726
0.492691
0.492656
0.492623
0.492592
0.492563
0.492538
0.492516
0.492499
0.492486
0.492478
0.492475
0.492478
0.492487
0.492502
0.492523
0.49255
0.492582
0.49262
0.492662
0.492708
0.492758
0.49281
0.492863
0.492916
0.492964
0.493004
0.49304
0.493072
0.4931
0.493124
0.493144
0.49316
0.493173
0.493183
0.49319
0.493194
0.493195
0.493195
0.493192
0.493188
0.493182
0.493174
0.493166
0.493156
0.493146
0.493134
0.493123
0.49311
0.493097
0.493084
0.49307
0.493055
0.493039
0.493021
0.491042
0.491046
0.491055
0.491065
0.491076
0.491089
0.491102
0.491117
0.491133
0.491149
0.491167
0.491186
0.491205
0.491226
0.491247
0.49127
0.491293
0.491317
0.491342
0.491367
0.491394
0.49142
0.491448
0.491476
0.491504
0.491533
0.491562
0.491591
0.49162
0.491648
0.491679
0.491709
0.491737
0.491762
0.491784
0.491803
0.491819
0.491833
0.491844
0.491853
0.491859
0.491863
0.491865
0.491865
0.491864
0.491861
0.491857
0.491853
0.491848
0.491843
0.49184
0.491838
0.491837
0.491838
0.491839
0.491842
0.491847
0.491853
0.491861
0.491871
0.491882
0.491895
0.491908
0.491921
0.491934
0.491946
0.491957
0.491964
0.491969
0.491968
0.491962
0.491953
0.49194
0.491924
0.491904
0.491882
0.491857
0.49183
0.491801
0.49177
0.491738
0.491704
0.49167
0.491635
0.491599
0.491563
0.491527
0.49149
0.491454
0.491418
0.491383
0.491347
0.491312
0.491277
0.491243
0.491208
0.491174
0.491139
0.491104
0.491067
0.489085
0.489097
0.489112
0.489128
0.489146
0.489164
0.489184
0.489206
0.489229
0.489253
0.489279
0.489307
0.489335
0.489365
0.489397
0.48943
0.489465
0.489501
0.489538
0.489577
0.489617
0.489659
0.489702
0.489747
0.489793
0.48984
0.489888
0.489938
0.489988
0.49004
0.490097
0.490156
0.490212
0.490265
0.490315
0.490363
0.490407
0.490448
0.490487
0.490522
0.490555
0.490585
0.490612
0.490637
0.49066
0.49068
0.490698
0.490714
0.490729
0.490742
0.490756
0.490771
0.490784
0.490797
0.490808
0.490818
0.490827
0.490835
0.490841
0.490846
0.490848
0.490849
0.490846
0.49084
0.49083
0.490816
0.490796
0.490769
0.490736
0.490694
0.490648
0.490601
0.490551
0.490499
0.490445
0.490388
0.490331
0.490272
0.490212
0.490152
0.490092
0.490031
0.489971
0.489912
0.489853
0.489795
0.489738
0.489682
0.489627
0.489573
0.48952
0.489469
0.489419
0.48937
0.489323
0.489276
0.489231
0.489187
0.489145
0.489103
0.487127
0.487144
0.487166
0.487189
0.487213
0.487238
0.487266
0.487294
0.487325
0.487357
0.487391
0.487427
0.487464
0.487504
0.487545
0.487589
0.487634
0.487682
0.487731
0.487782
0.487836
0.487892
0.48795
0.48801
0.488073
0.488137
0.488204
0.488273
0.488344
0.488416
0.488497
0.488583
0.488667
0.488747
0.488824
0.488898
0.488969
0.489036
0.489101
0.489162
0.48922
0.489275
0.489327
0.489376
0.489421
0.489463
0.489502
0.489538
0.489571
0.489602
0.489632
0.489662
0.48969
0.489714
0.489735
0.489752
0.489765
0.489774
0.489779
0.489778
0.489773
0.489762
0.489744
0.48972
0.489688
0.489649
0.4896
0.489541
0.489472
0.489391
0.489307
0.489226
0.489142
0.489056
0.488968
0.48888
0.488791
0.488702
0.488614
0.488526
0.488439
0.488354
0.488269
0.488187
0.488106
0.488027
0.48795
0.487875
0.487802
0.487732
0.487663
0.487597
0.487532
0.48747
0.48741
0.487353
0.487297
0.487244
0.487193
0.487144
0.485167
0.485192
0.48522
0.48525
0.485281
0.485314
0.48535
0.485386
0.485425
0.485466
0.48551
0.485555
0.485603
0.485653
0.485705
0.48576
0.485818
0.485878
0.485941
0.486007
0.486075
0.486147
0.486221
0.486299
0.486379
0.486463
0.48655
0.48664
0.486734
0.48683
0.486938
0.487053
0.487166
0.487276
0.487383
0.487487
0.487587
0.487684
0.487777
0.487867
0.487953
0.488035
0.488114
0.488188
0.488259
0.488325
0.488387
0.488444
0.488497
0.488547
0.488596
0.488642
0.488685
0.488722
0.488753
0.488777
0.488795
0.488806
0.488808
0.488803
0.488789
0.488765
0.488732
0.488688
0.488633
0.488565
0.488485
0.488392
0.488284
0.488162
0.488037
0.487919
0.487797
0.487674
0.487551
0.487427
0.487304
0.487182
0.487062
0.486943
0.486827
0.486713
0.486602
0.486494
0.486389
0.486287
0.486188
0.486092
0.485999
0.48591
0.485823
0.48574
0.48566
0.485584
0.48551
0.485439
0.485372
0.485308
0.485246
0.485187
0.483208
0.483239
0.483273
0.48331
0.483349
0.48339
0.483433
0.483478
0.483526
0.483576
0.483629
0.483685
0.483743
0.483804
0.483868
0.483935
0.484006
0.484079
0.484156
0.484237
0.484321
0.484409
0.484501
0.484597
0.484697
0.484801
0.484909
0.485022
0.485138
0.485259
0.485395
0.485542
0.485686
0.485827
0.485965
0.486099
0.48623
0.486357
0.486481
0.4866
0.486715
0.486826
0.486933
0.487034
0.487131
0.487222
0.487308
0.487388
0.487463
0.487532
0.487599
0.487664
0.487722
0.487772
0.487814
0.487846
0.487868
0.487881
0.487882
0.487871
0.487848
0.487812
0.487762
0.487698
0.487618
0.487523
0.487411
0.487281
0.487134
0.486969
0.486801
0.486643
0.486483
0.486321
0.48616
0.485999
0.48584
0.485683
0.485529
0.485379
0.485232
0.485089
0.48495
0.484815
0.484684
0.484558
0.484436
0.484318
0.484205
0.484096
0.483991
0.48389
0.483794
0.483702
0.483614
0.48353
0.483449
0.483373
0.483301
0.483231
0.481249
0.481285
0.481326
0.48137
0.481416
0.481464
0.481515
0.481569
0.481625
0.481685
0.481747
0.481812
0.481881
0.481953
0.482029
0.482108
0.482191
0.482278
0.482369
0.482465
0.482564
0.482669
0.482778
0.482892
0.483011
0.483135
0.483264
0.483399
0.483539
0.483685
0.483849
0.484027
0.484202
0.484374
0.484543
0.484708
0.484869
0.485026
0.48518
0.485329
0.485473
0.485613
0.485747
0.485875
0.485998
0.486115
0.486225
0.486328
0.486423
0.486512
0.486599
0.486681
0.486755
0.486818
0.486871
0.486911
0.486938
0.486952
0.486952
0.486937
0.486905
0.486857
0.486791
0.486707
0.486604
0.486481
0.486337
0.486173
0.485986
0.485778
0.485568
0.485371
0.485171
0.484971
0.484772
0.484574
0.484379
0.484188
0.484
0.483818
0.48364
0.483467
0.4833
0.483138
0.482982
0.482831
0.482686
0.482547
0.482413
0.482284
0.482161
0.482043
0.48193
0.481822
0.48172
0.481622
0.481528
0.48144
0.481356
0.481274
0.479289
0.479331
0.479379
0.47943
0.479483
0.479538
0.479597
0.479659
0.479724
0.479792
0.479864
0.479939
0.480018
0.480101
0.480188
0.48028
0.480375
0.480475
0.480581
0.480691
0.480806
0.480926
0.481053
0.481184
0.481322
0.481466
0.481617
0.481773
0.481937
0.482107
0.482299
0.482508
0.482714
0.482916
0.483115
0.483311
0.483503
0.48369
0.483873
0.484052
0.484225
0.484393
0.484556
0.484711
0.484861
0.485003
0.485137
0.485263
0.485379
0.485489
0.485594
0.485694
0.485784
0.485861
0.485924
0.485973
0.486006
0.486022
0.48602
0.486
0.485961
0.485901
0.48582
0.485716
0.48559
0.48544
0.485266
0.485066
0.484841
0.48459
0.484339
0.484103
0.483865
0.483627
0.48339
0.483155
0.482924
0.482698
0.482477
0.482262
0.482053
0.481851
0.481656
0.481467
0.481285
0.48111
0.480942
0.48078
0.480625
0.480477
0.480335
0.480199
0.48007
0.479946
0.479828
0.479716
0.479609
0.479507
0.479411
0.479318
0.47733
0.477378
0.477432
0.477489
0.477549
0.477612
0.477679
0.477749
0.477822
0.4779
0.477981
0.478066
0.478156
0.47825
0.478348
0.478452
0.47856
0.478674
0.478793
0.478917
0.479048
0.479185
0.479328
0.479478
0.479635
0.479799
0.47997
0.480149
0.480335
0.48053
0.48075
0.48099
0.481227
0.48146
0.48169
0.481917
0.482139
0.482357
0.482571
0.482779
0.482982
0.483179
0.48337
0.483554
0.48373
0.483898
0.484056
0.484206
0.484344
0.484474
0.484599
0.484717
0.484823
0.484915
0.484989
0.485046
0.485085
0.485103
0.485101
0.485077
0.48503
0.484958
0.484862
0.48474
0.48459
0.484413
0.484208
0.483974
0.483711
0.483418
0.483126
0.482851
0.482574
0.482297
0.482022
0.48175
0.481483
0.481221
0.480967
0.480719
0.480478
0.480246
0.480021
0.479805
0.479597
0.479397
0.479205
0.47902
0.478844
0.478675
0.478514
0.47836
0.478213
0.478072
0.477939
0.477812
0.477691
0.477576
0.477468
0.477362
0.47537
0.475424
0.475485
0.475549
0.475616
0.475686
0.475761
0.475839
0.475921
0.476008
0.476098
0.476194
0.476294
0.476399
0.476509
0.476624
0.476745
0.476872
0.477006
0.477145
0.477292
0.477445
0.477605
0.477773
0.477949
0.478133
0.478326
0.478527
0.478737
0.478956
0.479205
0.479476
0.479744
0.480009
0.48027
0.480528
0.480782
0.481031
0.481275
0.481514
0.481748
0.481974
0.482194
0.482406
0.48261
0.482804
0.482989
0.483162
0.483323
0.483474
0.483619
0.483756
0.483879
0.483985
0.484071
0.484137
0.484182
0.484203
0.4842
0.484172
0.484117
0.484035
0.483923
0.483782
0.48361
0.483406
0.483171
0.482902
0.4826
0.482265
0.481931
0.481618
0.481301
0.480986
0.480672
0.480362
0.480058
0.47976
0.47947
0.479189
0.478916
0.478652
0.478398
0.478153
0.477918
0.477692
0.477475
0.477267
0.477069
0.476879
0.476697
0.476524
0.476359
0.476202
0.476052
0.47591
0.475774
0.475646
0.475524
0.475407
0.473411
0.473471
0.473537
0.473608
0.473682
0.47376
0.473843
0.473929
0.47402
0.474115
0.474216
0.474321
0.474432
0.474548
0.474669
0.474797
0.474931
0.475072
0.475219
0.475374
0.475536
0.475706
0.475883
0.47607
0.476265
0.476469
0.476683
0.476906
0.47714
0.477385
0.477662
0.477965
0.478265
0.478561
0.478855
0.479144
0.47943
0.479711
0.479987
0.480257
0.480521
0.480778
0.481028
0.481269
0.481501
0.481723
0.481933
0.482131
0.482316
0.482489
0.482654
0.48281
0.482951
0.483071
0.483169
0.483245
0.483295
0.48332
0.483317
0.483285
0.483223
0.483129
0.483003
0.482843
0.482649
0.482418
0.482152
0.481849
0.481509
0.481132
0.480756
0.480403
0.480048
0.479693
0.47934
0.478991
0.478649
0.478315
0.477989
0.477673
0.477367
0.477071
0.476786
0.476512
0.476248
0.475996
0.475753
0.475522
0.4753
0.475088
0.474886
0.474693
0.47451
0.474335
0.474168
0.47401
0.47386
0.473717
0.473582
0.473451
0.471451
0.471517
0.47159
0.471667
0.471749
0.471834
0.471924
0.472019
0.472119
0.472223
0.472333
0.472448
0.472569
0.472697
0.47283
0.47297
0.473117
0.473271
0.473433
0.473602
0.47378
0.473967
0.474162
0.474367
0.474581
0.474806
0.475041
0.475287
0.475545
0.475815
0.476121
0.476456
0.476788
0.477117
0.477443
0.477765
0.478083
0.478396
0.478704
0.479006
0.479302
0.47959
0.47987
0.480141
0.480402
0.480652
0.48089
0.481113
0.481322
0.481517
0.481704
0.481879
0.482037
0.482173
0.482283
0.482368
0.482426
0.482454
0.482451
0.482415
0.482346
0.482242
0.482101
0.481923
0.481706
0.481449
0.481153
0.480816
0.480438
0.480019
0.479601
0.479209
0.478814
0.478419
0.478027
0.477639
0.477259
0.476887
0.476524
0.476173
0.475832
0.475503
0.475187
0.474882
0.47459
0.474309
0.474041
0.473784
0.473538
0.473304
0.47308
0.472867
0.472664
0.472471
0.472287
0.472112
0.471947
0.471789
0.47164
0.471496
0.469492
0.469563
0.469643
0.469727
0.469815
0.469908
0.470006
0.470109
0.470217
0.470331
0.47045
0.470576
0.470707
0.470846
0.470991
0.471143
0.471303
0.471471
0.471647
0.471832
0.472025
0.472228
0.472441
0.472664
0.472898
0.473143
0.4734
0.47367
0.473952
0.474247
0.474583
0.47495
0.475315
0.475677
0.476035
0.47639
0.476741
0.477087
0.477427
0.477762
0.47809
0.47841
0.478722
0.479024
0.479315
0.479594
0.479859
0.480109
0.480342
0.480561
0.480769
0.480965
0.48114
0.481291
0.481415
0.481509
0.481574
0.481605
0.481602
0.481564
0.481488
0.481373
0.481218
0.481022
0.480783
0.4805
0.480174
0.479803
0.479387
0.478926
0.478467
0.478037
0.477602
0.477167
0.476735
0.476308
0.475888
0.475477
0.475078
0.474689
0.474313
0.473951
0.473601
0.473265
0.472943
0.472634
0.472338
0.472055
0.471785
0.471527
0.471281
0.471047
0.470823
0.470611
0.470409
0.470218
0.470035
0.469863
0.469699
0.469541
0.467532
0.467609
0.467695
0.467786
0.467882
0.467982
0.468088
0.468199
0.468316
0.468439
0.468568
0.468703
0.468846
0.468995
0.469152
0.469317
0.46949
0.469671
0.469861
0.470061
0.470271
0.47049
0.470721
0.470963
0.471216
0.471482
0.471761
0.472053
0.47236
0.472682
0.473047
0.473447
0.473845
0.47424
0.474632
0.47502
0.475405
0.475784
0.476159
0.476527
0.476888
0.477241
0.477585
0.477919
0.47824
0.478549
0.478843
0.47912
0.479379
0.479622
0.479852
0.480068
0.480262
0.480428
0.480564
0.480669
0.48074
0.480776
0.480774
0.480732
0.48065
0.480525
0.480356
0.480141
0.479881
0.479573
0.479217
0.478812
0.478359
0.477857
0.477357
0.476887
0.476413
0.475938
0.475465
0.474998
0.474538
0.474089
0.47365
0.473225
0.472812
0.472414
0.472031
0.471662
0.471309
0.47097
0.470646
0.470336
0.47004
0.469758
0.469489
0.469232
0.468988
0.468756
0.468535
0.468326
0.468127
0.467938
0.467759
0.467586
0.465572
0.465655
0.465748
0.465845
0.465948
0.466056
0.466169
0.466289
0.466414
0.466546
0.466685
0.466831
0.466984
0.467144
0.467313
0.46749
0.467676
0.467872
0.468076
0.468291
0.468517
0.468753
0.469002
0.469262
0.469535
0.469822
0.470123
0.470439
0.470771
0.471118
0.471514
0.471948
0.472379
0.472808
0.473234
0.473657
0.474075
0.474489
0.474898
0.475301
0.475696
0.476083
0.47646
0.476826
0.47718
0.477519
0.477842
0.478148
0.478434
0.478701
0.478954
0.47919
0.479402
0.479584
0.479734
0.479849
0.479927
0.479966
0.479965
0.47992
0.479832
0.479697
0.479514
0.479282
0.479
0.478667
0.478282
0.477845
0.477354
0.476811
0.47627
0.475761
0.475247
0.474732
0.474219
0.473712
0.473212
0.472722
0.472245
0.47178
0.471331
0.470896
0.470478
0.470076
0.46969
0.46932
0.468966
0.468628
0.468305
0.467998
0.467704
0.467425
0.467159
0.466906
0.466666
0.466437
0.466221
0.466015
0.46582
0.465632
0.463612
0.463702
0.4638
0.463905
0.464014
0.464129
0.464251
0.464379
0.464513
0.464654
0.464802
0.464958
0.465122
0.465294
0.465475
0.465664
0.465863
0.466072
0.466291
0.466522
0.466763
0.467017
0.467283
0.467562
0.467856
0.468164
0.468487
0.468827
0.469183
0.469558
0.469984
0.470452
0.470917
0.471381
0.471842
0.472299
0.472753
0.473203
0.473647
0.474084
0.474515
0.474936
0.475348
0.475747
0.476134
0.476505
0.476858
0.477193
0.477507
0.477799
0.478075
0.478332
0.478563
0.47876
0.478923
0.479048
0.479134
0.479177
0.479176
0.47913
0.479035
0.47889
0.478694
0.478445
0.478143
0.477785
0.477371
0.476901
0.476374
0.47579
0.475208
0.474661
0.474107
0.473552
0.472998
0.47245
0.471909
0.471379
0.470862
0.470358
0.46987
0.469398
0.468944
0.468507
0.468087
0.467685
0.467301
0.466933
0.466582
0.466248
0.465929
0.465626
0.465337
0.465062
0.464801
0.464553
0.464317
0.464094
0.463882
0.463678
0.461652
0.461748
0.461853
0.461964
0.46208
0.462203
0.462332
0.462468
0.462611
0.462762
0.46292
0.463086
0.46326
0.463444
0.463636
0.463838
0.46405
0.464273
0.464507
0.464752
0.46501
0.465281
0.465565
0.465863
0.466177
0.466506
0.466852
0.467216
0.467598
0.468
0.468457
0.468959
0.46946
0.469959
0.470455
0.470949
0.471439
0.471924
0.472405
0.472879
0.473345
0.473802
0.474249
0.474683
0.475103
0.475506
0.475892
0.476256
0.476598
0.476917
0.477217
0.477495
0.477743
0.477957
0.478133
0.478268
0.478361
0.478408
0.478409
0.47836
0.478259
0.478105
0.477896
0.477631
0.477308
0.476925
0.476483
0.475981
0.475417
0.474793
0.474171
0.473586
0.472993
0.472397
0.471803
0.471214
0.470632
0.470061
0.469503
0.468959
0.468432
0.467922
0.46743
0.466957
0.466503
0.466067
0.46565
0.465252
0.464872
0.46451
0.464164
0.463835
0.463522
0.463225
0.462942
0.462673
0.462418
0.462175
0.461946
0.461725
0.459692
0.459793
0.459905
0.460023
0.460146
0.460277
0.460414
0.460558
0.46071
0.460869
0.461037
0.461213
0.461399
0.461593
0.461797
0.462012
0.462237
0.462474
0.462723
0.462983
0.463257
0.463545
0.463848
0.464165
0.464499
0.46485
0.465219
0.465607
0.466016
0.466445
0.466934
0.467471
0.468008
0.468542
0.469075
0.469605
0.470132
0.470655
0.471173
0.471684
0.472187
0.472681
0.473163
0.473633
0.474087
0.474525
0.474942
0.475338
0.475709
0.476055
0.476378
0.476677
0.476944
0.477174
0.477362
0.477508
0.477608
0.47766
0.477662
0.477611
0.477505
0.477342
0.477121
0.476839
0.476496
0.47609
0.47562
0.475086
0.474486
0.473822
0.47316
0.472536
0.471904
0.471269
0.470634
0.470003
0.46938
0.468768
0.468169
0.467585
0.467018
0.466468
0.465938
0.465428
0.464938
0.464467
0.464017
0.463587
0.463176
0.462784
0.462411
0.462055
0.461717
0.461395
0.461089
0.460798
0.460522
0.460259
0.460011
0.459771
0.457732
0.457839
0.457957
0.458081
0.458212
0.45835
0.458495
0.458648
0.458808
0.458977
0.459154
0.459341
0.459537
0.459743
0.459959
0.460186
0.460425
0.460675
0.460939
0.461215
0.461505
0.46181
0.462131
0.462468
0.462823
0.463196
0.463588
0.464001
0.464435
0.464893
0.465414
0.465987
0.46656
0.467132
0.467702
0.46827
0.468834
0.469395
0.469951
0.4705
0.471041
0.471573
0.472092
0.472598
0.473088
0.47356
0.47401
0.474438
0.474839
0.475212
0.47556
0.475881
0.476166
0.476411
0.476613
0.476769
0.476877
0.476933
0.476937
0.476884
0.476773
0.476602
0.476369
0.476072
0.475709
0.47528
0.474782
0.474216
0.473581
0.472877
0.472175
0.471514
0.470843
0.470167
0.469492
0.46882
0.468156
0.467502
0.466862
0.466237
0.465629
0.46504
0.46447
0.463922
0.463394
0.462888
0.462403
0.461939
0.461496
0.461073
0.46067
0.460286
0.459921
0.459573
0.459243
0.458929
0.45863
0.458346
0.458078
0.457819
0.455771
0.455885
0.456009
0.45614
0.456278
0.456423
0.456576
0.456737
0.456906
0.457084
0.457271
0.457468
0.457675
0.457892
0.458121
0.45836
0.458612
0.458877
0.459155
0.459447
0.459754
0.460076
0.460416
0.460772
0.461148
0.461543
0.461959
0.462397
0.462858
0.463344
0.463898
0.464508
0.465118
0.465727
0.466335
0.466942
0.467545
0.468145
0.46874
0.469328
0.469908
0.470478
0.471036
0.471579
0.472105
0.472612
0.473096
0.473556
0.473988
0.47439
0.474763
0.475104
0.475408
0.475668
0.475884
0.476051
0.476166
0.476228
0.476233
0.47618
0.476065
0.475886
0.475641
0.475329
0.474947
0.474495
0.473971
0.473374
0.472703
0.47196
0.471218
0.470518
0.469808
0.469093
0.468377
0.467664
0.466958
0.466263
0.465581
0.464915
0.464266
0.463636
0.463027
0.462439
0.461873
0.461329
0.460808
0.460309
0.459833
0.459377
0.458943
0.45853
0.458136
0.457761
0.457405
0.457066
0.456743
0.456437
0.456146
0.455867
0.453811
0.45393
0.454061
0.454199
0.454344
0.454496
0.454657
0.454826
0.455004
0.455192
0.455388
0.455596
0.455813
0.456042
0.456282
0.456535
0.4568
0.457078
0.457371
0.457679
0.458003
0.458343
0.458701
0.459078
0.459474
0.459892
0.460332
0.460795
0.461284
0.461798
0.462386
0.463034
0.463682
0.464329
0.464977
0.465622
0.466265
0.466905
0.46754
0.468168
0.468788
0.469397
0.469993
0.470575
0.471138
0.47168
0.4722
0.472692
0.473156
0.473587
0.473985
0.474348
0.47467
0.474947
0.475176
0.475354
0.475478
0.475545
0.475553
0.475499
0.47538
0.475195
0.47494
0.474613
0.474213
0.473738
0.473187
0.472559
0.471854
0.47107
0.470288
0.46955
0.468801
0.468046
0.467289
0.466535
0.465789
0.465052
0.464328
0.463621
0.46293
0.462259
0.461609
0.460981
0.460376
0.459794
0.459236
0.4587
0.458188
0.457699
0.457233
0.456788
0.456364
0.45596
0.455576
0.45521
0.454862
0.454531
0.454217
0.453916
0.45185
0.451975
0.452112
0.452257
0.452409
0.452569
0.452738
0.452915
0.453102
0.453299
0.453505
0.453723
0.453951
0.454191
0.454443
0.454709
0.454987
0.45528
0.455588
0.455912
0.456252
0.45661
0.456987
0.457384
0.457802
0.458242
0.458706
0.459196
0.459712
0.460256
0.460878
0.461564
0.462251
0.462938
0.463625
0.464311
0.464995
0.465676
0.466351
0.46702
0.46768
0.46833
0.468965
0.469585
0.470186
0.470765
0.471319
0.471846
0.472341
0.472802
0.473226
0.473611
0.473952
0.474246
0.474489
0.474679
0.474812
0.474886
0.474898
0.474844
0.474723
0.474531
0.474266
0.473926
0.473508
0.473011
0.472434
0.471775
0.471034
0.47021
0.469387
0.468611
0.467822
0.467027
0.466229
0.465435
0.464646
0.463868
0.463103
0.462353
0.461621
0.460909
0.460218
0.459549
0.458904
0.458283
0.457686
0.457113
0.456565
0.45604
0.455539
0.455061
0.454605
0.454171
0.453757
0.453363
0.452987
0.45263
0.45229
0.451965
0.449889
0.450021
0.450164
0.450315
0.450474
0.450642
0.450819
0.451005
0.4512
0.451406
0.451622
0.45185
0.452089
0.452341
0.452605
0.452883
0.453175
0.453482
0.453805
0.454144
0.454502
0.454878
0.455274
0.455691
0.456131
0.456594
0.457083
0.457599
0.458144
0.458718
0.459375
0.4601
0.460827
0.461554
0.462282
0.463009
0.463734
0.464456
0.465173
0.465884
0.466585
0.467275
0.467951
0.46861
0.469249
0.469865
0.470455
0.471016
0.471544
0.472035
0.472486
0.472893
0.473254
0.473565
0.473824
0.474027
0.47417
0.474252
0.474268
0.474216
0.474094
0.473897
0.473623
0.47327
0.472835
0.472317
0.471713
0.471023
0.470246
0.469382
0.468518
0.467702
0.466873
0.466037
0.465198
0.464362
0.463532
0.462712
0.461904
0.461113
0.460339
0.459585
0.458853
0.458143
0.457457
0.456796
0.456159
0.455548
0.454962
0.454401
0.453864
0.453351
0.452861
0.452394
0.451949
0.451524
0.451119
0.450734
0.450367
0.450016
0.447928
0.448065
0.448215
0.448373
0.44854
0.448715
0.448899
0.449094
0.449298
0.449513
0.449739
0.449977
0.450227
0.45049
0.450766
0.451057
0.451362
0.451684
0.452022
0.452378
0.452752
0.453146
0.453562
0.454
0.454461
0.454948
0.455463
0.456005
0.456579
0.457184
0.457876
0.458641
0.459408
0.460177
0.460946
0.461715
0.462482
0.463247
0.464006
0.464759
0.465502
0.466233
0.466949
0.467647
0.468325
0.468979
0.469605
0.470201
0.470762
0.471285
0.471763
0.472194
0.472576
0.472906
0.473181
0.473398
0.473554
0.473645
0.473667
0.473619
0.473496
0.473295
0.473014
0.472649
0.472197
0.471658
0.471028
0.470307
0.469494
0.468588
0.467681
0.466825
0.465955
0.465077
0.464196
0.463317
0.462445
0.461582
0.460733
0.459899
0.459083
0.458287
0.457513
0.456762
0.456035
0.455333
0.454657
0.454006
0.453381
0.452782
0.452208
0.451658
0.451133
0.450631
0.450152
0.449695
0.449258
0.448842
0.448446
0.448067
0.445966
0.44611
0.446266
0.446431
0.446605
0.446787
0.44698
0.447182
0.447396
0.44762
0.447856
0.448104
0.448365
0.448639
0.448927
0.449231
0.44955
0.449886
0.450239
0.450611
0.451003
0.451416
0.451851
0.452309
0.452793
0.453305
0.453844
0.454414
0.455017
0.455654
0.456382
0.457188
0.457996
0.458806
0.459617
0.460429
0.461239
0.462047
0.462849
0.463644
0.464429
0.465202
0.465959
0.466697
0.467414
0.468105
0.468768
0.469399
0.469995
0.47055
0.471056
0.471512
0.471917
0.472268
0.472562
0.472795
0.472965
0.473067
0.473098
0.473055
0.472933
0.47273
0.472442
0.472066
0.471599
0.471039
0.470383
0.469631
0.468781
0.467832
0.466881
0.465983
0.46507
0.464148
0.463224
0.462301
0.461386
0.46048
0.459587
0.458711
0.457853
0.457015
0.456199
0.455406
0.454638
0.453895
0.453178
0.452487
0.451822
0.451183
0.45057
0.449983
0.449421
0.448883
0.448368
0.447876
0.447405
0.446956
0.446528
0.44612
0.444004
0.444155
0.444317
0.444489
0.44467
0.44486
0.44506
0.445271
0.445493
0.445726
0.445972
0.44623
0.446502
0.446788
0.447089
0.447405
0.447738
0.448088
0.448457
0.448845
0.449254
0.449686
0.450141
0.450621
0.451127
0.451663
0.452228
0.452826
0.453459
0.454127
0.454893
0.45574
0.45659
0.457442
0.458297
0.459151
0.460005
0.460856
0.461701
0.462539
0.463367
0.464181
0.464979
0.465757
0.466513
0.467243
0.467943
0.46861
0.469241
0.469828
0.470366
0.470848
0.471278
0.471652
0.471967
0.47222
0.472406
0.472522
0.472564
0.472528
0.47241
0.472206
0.471913
0.471527
0.471045
0.470464
0.469782
0.468998
0.468109
0.467116
0.46612
0.465178
0.464221
0.463254
0.462284
0.461316
0.460355
0.459405
0.458468
0.457548
0.456647
0.455767
0.454908
0.454074
0.453264
0.452479
0.451721
0.450989
0.450283
0.449604
0.448952
0.448325
0.447724
0.447147
0.446595
0.446066
0.44556
0.445076
0.444613
0.444173
0.442042
0.442199
0.442368
0.442546
0.442734
0.442932
0.44314
0.44336
0.44359
0.443833
0.444088
0.444357
0.44464
0.444937
0.44525
0.445579
0.445926
0.44629
0.446675
0.44708
0.447506
0.447956
0.448431
0.448933
0.449463
0.450023
0.450615
0.451241
0.451904
0.452605
0.453408
0.454297
0.455189
0.456085
0.456983
0.457881
0.458779
0.459673
0.460562
0.461443
0.462313
0.463169
0.464008
0.464827
0.465622
0.46639
0.467128
0.467832
0.468498
0.46912
0.46969
0.470202
0.470659
0.47106
0.471399
0.471674
0.47188
0.472013
0.472068
0.472041
0.471929
0.471726
0.471429
0.471035
0.470538
0.469937
0.469229
0.468412
0.467485
0.466446
0.465402
0.464415
0.46341
0.462396
0.461378
0.460363
0.459355
0.458358
0.457376
0.456411
0.455466
0.454541
0.45364
0.452763
0.451911
0.451084
0.450284
0.44951
0.448763
0.448043
0.44735
0.446683
0.446041
0.445425
0.444834
0.444266
0.443722
0.4432
0.442701
0.442228
0.44008
0.440243
0.440419
0.440604
0.440799
0.441004
0.44122
0.441448
0.441687
0.441939
0.442204
0.442483
0.442777
0.443086
0.443411
0.443753
0.444113
0.444493
0.444893
0.445314
0.445759
0.446228
0.446723
0.447247
0.4478
0.448385
0.449004
0.449659
0.450353
0.451087
0.451928
0.452859
0.453794
0.454734
0.455675
0.456618
0.457559
0.458497
0.45943
0.460353
0.461266
0.462164
0.463044
0.463903
0.464739
0.465546
0.466322
0.467064
0.467767
0.468425
0.469029
0.469574
0.470062
0.470492
0.47086
0.47116
0.471389
0.471542
0.471614
0.4716
0.471496
0.471296
0.470997
0.470594
0.470084
0.469463
0.468729
0.467878
0.466911
0.465825
0.464731
0.463696
0.462643
0.461578
0.46051
0.459445
0.458387
0.457342
0.456311
0.455299
0.454308
0.453338
0.452393
0.451472
0.450576
0.449707
0.448864
0.448049
0.44726
0.446498
0.445762
0.445053
0.444371
0.443713
0.443081
0.442474
0.44189
0.441329
0.440792
0.440283
0.438117
0.438287
0.438469
0.438661
0.438863
0.439076
0.4393
0.439536
0.439784
0.440045
0.44032
0.440609
0.440914
0.441234
0.441572
0.441927
0.442301
0.442695
0.443111
0.443549
0.444012
0.4445
0.445016
0.445562
0.446139
0.446749
0.447396
0.44808
0.448805
0.449572
0.450452
0.451426
0.452405
0.453388
0.454373
0.45536
0.456345
0.457327
0.458303
0.45927
0.460224
0.461164
0.462086
0.462986
0.463861
0.464708
0.465524
0.466304
0.467045
0.467741
0.468382
0.468964
0.469487
0.469951
0.470351
0.470681
0.470937
0.471114
0.471205
0.471207
0.471113
0.470919
0.470619
0.47021
0.469687
0.469046
0.468285
0.4674
0.466391
0.465256
0.464112
0.463027
0.461922
0.460805
0.459684
0.458566
0.457455
0.456358
0.455276
0.454214
0.453174
0.452157
0.451164
0.450198
0.449258
0.448345
0.447459
0.4466
0.445768
0.444963
0.444185
0.443434
0.442709
0.44201
0.441336
0.440687
0.440062
0.439462
0.438885
0.438339
0.436154
0.43633
0.436519
0.436718
0.436927
0.437147
0.437379
0.437624
0.437881
0.438151
0.438436
0.438735
0.439051
0.439383
0.439732
0.440101
0.440489
0.440898
0.44133
0.441785
0.442266
0.442774
0.443311
0.443878
0.444479
0.445116
0.44579
0.446504
0.44726
0.448061
0.448979
0.449997
0.451019
0.452046
0.453076
0.454107
0.455136
0.456161
0.45718
0.458189
0.459186
0.460168
0.461131
0.462072
0.462988
0.463876
0.464731
0.465552
0.466333
0.467069
0.467751
0.468373
0.468936
0.469438
0.469874
0.470239
0.470526
0.47073
0.470845
0.470865
0.470785
0.470598
0.470299
0.469885
0.469349
0.468689
0.4679
0.466982
0.46593
0.464745
0.463548
0.462412
0.461253
0.460081
0.458904
0.457729
0.456563
0.455409
0.454273
0.453157
0.452064
0.450997
0.449955
0.448941
0.447954
0.446995
0.446064
0.44516
0.444284
0.443436
0.442615
0.44182
0.441052
0.44031
0.439594
0.438903
0.438237
0.437596
0.436979
0.436395
0.434191
0.434374
0.434569
0.434774
0.434991
0.435219
0.435459
0.435711
0.435977
0.436257
0.436551
0.436861
0.437188
0.437531
0.437893
0.438275
0.438677
0.439101
0.439549
0.440021
0.44052
0.441048
0.441606
0.442196
0.442822
0.443484
0.444186
0.44493
0.445718
0.446553
0.447511
0.448571
0.449638
0.450708
0.451782
0.452856
0.453929
0.454998
0.456059
0.457111
0.45815
0.459174
0.460178
0.461161
0.462118
0.463047
0.463945
0.464807
0.465631
0.46641
0.467135
0.467802
0.468409
0.468955
0.469432
0.469835
0.470158
0.470393
0.470535
0.470577
0.470512
0.470335
0.470039
0.46962
0.469073
0.468394
0.467579
0.466625
0.465531
0.464294
0.463043
0.461854
0.46064
0.45941
0.458174
0.45694
0.455713
0.4545
0.453305
0.452131
0.450982
0.449859
0.448765
0.447699
0.446662
0.445654
0.444676
0.443726
0.442804
0.441911
0.441045
0.440207
0.439395
0.438611
0.437852
0.437119
0.436411
0.435729
0.435073
0.434452
0.432228
0.432417
0.432618
0.43283
0.433054
0.433289
0.433537
0.433798
0.434073
0.434362
0.434666
0.434987
0.435324
0.435679
0.436054
0.436449
0.436865
0.437304
0.437768
0.438258
0.438775
0.439323
0.439902
0.440515
0.441165
0.441854
0.442584
0.443359
0.444179
0.445048
0.446044
0.447148
0.448258
0.449373
0.45049
0.451608
0.452724
0.453835
0.454939
0.456033
0.457114
0.458179
0.459225
0.46025
0.46125
0.462222
0.463164
0.46407
0.464939
0.465763
0.466537
0.467253
0.467909
0.468502
0.469026
0.469472
0.469834
0.470105
0.470277
0.470343
0.470297
0.470132
0.469841
0.469419
0.468861
0.468164
0.467322
0.466333
0.465195
0.463907
0.462601
0.461358
0.460086
0.458797
0.457499
0.456202
0.454911
0.453634
0.452375
0.451139
0.449929
0.448747
0.447594
0.446473
0.445382
0.444321
0.443292
0.442293
0.441323
0.440383
0.439472
0.438589
0.437733
0.436905
0.436104
0.43533
0.434581
0.43386
0.433166
0.432508
0.430264
0.430459
0.430667
0.430886
0.431117
0.43136
0.431616
0.431885
0.432169
0.432467
0.432781
0.433112
0.43346
0.433828
0.434214
0.434623
0.435053
0.435507
0.435987
0.436495
0.437031
0.437598
0.438199
0.438836
0.439511
0.440226
0.440985
0.441789
0.442642
0.443545
0.44458
0.445727
0.44688
0.448038
0.449198
0.450359
0.451518
0.452671
0.453817
0.454953
0.456076
0.457183
0.458272
0.459339
0.460383
0.461401
0.462388
0.463342
0.464258
0.465132
0.465957
0.466727
0.467437
0.468082
0.468656
0.469149
0.469555
0.469864
0.47007
0.470164
0.470139
0.469988
0.469704
0.469281
0.468714
0.467999
0.46713
0.466107
0.464925
0.463585
0.462223
0.460925
0.459595
0.458244
0.456882
0.455519
0.454161
0.452816
0.45149
0.450186
0.44891
0.447662
0.446447
0.445263
0.444113
0.442995
0.441911
0.440859
0.439838
0.438849
0.43789
0.436961
0.436061
0.43519
0.434347
0.433532
0.432745
0.431986
0.431256
0.430563