/*--------------------------------*- C++ -*----------------------------------*\
  =========                 |
  \\      /  F ield         | OpenFOAM: The Open Source CFD Toolbox
   \\    /   O peration     | Website:  https://openfoam.org
    \\  /    A nd           | Version:  9
     \\/     M anipulation  |
\*---------------------------------------------------------------------------*/
FoamFile
{
    format      ascii;
    class       volScalarField;
    location    "0.01";
    object      p_rgh;
}
// * * * * * * * * * * * * * * * * * * * * * * * * * * * * * * * * * * * * * //

dimensions      [1 -1 -2 0 0 0 0];

internalField   nonuniform List<scalar> 
20000
(
-2.40934e-06
-2.03386e-06
9.70633e-07
4.77485e-06
9.07692e-06
1.38393e-05
1.90085e-05
2.45489e-05
3.04191e-05
3.65747e-05
4.29713e-05
4.95644e-05
5.63081e-05
6.31536e-05
7.00477e-05
7.69329e-05
8.37471e-05
9.04229e-05
9.68869e-05
0.000103058
0.000108846
0.000114151
0.000118862
0.000122851
0.000125974
0.000128067
0.000128947
0.000128403
0.000126201
0.000122081
0.000115195
0.000105
9.19993e-05
7.62186e-05
5.77268e-05
3.66145e-05
1.29957e-05
-1.29897e-05
-4.11735e-05
-7.13562e-05
-0.000103305
-0.00013675
-0.000171388
-0.000206874
-0.000242825
-0.000278826
-0.000314424
-0.00034914
-0.000382446
-0.000413656
-0.00044212
-0.000467324
-0.000488879
-0.000506373
-0.000519336
-0.000527334
-0.00052999
-0.000526993
-0.00051812
-0.000503253
-0.000482384
-0.000455628
-0.000423236
-0.000385597
-0.000343238
-0.000296828
-0.000247182
-0.000195263
-0.000142158
-8.89896e-05
-4.1559e-05
-1.65407e-06
3.43795e-05
6.6446e-05
9.44899e-05
0.00011855
0.000138737
0.000155224
0.000168221
0.000177963
0.000184701
0.000188693
0.000190198
0.000189468
0.000186748
0.000182268
0.000176241
0.000168864
0.000160316
0.000150756
0.000140323
0.000129134
0.000117284
0.000104844
9.18579e-05
7.83414e-05
6.42578e-05
4.95207e-05
3.39896e-05
1.54159e-05
-1.20945e-06
2.99967e-06
1.16883e-05
2.18401e-05
3.31173e-05
4.55198e-05
5.90345e-05
7.36421e-05
8.93132e-05
0.000106019
0.000123732
0.000142428
0.000162082
0.000182668
0.000204157
0.000226519
0.000249723
0.000273735
0.000298521
0.000324043
0.00035026
0.000377123
0.000404573
0.00043254
0.000460938
0.000489661
0.000518583
0.000547555
0.000576408
0.000604972
0.00063539
0.000666138
0.000693916
0.000718769
0.000740738
0.000759871
0.00077623
0.000789888
0.000800937
0.000809491
0.000815682
0.000819668
0.000821633
0.00082179
0.000820374
0.000817646
0.00081389
0.000809412
0.000804534
0.000800026
0.000796743
0.000794811
0.000793987
0.000794268
0.000795894
0.000798994
0.000803706
0.00081012
0.000818233
0.000827948
0.000839102
0.000851421
0.000864526
0.000877933
0.000891052
0.00090319
0.000913549
0.000921225
0.000925244
0.000924561
0.000918895
0.00090957
0.000896677
0.000880435
0.00086106
0.000838822
0.000813985
0.000786846
0.000757693
0.00072681
0.000694472
0.00066094
0.000626462
0.000591266
0.00055556
0.00051953
0.000483337
0.000447119
0.000410993
0.000375048
0.000339352
0.000303943
0.000268833
0.000234
0.000199391
0.000164912
0.000130414
9.57007e-05
6.08302e-05
2.39068e-05
4.14412e-06
1.5501e-05
3.04808e-05
4.67645e-05
6.42426e-05
8.30351e-05
0.000103205
0.000124774
0.000147755
0.000172159
0.000197997
0.000225276
0.000254002
0.000284178
0.000315805
0.000348882
0.000383409
0.000419387
0.000456816
0.000495696
0.000536023
0.00057779
0.00062098
0.000665565
0.000711501
0.000758725
0.000807155
0.000856685
0.000907195
0.000958632
0.00101539
0.00107463
0.00113078
0.00118395
0.00123414
0.00128135
0.00132562
0.00136695
0.00140538
0.00144096
0.00147373
0.00150377
0.00153118
0.00155607
0.00157855
0.00159877
0.00161689
0.00163308
0.00164747
0.00166098
0.00167507
0.00168938
0.00170294
0.0017154
0.00172676
0.00173694
0.00174593
0.00175366
0.00175994
0.00176453
0.00176715
0.00176741
0.00176486
0.00175895
0.00174906
0.00173448
0.00171445
0.00168813
0.00165464
0.00161289
0.00156628
0.00151974
0.00147019
0.00141794
0.00136345
0.00130712
0.00124933
0.00119043
0.00113077
0.00107064
0.00101031
0.000950043
0.000890055
0.00083055
0.0007717
0.000713653
0.000656534
0.000600444
0.000545465
0.000491662
0.00043908
0.000387746
0.000337669
0.000288847
0.000241269
0.000194926
0.00014981
0.000105866
6.32559e-05
2.18951e-05
7.30562e-06
2.52067e-05
4.6659e-05
6.94666e-05
9.35815e-05
0.000119185
0.000146358
0.000175156
0.000205629
0.000237828
0.000271797
0.000307578
0.000345207
0.000384719
0.000426146
0.000469522
0.000514882
0.000562261
0.000611697
0.000663228
0.00071689
0.000772715
0.000830729
0.000890946
0.000953363
0.00101796
0.0010847
0.00115351
0.00122431
0.00129702
0.00137801
0.00146412
0.00154727
0.00162741
0.0017045
0.0017785
0.00184938
0.00191711
0.00198167
0.00204303
0.00210118
0.0021561
0.00220781
0.0022563
0.00230161
0.00234374
0.00238274
0.00241865
0.00245146
0.00248224
0.00251287
0.00254277
0.00257025
0.00259453
0.00261528
0.00263234
0.00264557
0.00265466
0.00265928
0.00265909
0.00265368
0.00264256
0.00262518
0.00260094
0.0025692
0.00252925
0.00248034
0.00242169
0.00235253
0.00227209
0.00218802
0.00210685
0.00202288
0.00193678
0.00184922
0.00176074
0.00167185
0.00158296
0.00149446
0.00140667
0.00131986
0.00123428
0.00115013
0.00106759
0.000986794
0.000907863
0.000830885
0.00075593
0.000683054
0.000612302
0.000543705
0.000477283
0.000413047
0.000351005
0.000291166
0.000233549
0.000178178
0.000125064
7.42016e-05
2.50207e-05
1.02054e-05
3.44311e-05
6.26869e-05
9.25475e-05
0.000123992
0.000157196
0.000192245
0.000229215
0.000268183
0.000309228
0.000352424
0.000397841
0.000445547
0.000495608
0.000548092
0.000603067
0.000660605
0.000720781
0.000783671
0.000849353
0.000917906
0.000989405
0.00106392
0.0011415
0.00122221
0.00130605
0.00139304
0.00148317
0.00157638
0.00167259
0.00178025
0.00189608
0.00200904
0.00211895
0.00222573
0.00232928
0.00242953
0.00252638
0.00261974
0.00270952
0.00279561
0.00287793
0.00295638
0.00303086
0.00310126
0.00316748
0.00322944
0.00328702
0.00334004
0.00338969
0.00343831
0.0034852
0.00352779
0.00356474
0.00359558
0.00362006
0.00363783
0.00364833
0.00365114
0.00364576
0.00363165
0.00360821
0.00357481
0.0035308
0.00347548
0.00340816
0.00332809
0.00323457
0.0031269
0.00300467
0.00288019
0.00276146
0.00264006
0.00251707
0.00239335
0.00226964
0.00214656
0.00202463
0.0019043
0.0017859
0.00166976
0.00155611
0.00144514
0.00133702
0.00123185
0.00112972
0.0010307
0.000934808
0.000842088
0.000752553
0.000666211
0.000583058
0.000503085
0.000426277
0.000352617
0.000282091
0.000214689
0.000150395
8.91758e-05
2.99096e-05
1.29499e-05
4.32673e-05
7.8188e-05
0.000115047
0.000153825
0.000194706
0.000237786
0.000283158
0.000330915
0.000381155
0.000433973
0.000489464
0.000547724
0.000608852
0.000672948
0.000740116
0.000810465
0.000884106
0.000961155
0.00104173
0.00112595
0.00121394
0.0013058
0.00140164
0.00150155
0.0016056
0.00171385
0.00182634
0.0019431
0.0020641
0.00220004
0.00234703
0.00249108
0.00263203
0.00276976
0.00290412
0.00303497
0.00316217
0.00328556
0.00340497
0.0035202
0.00363109
0.00373744
0.00383903
0.00393564
0.00402702
0.00411293
0.00419311
0.00426724
0.00433664
0.00440404
0.00446861
0.00452688
0.00457696
0.0046184
0.0046507
0.00467322
0.0046853
0.00468636
0.00467575
0.0046528
0.00461678
0.00456698
0.0045027
0.00442319
0.00432774
0.00421564
0.00408622
0.00393888
0.00377324
0.00360621
0.00344806
0.00328752
0.0031259
0.00296429
0.0028036
0.00264463
0.00248798
0.00233418
0.00218364
0.00203667
0.00189355
0.00175445
0.00161951
0.00148883
0.00136245
0.00124041
0.00112272
0.00100936
0.000900317
0.000795562
0.000695052
0.000598733
0.000506549
0.000418438
0.00033433
0.000254163
0.000177889
0.000105432
3.53085e-05
1.5581e-05
5.17942e-05
9.31693e-05
0.000136808
0.000182705
0.000231064
0.000281995
0.000335605
0.000392004
0.000451306
0.000513625
0.000579079
0.000647792
0.000719891
0.000795508
0.000874782
0.000957855
0.00104488
0.001136
0.00123138
0.00133118
0.00143555
0.00154466
0.00165864
0.00177763
0.00190176
0.00203114
0.00216589
0.00230608
0.00245182
0.00261604
0.00279406
0.00296904
0.00314087
0.00330939
0.00347441
0.00363575
0.0037932
0.00394653
0.00409548
0.00423981
0.00437924
0.00451349
0.00464222
0.00476508
0.00488168
0.00499162
0.00509449
0.00518987
0.0052792
0.00536545
0.00544771
0.00552169
0.00558511
0.00563739
0.00567769
0.00570519
0.00571913
0.00571876
0.00570326
0.00567183
0.00562364
0.0055579
0.00547382
0.00537064
0.00524762
0.00510405
0.00493931
0.00475285
0.00454427
0.00433486
0.0041375
0.00393797
0.00373782
0.00353835
0.0033407
0.0031458
0.00295439
0.00276708
0.00258433
0.00240651
0.00223389
0.00206663
0.00190487
0.00174867
0.00159804
0.00145299
0.00131349
0.00117948
0.0010509
0.000927672
0.000809711
0.000696911
0.000589165
0.000486362
0.000388384
0.000295121
0.000206492
0.000122388
4.09789e-05
1.81524e-05
6.02127e-05
0.000107986
0.000158345
0.000211303
0.000267079
0.000325797
0.000387577
0.000452544
0.000520828
0.000592566
0.0006679
0.000746979
0.000829958
0.000917
0.00100827
0.00110396
0.00120423
0.00130929
0.00141933
0.00153454
0.00165512
0.00178127
0.00191318
0.00205102
0.002195
0.00234527
0.00250202
0.0026654
0.00283557
0.00302773
0.00323651
0.00344224
0.00364478
0.00384395
0.00403952
0.00423124
0.00441886
0.00460209
0.00478059
0.00495403
0.00512204
0.00528424
0.0054402
0.00558943
0.0057314
0.00586556
0.00599133
0.00610814
0.00621754
0.00632279
0.00642284
0.00651273
0.00658982
0.00665316
0.00670169
0.00673447
0.0067506
0.00674914
0.00672913
0.00668963
0.00662972
0.00654851
0.00644515
0.00631883
0.00616878
0.00599432
0.00579486
0.00556988
0.00531907
0.00506802
0.004832
0.00459385
0.00435542
0.00411828
0.00388378
0.003653
0.00342683
0.00320598
0.00299098
0.00278223
0.00257999
0.00238446
0.00219572
0.00201382
0.00183876
0.0016705
0.00150895
0.00135404
0.00120565
0.00106365
0.000927906
0.000798264
0.000674571
0.000556669
0.000444397
0.000337605
0.00023619
0.000140014
4.69054e-05
2.06841e-05
6.85906e-05
0.000122768
0.000179861
0.0002399
0.000303121
0.000369657
0.000439642
0.000513217
0.00059053
0.00067174
0.000757012
0.00084652
0.000940447
0.00103898
0.00114233
0.0012507
0.0013643
0.00148336
0.00160812
0.0017388
0.00187565
0.00201889
0.00216877
0.00232552
0.00248939
0.00266061
0.00283943
0.00302606
0.00322072
0.00344089
0.0036806
0.00391731
0.00415083
0.00438093
0.00460735
0.0048298
0.00504796
0.00526148
0.00546995
0.00567294
0.00587001
0.00606066
0.00624434
0.00642045
0.00658831
0.00674723
0.00689642
0.00703514
0.00716503
0.00728972
0.00740795
0.00751422
0.00760536
0.00768005
0.00773713
0.00777554
0.00779419
0.00779194
0.00776772
0.00772043
0.00764906
0.00755264
0.00743023
0.00728099
0.00710414
0.00689898
0.00666496
0.00640163
0.00610876
0.00581626
0.00554158
0.00526468
0.00498773
0.00471258
0.0044408
0.00417366
0.00391221
0.00365726
0.0034094
0.00316909
0.00293661
0.00271214
0.00249578
0.00228754
0.0020874
0.00189527
0.00171106
0.00153462
0.0013658
0.00120443
0.00105031
0.000903255
0.000763063
0.00062953
0.000502453
0.000381643
0.000266972
0.000158281
5.30571e-05
2.31798e-05
7.69351e-05
0.000137515
0.000201345
0.00026847
0.000339143
0.000413512
0.000491724
0.000573939
0.000660327
0.000751067
0.000846347
0.000946364
0.00105133
0.00116146
0.00127699
0.00139815
0.00152521
0.00165841
0.00179802
0.00194432
0.00209758
0.00225807
0.00242609
0.00260192
0.00278587
0.00297825
0.00317937
0.00338952
0.00360898
0.00385749
0.00412853
0.00439663
0.00466156
0.00492305
0.00518082
0.00543452
0.00568377
0.00592816
0.00616721
0.00640041
0.00662721
0.00684699
0.00705909
0.00726278
0.00745723
0.00764158
0.00781485
0.00797614
0.00812718
0.00827186
0.00840878
0.00853192
0.00863745
0.00872385
0.00878987
0.00883425
0.00885574
0.008853
0.00882481
0.00876997
0.00868736
0.00857591
0.00843462
0.0082626
0.00805904
0.00782326
0.00755472
0.00725303
0.00691802
0.00658387
0.00627026
0.00595423
0.00563828
0.00532454
0.0050148
0.00471056
0.00441303
0.00412313
0.00384155
0.0035688
0.00330518
0.00305089
0.00280603
0.0025706
0.00234456
0.00212779
0.00192014
0.00172145
0.0015315
0.00135008
0.00117696
0.00101189
0.000854619
0.000704912
0.000562513
0.000427197
0.000298806
0.000177156
5.94076e-05
2.56406e-05
8.52554e-05
0.000152228
0.000222785
0.000296987
0.000375106
0.000457303
0.000543743
0.000634608
0.000730086
0.000830377
0.000935694
0.00104626
0.00116231
0.00128408
0.00141186
0.00154589
0.00168648
0.0018339
0.00198847
0.00215048
0.00232025
0.00249811
0.0026844
0.00287947
0.00308368
0.00329742
0.00352107
0.003755
0.00399955
0.00427678
0.00457954
0.00487942
0.00517618
0.00546953
0.00575913
0.0060446
0.00632552
0.00660138
0.00687164
0.00713571
0.00739292
0.00764254
0.00788378
0.00811577
0.00833752
0.00854801
0.00874609
0.00893068
0.00910355
0.00926882
0.00942496
0.00956532
0.00968556
0.00978404
0.00985936
0.00991004
0.00993469
0.00993171
0.00989981
0.00983767
0.00974406
0.00961781
0.00945785
0.00926323
0.00903314
0.0087669
0.00846398
0.008124
0.00774684
0.00737092
0.00701819
0.00666275
0.00630739
0.00595452
0.00560621
0.00526416
0.00492975
0.00460404
0.00428785
0.00398171
0.00368602
0.00340099
0.00312672
0.00286323
0.00261044
0.00236821
0.00213636
0.00191468
0.0017029
0.00150076
0.00130799
0.00112428
0.000949357
0.000782917
0.000624667
0.000474338
0.000331741
0.000196665
6.59604e-05
2.80614e-05
9.35551e-05
0.00016691
0.000244186
0.000325461
0.000411021
0.000501046
0.00059572
0.000695242
0.00079982
0.000909678
0.00102505
0.00114618
0.00127334
0.0014068
0.00154685
0.0016938
0.00184796
0.00200965
0.00217921
0.00235699
0.00254335
0.00273866
0.00294332
0.00315774
0.00338235
0.00361763
0.003864
0.00412193
0.00439184
0.0046981
0.00503293
0.00536498
0.005694
0.00601966
0.00634161
0.0066594
0.00697256
0.00728052
0.00758266
0.00787829
0.00816663
0.00844683
0.00871797
0.00897901
0.00922884
0.00946624
0.00968992
0.00989858
0.0100939
0.0102804
0.0104561
0.010614
0.0107493
0.0108602
0.0109451
0.0110024
0.0110305
0.0110275
0.0109921
0.010923
0.0108186
0.0106778
0.0104995
0.0102825
0.0100262
0.00972971
0.00939263
0.00901459
0.00859545
0.00817785
0.00778599
0.00739099
0.00699593
0.00660353
0.0062161
0.00583557
0.00546352
0.00510116
0.00474942
0.00440895
0.00408021
0.00376346
0.00345884
0.00316635
0.00288592
0.00261737
0.00236048
0.002115
0.00188061
0.00165702
0.00144388
0.00124086
0.00104763
0.000863838
0.000689148
0.000523241
0.000365898
0.000216876
7.27365e-05
3.04298e-05
0.000101824
0.000181556
0.000265547
0.000353896
0.000446902
0.000544763
0.000647682
0.000755875
0.000869571
0.000989016
0.00111447
0.0012462
0.0013845
0.00152968
0.00168205
0.00184195
0.00200972
0.00218572
0.00237033
0.00256394
0.00276694
0.00297978
0.00320291
0.00343681
0.00368198
0.00393895
0.00420827
0.00449043
0.00478596
0.00512157
0.00548888
0.00585354
0.00621528
0.00657378
0.00692863
0.00727936
0.00762542
0.00796618
0.00830094
0.0086289
0.00894918
0.00926079
0.00956267
0.00985363
0.0101324
0.0103975
0.0106476
0.0108812
0.0110998
0.0113078
0.0115035
0.0116792
0.0118298
0.0119534
0.0120482
0.0121123
0.0121439
0.0121412
0.0121027
0.0120268
0.0119119
0.0117569
0.0115604
0.0113214
0.0110391
0.0107128
0.0103419
0.00992605
0.00946522
0.00900617
0.00857527
0.00814064
0.00770567
0.00727338
0.00684632
0.00642667
0.00601619
0.00561628
0.00522802
0.0048522
0.00448935
0.00413984
0.00380382
0.00348132
0.00317224
0.0028764
0.00259353
0.00232335
0.00206549
0.0018196
0.0015853
0.00136221
0.00114994
0.000948099
0.000756296
0.000574169
0.000401459
0.000237892
7.97685e-05
3.27323e-05
0.000110049
0.000196151
0.000286855
0.000382278
0.000482736
0.000588443
0.000699617
0.000816496
0.000939331
0.00106839
0.00120395
0.00134632
0.00149581
0.00165275
0.00181749
0.00199039
0.00217183
0.0023622
0.00256192
0.00277142
0.00299117
0.00322164
0.00346337
0.00371689
0.00398279
0.00426167
0.00455415
0.00486083
0.00518229
0.00554763
0.00594787
0.00634564
0.00674067
0.00713259
0.00752098
0.00790533
0.00828503
0.00865938
0.00902758
0.00938873
0.00974183
0.0100858
0.0104193
0.0107411
0.0110497
0.0113435
0.0116209
0.0118801
0.0121226
0.0123528
0.0125687
0.0127624
0.0129287
0.0130652
0.01317
0.0132411
0.0132764
0.0132743
0.0132328
0.0131503
0.0130253
0.0128563
0.012642
0.0123813
0.0120734
0.0117176
0.0113131
0.0108599
0.0103577
0.00985743
0.00938761
0.00891333
0.0084383
0.00796579
0.00749863
0.00703921
0.00658952
0.00615116
0.00572539
0.00531315
0.00491511
0.00453171
0.00416317
0.00380953
0.00347071
0.0031465
0.00283662
0.00254071
0.00225841
0.0019893
0.00173295
0.00148893
0.00125681
0.00103614
0.000826479
0.000627403
0.000438623
0.000259829
8.70941e-05
3.49537e-05
0.000118217
0.000210682
0.000308094
0.000410591
0.000518503
0.000632059
0.000751497
0.000877076
0.00100907
0.00114777
0.00129347
0.00144652
0.00160723
0.00177598
0.00195313
0.00213908
0.00233424
0.00253905
0.00275396
0.00297944
0.00321603
0.00346427
0.00372473
0.00399805
0.00428489
0.00458592
0.00490184
0.00523334
0.00558108
0.00597659
0.00641028
0.00684174
0.00727066
0.00769667
0.00811931
0.00853802
0.00895216
0.00936094
0.00976345
0.0101587
0.0105455
0.0109227
0.0112888
0.0116424
0.0119817
0.0123051
0.0126107
0.0128966
0.0131638
0.0134166
0.013653
0.013865
0.014047
0.0141965
0.0143114
0.0143896
0.0144289
0.0144274
0.0143832
0.0142944
0.0141595
0.0139768
0.0137451
0.0134631
0.01313
0.012745
0.0123074
0.0118171
0.0112739
0.0107327
0.0102241
0.00971022
0.00919503
0.00868206
0.00817437
0.00767461
0.00718499
0.00670734
0.00624311
0.00579343
0.00535911
0.00494069
0.00453846
0.0041525
0.00378276
0.003429
0.00309095
0.00276822
0.00246039
0.00216702
0.00188764
0.00162175
0.00136886
0.00112848
0.000900103
0.000683256
0.000477607
0.000282808
9.47523e-05
3.70724e-05
0.000126301
0.000225125
0.000329243
0.000438815
0.000554181
0.000675589
0.000803299
0.00093759
0.00107876
0.00122712
0.001383
0.00154674
0.00171871
0.0018993
0.00208891
0.00228795
0.00249689
0.0027162
0.00294636
0.00318793
0.00344147
0.0037076
0.00398698
0.00428029
0.00458828
0.00491172
0.00525138
0.00560804
0.00598246
0.00640861
0.00687633
0.00734209
0.00780557
0.00826638
0.00872403
0.00917793
0.00962736
0.0100714
0.0105092
0.0109395
0.011361
0.0117724
0.012172
0.0125583
0.0129293
0.0132832
0.0136179
0.0139313
0.0142241
0.0144999
0.0147571
0.0149874
0.0151852
0.0153478
0.0154729
0.0155583
0.0156017
0.015601
0.0155543
0.0154595
0.0153149
0.0151189
0.0148701
0.0145673
0.0142094
0.0137956
0.0133253
0.0127983
0.0122144
0.0116326
0.0110855
0.0105321
0.00997672
0.00942312
0.00887461
0.00833406
0.00780392
0.00728625
0.00678273
0.00629467
0.00582302
0.00536845
0.00493135
0.00451185
0.00410991
0.00372536
0.00335789
0.00300711
0.00267258
0.00235382
0.00205029
0.00176146
0.00148678
0.0012257
0.000977643
0.000742091
0.000518664
0.000306974
0.000102789
3.90706e-05
0.000134283
0.000239467
0.000350293
0.000466941
0.000589764
0.000719029
0.000855021
0.000998039
0.0011484
0.00130644
0.00147251
0.00164698
0.00183024
0.0020227
0.00222479
0.00243698
0.00265974
0.0028936
0.0031391
0.00339684
0.00366746
0.00395163
0.00425008
0.00456359
0.00489297
0.00523908
0.0056028
0.005985
0.00638651
0.00684383
0.00734618
0.00784689
0.00834564
0.00884203
0.00933551
0.00982546
0.0103111
0.0107914
0.0112653
0.0117316
0.0121888
0.0126353
0.0130695
0.0134894
0.013893
0.0142783
0.0146429
0.0149847
0.0153038
0.0156033
0.0158814
0.0161301
0.0163436
0.0165193
0.0166546
0.0167473
0.016795
0.0167953
0.0167463
0.0166457
0.0164919
0.016283
0.0160176
0.0156944
0.0153121
0.01487
0.0143674
0.0138041
0.0131799
0.0125577
0.0119723
0.0113796
0.0107841
0.0101898
0.00960027
0.00901862
0.00844753
0.00788928
0.00734577
0.00681848
0.00630854
0.00581674
0.00534356
0.00488925
0.00445382
0.00403713
0.0036389
0.00325876
0.00289624
0.00255081
0.00222192
0.00190896
0.00161134
0.00132844
0.00105962
0.000804302
0.000562068
0.000332482
0.000111255
4.09368e-05
0.000142159
0.000253706
0.000371241
0.000494969
0.000625256
0.00076239
0.000906677
0.00105844
0.00121801
0.00138575
0.00156203
0.00174725
0.00194182
0.00214618
0.0023608
0.00258616
0.0028228
0.00307128
0.0033322
0.00360621
0.00389402
0.00419638
0.00451408
0.00484799
0.00519901
0.00556809
0.0059562
0.00636432
0.00679338
0.00728241
0.00782004
0.0083564
0.00889117
0.00942395
0.00995413
0.010481
0.0110038
0.0115213
0.0120323
0.0125355
0.0130294
0.013512
0.0139816
0.0144361
0.0148733
0.0152908
0.0156864
0.0160574
0.0164035
0.016727
0.0170261
0.0172931
0.0175223
0.0177111
0.0178567
0.0179569
0.0180089
0.0180106
0.0179595
0.0178536
0.017691
0.0174697
0.0171881
0.0168449
0.0164387
0.0159688
0.0154343
0.014835
0.0141709
0.0135087
0.0128851
0.0122532
0.0116177
0.0109827
0.0103521
0.00972922
0.0091169
0.00851767
0.00793359
0.00736635
0.00681723
0.00628716
0.00577675
0.00528637
0.00481611
0.00436592
0.00393555
0.00352465
0.00313274
0.00275928
0.00240367
0.00206527
0.00174341
0.00143743
0.00114662
0.000870345
0.000608134
0.00035951
0.000120206
4.26512e-05
0.000149905
0.000267818
0.000392064
0.000522878
0.000660638
0.000805653
0.000958247
0.00111876
0.00128756
0.00146502
0.00165153
0.00184753
0.00205344
0.00226973
0.00249691
0.00273551
0.00298609
0.00324927
0.0035257
0.0038161
0.00412123
0.00444193
0.00477907
0.0051336
0.00550652
0.00589886
0.00631173
0.00674618
0.00720327
0.00772458
0.00829818
0.00887094
0.00944253
0.0100125
0.0105803
0.0111451
0.0117059
0.0122615
0.0128107
0.0133519
0.0138833
0.014403
0.0149089
0.0153989
0.0158704
0.0163211
0.0167483
0.0171494
0.0175232
0.0178711
0.0181912
0.0184765
0.0187215
0.0189234
0.0190796
0.0191873
0.019244
0.0192472
0.0191946
0.0190838
0.0189128
0.0186796
0.0183825
0.0180198
0.0175902
0.0170928
0.0165269
0.015892
0.0151881
0.014486
0.0138244
0.0131535
0.012478
0.0118024
0.0111308
0.0104666
0.00981289
0.00917238
0.00854732
0.00793952
0.00735043
0.00678115
0.00623243
0.00570477
0.00519841
0.00471335
0.00424942
0.0038063
0.00338354
0.00298058
0.00259678
0.00223149
0.00188397
0.00155351
0.00123933
0.00094074
0.000657223
0.000388258
0.000129702
4.41871e-05
0.000157484
0.000281765
0.00041273
0.00055064
0.000695883
0.000848786
0.00100969
0.00117897
0.001357
0.00154419
0.00174095
0.00194774
0.00216502
0.00239329
0.00263309
0.00288498
0.00314957
0.00342754
0.00371958
0.0040265
0.00434911
0.00468833
0.00504512
0.00542051
0.00581561
0.00623155
0.00666954
0.00713077
0.00761639
0.00817061
0.00878092
0.00939084
0.0100001
0.0106082
0.0112145
0.011818
0.0124178
0.0130126
0.0136008
0.0141809
0.0147507
0.0153084
0.0158515
0.0163777
0.0168845
0.0173691
0.0178287
0.0182605
0.0186627
0.0190355
0.0193768
0.0196803
0.0199412
0.0201565
0.0203233
0.020439
0.0205007
0.020506
0.0204523
0.0203372
0.0201585
0.019914
0.0196018
0.0192202
0.0187678
0.0182434
0.0176463
0.016976
0.0162324
0.0154904
0.0147908
0.0140808
0.0133654
0.0126493
0.0119367
0.0112312
0.0105361
0.00985411
0.00918772
0.00853888
0.00790918
0.00729988
0.00671191
0.0061459
0.00560222
0.00508098
0.00458211
0.00410531
0.00365017
0.00321615
0.0028026
0.00240884
0.00203409
0.00167758
0.00133849
0.00101606
0.000709731
0.000418949
0.000139812
4.55308e-05
0.000164891
0.00029555
0.000433246
0.000578264
0.000730997
0.00089179
0.00106101
0.00123905
0.00142632
0.00162323
0.00183025
0.00204785
0.00227652
0.00251679
0.00276924
0.00303449
0.00331317
0.00360602
0.00391381
0.00423738
0.00457764
0.00493558
0.00531226
0.00570878
0.00612636
0.00656626
0.00702979
0.00751827
0.00803295
0.00862074
0.00926851
0.00991643
0.0105642
0.0112112
0.0118569
0.0125002
0.0131399
0.0137747
0.0144029
0.0150226
0.0156318
0.0162282
0.0168092
0.0173725
0.0179151
0.0184343
0.0189271
0.0193904
0.0198216
0.0202197
0.0205823
0.0209045
0.0211815
0.0214105
0.0215885
0.0217125
0.0217799
0.0217879
0.0217339
0.0216152
0.0214295
0.0211744
0.0208478
0.0204479
0.019973
0.019422
0.0187939
0.0180882
0.0173049
0.0165227
0.0157849
0.0150356
0.0142803
0.0135237
0.0127701
0.0120233
0.0112867
0.0105632
0.00985524
0.00916499
0.00849418
0.00784423
0.00721622
0.00661095
0.00602889
0.00547027
0.00493511
0.00442319
0.00393415
0.00346747
0.00302253
0.0025986
0.00219491
0.00181064
0.00144492
0.00109692
0.000766092
0.000451827
0.000150613
4.66796e-05
0.000172144
0.000309202
0.000453645
0.000605779
0.000766007
0.000934694
0.00111223
0.00129903
0.00149553
0.00170218
0.00191945
0.00214786
0.00238792
0.00264022
0.00290537
0.00318401
0.00347687
0.0037847
0.00410835
0.00444873
0.00480682
0.00518369
0.00558049
0.00599844
0.00643884
0.00690308
0.00739259
0.00790881
0.00845311
0.00907513
0.00976116
0.0104479
0.011135
0.0118219
0.0125078
0.0131917
0.0138723
0.0145479
0.0152169
0.0158771
0.0165263
0.017162
0.0177817
0.0183826
0.0189617
0.0195161
0.0200426
0.0205381
0.0209991
0.021423
0.0218075
0.0221487
0.0224425
0.0226857
0.0228755
0.0230088
0.0230827
0.0230943
0.0230408
0.0229194
0.0227276
0.0224627
0.0221224
0.0217048
0.021208
0.0206306
0.0199716
0.0192305
0.018407
0.0175841
0.0168077
0.0160189
0.0152233
0.014426
0.0136313
0.0128431
0.0120649
0.0112996
0.0105499
0.00981802
0.00910576
0.00841472
0.0077461
0.00710081
0.00647946
0.00588239
0.00530971
0.0047613
0.00423686
0.00373592
0.00325788
0.00280203
0.00236757
0.00195367
0.00155942
0.00118398
0.000826772
0.000487165
0.00016219
4.7622e-05
0.000179236
0.000322713
0.000473915
0.000633176
0.000800907
0.000977497
0.00116336
0.00135893
0.00156466
0.00178104
0.00200857
0.00224778
0.00249926
0.0027636
0.00304147
0.00333357
0.00364066
0.00396357
0.0043032
0.00466054
0.00503664
0.00543266
0.00584985
0.00628952
0.0067531
0.00724208
0.00775802
0.0083025
0.00887699
0.00953393
0.010259
0.0109854
0.0117127
0.0124403
0.0131674
0.0138927
0.0146149
0.0153321
0.0160425
0.0167439
0.0174337
0.0181094
0.0187683
0.0194073
0.0200235
0.0206136
0.0211745
0.0217027
0.0221941
0.0226446
0.0230518
0.0234127
0.023724
0.0239826
0.0241853
0.0243289
0.0244105
0.024427
0.0243752
0.0242523
0.0240553
0.0237816
0.0234285
0.0229938
0.0224755
0.0218719
0.021182
0.0204051
0.0195408
0.0186765
0.0178608
0.0170317
0.0161953
0.0153567
0.0145204
0.0136905
0.0128704
0.0120632
0.0112715
0.0104978
0.00974387
0.00901144
0.00830179
0.00761592
0.00695455
0.00631812
0.00570684
0.00512068
0.00455942
0.00402266
0.00350981
0.00302021
0.00255308
0.00210758
0.0016828
0.00127787
0.000892234
0.000525237
0.000174635
4.83341e-05
0.000186133
0.000336036
0.000494006
0.000660405
0.000835653
0.00102016
0.00121435
0.0014187
0.00163367
0.00185978
0.00209758
0.00234762
0.00261053
0.00288694
0.00317758
0.00348319
0.00380459
0.00414268
0.00449841
0.00487285
0.00526715
0.00568254
0.00612038
0.00658209
0.00706921
0.00758334
0.00812618
0.00869944
0.00930469
0.00999723
0.0107621
0.011529
0.0122973
0.0130665
0.0138354
0.014603
0.0153674
0.0161269
0.0168794
0.0176224
0.0183534
0.0190695
0.019768
0.0204456
0.0210992
0.0217256
0.0223214
0.022883
0.0234056
0.0238836
0.0243144
0.0246963
0.0250265
0.0253018
0.0255189
0.0256745
0.0257654
0.0257882
0.0257397
0.0256167
0.0254159
0.0251344
0.0247693
0.0243182
0.0237787
0.0231491
0.0224281
0.0216148
0.0207089
0.0198022
0.018946
0.0180756
0.0171973
0.0163165
0.0154379
0.0145655
0.013703
0.0128534
0.0120196
0.0112038
0.0104081
0.00963403
0.00888305
0.00815617
0.0074542
0.00677766
0.00612685
0.00550184
0.00490247
0.00432839
0.00377909
0.00325394
0.00275221
0.00227309
0.00181569
0.00137912
0.000962879
0.000566287
0.00018803
4.87978e-05
0.000192812
0.000349143
0.000513888
0.000687436
0.00087021
0.00106264
0.00126517
0.00147829
0.00170251
0.00193837
0.00218644
0.00244733
0.00272169
0.00301022
0.00331367
0.00363285
0.00396865
0.00432202
0.00469399
0.0050857
0.00549839
0.0059334
0.00639216
0.00687623
0.00738726
0.00792698
0.00849719
0.00909974
0.00973633
0.0104651
0.0112706
0.0120787
0.0128888
0.0137002
0.0145118
0.0153222
0.0161295
0.0169318
0.0177268
0.0185119
0.0192844
0.0200413
0.0207797
0.0214963
0.0221878
0.0228508
0.023482
0.0240777
0.0246324
0.0251391
0.025595
0.0259995
0.0263504
0.0266443
0.0268779
0.0270476
0.0271498
0.027181
0.0271376
0.027016
0.0268129
0.0265249
0.0261488
0.0256819
0.0251217
0.0244661
0.0237136
0.0228632
0.0219145
0.0209638
0.0200658
0.0191526
0.018231
0.0173065
0.0163842
0.0154683
0.0145625
0.01367
0.0127935
0.0119354
0.0110976
0.0102817
0.00948907
0.00872083
0.00797779
0.00726055
0.00656946
0.00590463
0.00526598
0.00465323
0.00406592
0.00350351
0.00296532
0.0024506
0.00195846
0.00148807
0.00103895
0.000610473
0.00020243
4.9008e-05
0.000199283
0.000362051
0.000533581
0.000714285
0.000904586
0.00110493
0.0013158
0.00153769
0.00177116
0.00201676
0.00227512
0.00254687
0.00283271
0.00313339
0.00344972
0.00378255
0.00413284
0.00450161
0.00488996
0.00529912
0.0057304
0.00618526
0.00666525
0.00717201
0.00770733
0.00827306
0.00887113
0.00950351
0.010172
0.0109377
0.0117844
0.0126344
0.013487
0.0143413
0.0151962
0.0160499
0.0169006
0.0177461
0.0185839
0.0194113
0.0202255
0.0210235
0.021802
0.0225578
0.0232876
0.0239878
0.024655
0.0252854
0.0258732
0.0264102
0.0268932
0.0273226
0.0276966
0.0280118
0.0282644
0.0284506
0.0285667
0.0286086
0.0285724
0.0284543
0.0282505
0.0279573
0.0275713
0.0270893
0.0265086
0.0258269
0.0250424
0.0241541
0.0231612
0.0221649
0.0212231
0.0202653
0.0192984
0.0183285
0.0173608
0.0163998
0.0154495
0.014513
0.013593
0.0126918
0.0118113
0.0109531
0.0101185
0.00930852
0.008524
0.00776555
0.00703352
0.00632806
0.00564912
0.00499649
0.00436979
0.00376855
0.00319216
0.00263993
0.00211104
0.00160466
0.00112046
0.000657815
0.000217852
4.89623e-05
0.000205561
0.000374782
0.000553105
0.000740969
0.000938797
0.00114705
0.00136625
0.00159691
0.00183962
0.00209497
0.00236362
0.00264625
0.0029436
0.00325647
0.00358571
0.00393227
0.00429714
0.00468142
0.0050863
0.00551309
0.0059632
0.00643817
0.00693967
0.00746948
0.00802948
0.00862166
0.00924806
0.00991076
0.0106117
0.0114148
0.0123035
0.013196
0.0140917
0.0149895
0.015888
0.0167854
0.0176797
0.0185686
0.0194494
0.0203193
0.0211754
0.0220145
0.0228334
0.0236288
0.0243971
0.025135
0.0258389
0.026505
0.0271272
0.0276964
0.028209
0.0286661
0.0290663
0.0294058
0.0296806
0.0298865
0.0300193
0.0300746
0.0300482
0.0299357
0.0297331
0.0294362
0.0290413
0.0285449
0.027944
0.027236
0.0264189
0.0254914
0.0244528
0.023409
0.0224216
0.0214169
0.0204024
0.0193848
0.0183696
0.0173616
0.0163649
0.0153827
0.0144177
0.0134723
0.0125482
0.0116469
0.0107696
0.00991731
0.00909082
0.00829063
0.00751705
0.00677023