/*--------------------------------*- C++ -*----------------------------------*\
  =========                 |
  \\      /  F ield         | OpenFOAM: The Open Source CFD Toolbox
   \\    /   O peration     | Website:  https://openfoam.org
    \\  /    A nd           | Version:  9
     \\/     M anipulation  |
\*---------------------------------------------------------------------------*/
FoamFile
{
    format      ascii;
    class       surfaceScalarField;
    location    "0.01";
    object      phi;
}
// * * * * * * * * * * * * * * * * * * * * * * * * * * * * * * * * * * * * * //

dimensions      [0 3 -1 0 0 0 0];

internalField   nonuniform List<scalar> 
39700
(
3.74902e-07
1.55125e-06
3.74904e-07
1.62677e-06
3.74904e-07
1.70599e-06
3.74905e-07
1.78903e-06
3.74906e-07
1.87608e-06
3.74906e-07
1.96732e-06
3.74907e-07
2.06296e-06
3.74907e-07
2.16319e-06
3.74908e-07
2.26825e-06
3.74909e-07
2.37836e-06
3.7491e-07
2.49376e-06
3.74911e-07
2.61469e-06
3.74912e-07
2.74143e-06
3.74913e-07
2.87423e-06
3.74914e-07
3.01339e-06
3.74915e-07
3.1592e-06
3.74917e-07
3.31197e-06
3.74918e-07
3.47203e-06
3.7492e-07
3.63972e-06
3.74922e-07
3.81538e-06
3.74923e-07
3.99938e-06
3.74925e-07
4.19211e-06
3.74927e-07
4.39396e-06
3.74929e-07
4.60536e-06
3.74932e-07
4.82672e-06
3.74934e-07
5.0585e-06
3.74936e-07
5.30118e-06
3.74939e-07
5.55522e-06
3.74942e-07
5.82115e-06
3.74945e-07
6.09948e-06
3.74948e-07
7.4552e-06
3.74951e-07
7.44499e-06
3.74955e-07
7.43483e-06
3.74958e-07
7.42471e-06
3.74961e-07
7.41465e-06
3.74964e-07
7.40466e-06
3.74967e-07
7.39475e-06
3.7497e-07
7.38495e-06
3.74973e-07
7.37528e-06
3.74975e-07
7.36576e-06
3.74977e-07
7.35642e-06
3.74978e-07
7.34729e-06
3.74979e-07
7.3384e-06
3.7498e-07
7.3298e-06
3.7498e-07
7.3215e-06
3.74979e-07
7.31357e-06
3.74978e-07
7.30603e-06
3.74976e-07
7.29894e-06
3.74974e-07
7.29233e-06
3.7497e-07
7.28625e-06
3.74966e-07
7.28077e-06
3.74962e-07
7.27593e-06
3.74956e-07
7.27177e-06
3.7495e-07
7.26835e-06
3.74944e-07
7.26571e-06
3.74936e-07
7.2639e-06
3.74929e-07
7.26297e-06
3.74921e-07
7.26298e-06
3.74913e-07
7.26395e-06
3.74905e-07
7.26592e-06
3.74896e-07
7.26894e-06
3.74889e-07
7.27303e-06
3.74881e-07
7.27821e-06
3.74875e-07
7.2845e-06
3.74869e-07
7.29192e-06
3.74864e-07
7.30046e-06
3.7486e-07
7.31014e-06
3.74858e-07
7.32093e-06
3.74857e-07
7.33282e-06
3.74857e-07
7.34579e-06
3.74859e-07
6.01283e-06
3.74862e-07
5.74136e-06
3.74866e-07
5.48212e-06
3.7487e-07
5.23452e-06
3.74874e-07
4.99799e-06
3.74879e-07
4.77201e-06
3.74885e-07
4.55609e-06
3.7489e-07
4.34977e-06
3.74896e-07
4.15262e-06
3.74902e-07
3.96422e-06
3.74908e-07
3.78419e-06
3.74913e-07
3.61217e-06
3.74919e-07
3.44779e-06
3.74924e-07
3.29074e-06
3.7493e-07
3.14068e-06
3.74935e-07
2.99732e-06
3.74939e-07
2.86036e-06
3.74944e-07
2.72953e-06
3.74948e-07
2.60457e-06
3.74952e-07
2.4852e-06
3.74956e-07
2.3712e-06
3.7496e-07
2.26232e-06
3.74963e-07
2.15835e-06
3.74967e-07
2.05906e-06
3.74969e-07
1.96426e-06
3.74972e-07
1.87374e-06
3.74974e-07
1.78733e-06
3.74977e-07
1.70484e-06
3.74983e-07
1.62611e-06
1.55092e-06
3.7476e-07
1.55125e-06
3.74766e-07
1.62677e-06
3.7477e-07
1.70599e-06
3.74773e-07
1.78903e-06
3.74775e-07
1.87608e-06
3.74777e-07
1.96732e-06
3.74779e-07
2.06295e-06
3.74781e-07
2.16319e-06
3.74783e-07
2.26825e-06
3.74785e-07
2.37836e-06
3.74788e-07
2.49376e-06
3.7479e-07
2.61469e-06
3.74793e-07
2.74142e-06
3.74796e-07
2.87423e-06
3.748e-07
3.01338e-06
3.74803e-07
3.1592e-06
3.74807e-07
3.31197e-06
3.74812e-07
3.47203e-06
3.74816e-07
3.63971e-06
3.74821e-07
3.81537e-06
3.74826e-07
3.99938e-06
3.74831e-07
4.19211e-06
3.74837e-07
4.39396e-06
3.74843e-07
4.60535e-06
3.74849e-07
4.82671e-06
3.74856e-07
5.0585e-06
3.74863e-07
5.30117e-06
3.74871e-07
5.55521e-06
3.74879e-07
5.82114e-06
3.74888e-07
6.09947e-06
3.74898e-07
7.45519e-06
3.74908e-07
7.44498e-06
3.74919e-07
7.43482e-06
3.74929e-07
7.4247e-06
3.74939e-07
7.41464e-06
3.74949e-07
7.40465e-06
3.74958e-07
7.39474e-06
3.74967e-07
7.38494e-06
3.74976e-07
7.37527e-06
3.74984e-07
7.36575e-06
3.74991e-07
7.35641e-06
3.74997e-07
7.34728e-06
3.75003e-07
7.3384e-06
3.75007e-07
7.32979e-06
3.7501e-07
7.3215e-06
3.75012e-07
7.31357e-06
3.75012e-07
7.30603e-06
3.75011e-07
7.29894e-06
3.75008e-07
7.29233e-06
3.75004e-07
7.28626e-06
3.74997e-07
7.28078e-06
3.7499e-07
7.27594e-06
3.7498e-07
7.27178e-06
3.7497e-07
7.26836e-06
3.74958e-07
7.26572e-06
3.74944e-07
7.26391e-06
3.7493e-07
7.26299e-06
3.74916e-07
7.26299e-06
3.74901e-07
7.26396e-06
3.74886e-07
7.26594e-06
3.74872e-07
7.26895e-06
3.74858e-07
7.27304e-06
3.74846e-07
7.27822e-06
3.74837e-07
7.28451e-06
3.74829e-07
7.29192e-06
3.74824e-07
7.30047e-06
3.74823e-07
7.31014e-06
3.74826e-07
7.32093e-06
3.74832e-07
7.33282e-06
3.74842e-07
7.34578e-06
3.74854e-07
6.01282e-06
3.74867e-07
5.74135e-06
3.74882e-07
5.48211e-06
3.74899e-07
5.2345e-06
3.74917e-07
4.99798e-06
3.74935e-07
4.772e-06
3.74954e-07
4.55608e-06
3.74972e-07
4.34976e-06
3.74991e-07
4.1526e-06
3.7501e-07
3.9642e-06
3.75028e-07
3.78418e-06
3.75045e-07
3.61215e-06
3.75062e-07
3.44778e-06
3.75078e-07
3.29072e-06
3.75094e-07
3.14066e-06
3.75108e-07
2.9973e-06
3.75122e-07
2.86035e-06
3.75135e-07
2.72952e-06
3.75146e-07
2.60455e-06
3.75157e-07
2.48519e-06
3.75167e-07
2.37119e-06
3.75177e-07
2.26231e-06
3.75185e-07
2.15834e-06
3.75193e-07
2.05905e-06
3.75199e-07
1.96425e-06
3.75205e-07
1.87374e-06
3.7521e-07
1.78732e-06
3.75217e-07
1.70484e-06
3.75229e-07
1.6261e-06
1.55089e-06
3.74539e-07
1.55124e-06
3.74548e-07
1.62676e-06
3.74555e-07
1.70598e-06
3.7456e-07
1.78902e-06
3.74564e-07
1.87607e-06
3.74568e-07
1.96731e-06
3.74572e-07
2.06295e-06
3.74575e-07
2.16319e-06
3.74578e-07
2.26825e-06
3.74582e-07
2.37836e-06
3.74586e-07
2.49375e-06
3.7459e-07
2.61469e-06
3.74595e-07
2.74142e-06
3.74599e-07
2.87422e-06
3.74605e-07
3.01338e-06
3.7461e-07
3.15919e-06
3.74617e-07
3.31196e-06
3.74623e-07
3.47202e-06
3.7463e-07
3.63971e-06
3.74638e-07
3.81537e-06
3.74646e-07
3.99937e-06
3.74654e-07
4.1921e-06
3.74663e-07
4.39395e-06
3.74673e-07
4.60534e-06
3.74683e-07
4.8267e-06
3.74694e-07
5.05849e-06
3.74706e-07
5.30116e-06
3.74718e-07
5.5552e-06
3.74731e-07
5.82113e-06
3.74744e-07
6.09946e-06
3.74762e-07
7.45518e-06
3.7478e-07
7.44496e-06
3.74797e-07
7.4348e-06
3.74814e-07
7.42468e-06
3.74831e-07
7.41462e-06
3.74848e-07
7.40463e-06
3.74865e-07
7.39473e-06
3.74881e-07
7.38493e-06
3.74897e-07
7.37525e-06
3.74912e-07
7.36573e-06
3.74926e-07
7.3564e-06
3.74939e-07
7.34727e-06
3.74951e-07
7.33839e-06
3.74962e-07
7.32978e-06
3.74971e-07
7.32149e-06
3.74978e-07
7.31356e-06
3.74984e-07
7.30603e-06
3.74988e-07
7.29893e-06
3.74989e-07
7.29233e-06
3.74989e-07
7.28626e-06
3.74986e-07
7.28078e-06
3.74982e-07
7.27594e-06
3.74975e-07
7.27179e-06
3.74967e-07
7.26836e-06
3.74957e-07
7.26573e-06
3.74946e-07
7.26392e-06
3.74934e-07
7.263e-06
3.74922e-07
7.263e-06
3.7491e-07
7.26397e-06
3.74898e-07
7.26595e-06
3.74887e-07
7.26896e-06
3.74879e-07
7.27305e-06
3.74873e-07
7.27822e-06
3.7487e-07
7.28451e-06
3.7487e-07
7.29192e-06
3.74876e-07
7.30046e-06
3.74886e-07
7.31013e-06
3.74902e-07
7.32092e-06
3.74924e-07
7.3328e-06
3.74953e-07
7.34575e-06
3.7498e-07
6.01279e-06
3.75009e-07
5.74132e-06
3.7504e-07
5.48208e-06
3.75073e-07
5.23447e-06
3.75107e-07
4.99794e-06
3.75141e-07
4.77196e-06
3.75175e-07
4.55604e-06
3.75208e-07
4.34972e-06
3.75241e-07
4.15257e-06
3.75273e-07
3.96417e-06
3.75304e-07
3.78415e-06
3.75334e-07
3.61212e-06
3.75362e-07
3.44775e-06
3.75389e-07
3.29069e-06
3.75414e-07
3.14064e-06
3.75437e-07
2.99728e-06
3.75458e-07
2.86033e-06
3.75478e-07
2.7295e-06
3.75496e-07
2.60454e-06
3.75512e-07
2.48518e-06
3.75527e-07
2.37118e-06
3.7554e-07
2.2623e-06
3.75551e-07
2.15833e-06
3.75561e-07
2.05904e-06
3.7557e-07
1.96424e-06
3.75577e-07
1.87373e-06
3.75583e-07
1.78732e-06
3.7559e-07
1.70483e-06
3.756e-07
1.62609e-06
1.55088e-06
3.74251e-07
1.55124e-06
3.7426e-07
1.62675e-06
3.74268e-07
1.70597e-06
3.74275e-07
1.78902e-06
3.74281e-07
1.87607e-06
3.74286e-07
1.96731e-06
3.7429e-07
2.06295e-06
3.74295e-07
2.16318e-06
3.743e-07
2.26824e-06
3.74305e-07
2.37835e-06
3.7431e-07
2.49375e-06
3.74315e-07
2.61468e-06
3.74321e-07
2.74141e-06
3.74328e-07
2.87421e-06
3.74335e-07
3.01337e-06
3.74342e-07
3.15918e-06
3.74351e-07
3.31196e-06
3.74359e-07
3.47202e-06
3.74369e-07
3.6397e-06
3.74378e-07
3.81536e-06
3.74389e-07
3.99936e-06
3.744e-07
4.19209e-06
3.74413e-07
4.39394e-06
3.74426e-07
4.60533e-06
3.74439e-07
4.82669e-06
3.74454e-07
5.05847e-06
3.7447e-07
5.30114e-06
3.74486e-07
5.55519e-06
3.74504e-07
5.82111e-06
3.74522e-07
6.09944e-06
3.74547e-07
7.45515e-06
3.74571e-07
7.44494e-06
3.74595e-07
7.43477e-06
3.7462e-07
7.42466e-06
3.74644e-07
7.4146e-06
3.74668e-07
7.40461e-06
3.74693e-07
7.3947e-06
3.74717e-07
7.3849e-06
3.7474e-07
7.37523e-06
3.74763e-07
7.36571e-06
3.74786e-07
7.35637e-06
3.74808e-07
7.34725e-06
3.74828e-07
7.33837e-06
3.74847e-07
7.32976e-06
3.74865e-07
7.32147e-06
3.74881e-07
7.31354e-06
3.74896e-07
7.30601e-06
3.74909e-07
7.29892e-06
3.74919e-07
7.29232e-06
3.74928e-07
7.28625e-06
3.74934e-07
7.28078e-06
3.74939e-07
7.27594e-06
3.74941e-07
7.27178e-06
3.74942e-07
7.26836e-06
3.74942e-07
7.26573e-06
3.74941e-07
7.26393e-06
3.74939e-07
7.263e-06
3.74938e-07
7.26301e-06
3.74937e-07
7.26397e-06
3.74937e-07
7.26595e-06
3.74939e-07
7.26896e-06
3.74944e-07
7.27304e-06
3.74953e-07
7.27822e-06
3.74966e-07
7.2845e-06
3.74984e-07
7.2919e-06
3.75009e-07
7.30044e-06
3.75039e-07
7.3101e-06
3.75077e-07
7.32088e-06
3.75123e-07
7.33275e-06
3.75177e-07
7.3457e-06
3.75225e-07
6.01274e-06
3.75275e-07
5.74127e-06
3.75326e-07
5.48203e-06
3.75379e-07
5.23442e-06
3.75432e-07
4.99789e-06
3.75484e-07
4.77191e-06
3.75536e-07
4.55599e-06
3.75586e-07
4.34967e-06
3.75635e-07
4.15252e-06
3.75681e-07
3.96413e-06
3.75726e-07
3.7841e-06
3.75768e-07
3.61208e-06
3.75808e-07
3.44771e-06
3.75845e-07
3.29066e-06
3.7588e-07
3.1406e-06
3.75912e-07
2.99725e-06
3.75941e-07
2.8603e-06
3.75967e-07
2.72948e-06
3.75991e-07
2.60451e-06
3.76013e-07
2.48515e-06
3.76032e-07
2.37116e-06
3.76049e-07
2.26228e-06
3.76064e-07
2.15831e-06
3.76076e-07
2.05903e-06
3.76086e-07
1.96423e-06
3.76095e-07
1.87372e-06
3.76102e-07
1.78731e-06
3.7611e-07
1.70482e-06
3.76118e-07
1.62608e-06
1.55087e-06
3.73885e-07
1.55123e-06
3.73893e-07
1.62674e-06
3.73902e-07
1.70596e-06
3.7391e-07
1.78901e-06
3.73918e-07
1.87606e-06
3.73924e-07
1.9673e-06
3.7393e-07
2.06294e-06
3.73936e-07
2.16318e-06
3.73941e-07
2.26824e-06
3.73947e-07
2.37834e-06
3.73954e-07
2.49374e-06
3.73961e-07
2.61467e-06
3.73968e-07
2.7414e-06
3.73976e-07
2.87421e-06
3.73985e-07
3.01336e-06
3.73994e-07
3.15917e-06
3.74004e-07
3.31195e-06
3.74015e-07
3.472e-06
3.74026e-07
3.63969e-06
3.74038e-07
3.81535e-06
3.74051e-07
3.99935e-06
3.74065e-07
4.19207e-06
3.7408e-07
4.39392e-06
3.74096e-07
4.60531e-06
3.74113e-07
4.82667e-06
3.74131e-07
5.05845e-06
3.74151e-07
5.30112e-06
3.74171e-07
5.55516e-06
3.74194e-07
5.82109e-06
3.74217e-07
6.09941e-06
3.74248e-07
7.45512e-06
3.74279e-07
7.44491e-06
3.7431e-07
7.43474e-06
3.74341e-07
7.42463e-06
3.74373e-07
7.41457e-06
3.74405e-07
7.40457e-06
3.74437e-07
7.39467e-06
3.7447e-07
7.38487e-06
3.74503e-07
7.3752e-06
3.74535e-07
7.36568e-06
3.74567e-07
7.35634e-06
3.74599e-07
7.34722e-06
3.7463e-07
7.33833e-06
3.74661e-07
7.32973e-06
3.7469e-07
7.32145e-06
3.74719e-07
7.31352e-06
3.74746e-07
7.30599e-06
3.74771e-07
7.2989e-06
3.74796e-07
7.29229e-06
3.74818e-07
7.28623e-06
3.74839e-07
7.28075e-06
3.74859e-07
7.27592e-06
3.74877e-07
7.27176e-06
3.74895e-07
7.26835e-06
3.74912e-07
7.26571e-06
3.74928e-07
7.26391e-06
3.74945e-07
7.26299e-06
3.74963e-07
7.26299e-06
3.74982e-07
7.26396e-06
3.75004e-07
7.26593e-06
3.75028e-07
7.26894e-06
3.75057e-07
7.27301e-06
3.7509e-07
7.27818e-06
3.75129e-07
7.28446e-06
3.75174e-07
7.29186e-06
3.75227e-07
7.30039e-06
3.75287e-07
7.31004e-06
3.75356e-07
7.32081e-06
3.75433e-07
7.33267e-06
3.75519e-07
7.34561e-06
3.75594e-07
6.01267e-06
3.7567e-07
5.74119e-06
3.75747e-07
5.48195e-06
3.75823e-07
5.23434e-06
3.75899e-07
4.99781e-06
3.75973e-07
4.77184e-06
3.76044e-07
4.55592e-06
3.76114e-07
4.3496e-06
3.7618e-07
4.15245e-06
3.76243e-07
3.96406e-06
3.76303e-07
3.78404e-06
3.76359e-07
3.61202e-06
3.76411e-07
3.44766e-06
3.76459e-07
3.29061e-06
3.76504e-07
3.14056e-06
3.76545e-07
2.99721e-06
3.76582e-07
2.86026e-06
3.76616e-07
2.72944e-06
3.76646e-07
2.60448e-06
3.76673e-07
2.48513e-06
3.76697e-07
2.37113e-06
3.76718e-07
2.26226e-06
3.76736e-07
2.1583e-06
3.76751e-07
2.05901e-06
3.76763e-07
1.96422e-06
3.76773e-07
1.87371e-06
3.76782e-07
1.7873e-06
3.76789e-07
1.70481e-06
3.76796e-07
1.62607e-06
1.55087e-06
3.73437e-07
1.55123e-06
3.73445e-07
1.62673e-06
3.73454e-07
1.70595e-06
3.73463e-07
1.789e-06
3.73472e-07
1.87605e-06
3.73479e-07
1.9673e-06
3.73486e-07
2.06293e-06
3.73492e-07
2.16317e-06
3.73499e-07
2.26823e-06
3.73506e-07
2.37834e-06
3.73514e-07
2.49373e-06
3.73522e-07
2.61467e-06
3.73531e-07
2.7414e-06
3.7354e-07
2.8742e-06
3.7355e-07
3.01335e-06
3.73561e-07
3.15916e-06
3.73573e-07
3.31193e-06
3.73585e-07
3.47199e-06
3.73599e-07
3.63967e-06
3.73613e-07
3.81533e-06
3.73628e-07
3.99933e-06
3.73644e-07
4.19206e-06
3.73662e-07
4.39391e-06
3.73681e-07
4.60529e-06
3.73701e-07
4.82665e-06
3.73722e-07
5.05843e-06
3.73745e-07
5.3011e-06
3.73769e-07
5.55514e-06
3.73796e-07
5.82106e-06
3.73824e-07
6.09939e-06
3.73861e-07
7.45509e-06
3.73898e-07
7.44487e-06
3.73936e-07
7.43471e-06
3.73974e-07
7.42459e-06
3.74014e-07
7.41453e-06
3.74054e-07
7.40453e-06
3.74095e-07
7.39463e-06
3.74137e-07
7.38483e-06
3.7418e-07
7.37515e-06
3.74223e-07
7.36564e-06
3.74267e-07
7.3563e-06
3.74311e-07
7.34717e-06
3.74355e-07
7.33829e-06
3.74399e-07
7.32969e-06
3.74443e-07
7.3214e-06
3.74487e-07
7.31347e-06
3.7453e-07
7.30594e-06
3.74573e-07
7.29885e-06
3.74616e-07
7.29225e-06
3.74658e-07
7.28619e-06
3.74699e-07
7.28071e-06
3.7474e-07
7.27588e-06
3.74781e-07
7.27172e-06
3.74822e-07
7.2683e-06
3.74864e-07
7.26567e-06
3.74907e-07
7.26387e-06
3.74951e-07
7.26294e-06
3.74997e-07
7.26294e-06
3.75046e-07
7.26391e-06
3.75098e-07
7.26587e-06
3.75155e-07
7.26888e-06
3.75217e-07
7.27295e-06
3.75285e-07
7.27811e-06
3.7536e-07
7.28438e-06
3.75442e-07
7.29178e-06
3.75533e-07
7.3003e-06
3.75632e-07
7.30994e-06
3.75741e-07
7.3207e-06
3.75859e-07
7.33255e-06
3.75985e-07
7.34548e-06
3.76094e-07
6.01256e-06
3.76202e-07
5.74108e-06
3.76308e-07
5.48184e-06
3.76413e-07
5.23424e-06
3.76515e-07
4.99771e-06
3.76614e-07
4.77174e-06
3.76709e-07
4.55582e-06
3.768e-07
4.34951e-06
3.76886e-07
4.15237e-06
3.76967e-07
3.96398e-06
3.77043e-07
3.78397e-06
3.77114e-07
3.61195e-06
3.7718e-07
3.44759e-06
3.77241e-07
3.29055e-06
3.77296e-07
3.1405e-06
3.77347e-07
2.99716e-06
3.77393e-07
2.86021e-06
3.77434e-07
2.7294e-06
3.77471e-07
2.60445e-06
3.77504e-07
2.48509e-06
3.77532e-07
2.3711e-06
3.77557e-07
2.26224e-06
3.77578e-07
2.15827e-06
3.77596e-07
2.059e-06
3.7761e-07
1.9642e-06
3.77622e-07
1.8737e-06
3.77631e-07
1.78729e-06
3.77638e-07
1.70481e-06
3.77643e-07
1.62607e-06
1.55087e-06
3.7291e-07
1.55122e-06
3.72917e-07
1.62673e-06
3.72926e-07
1.70594e-06
3.72935e-07
1.78899e-06
3.72944e-07
1.87604e-06
3.72952e-07
1.96729e-06
3.72959e-07
2.06293e-06
3.72966e-07
2.16316e-06
3.72974e-07
2.26822e-06
3.72982e-07
2.37833e-06
3.7299e-07
2.49372e-06
3.73e-07
2.61466e-06
3.73009e-07
2.74139e-06
3.7302e-07
2.87419e-06
3.73031e-07
3.01334e-06
3.73043e-07
3.15915e-06
3.73056e-07
3.31192e-06
3.7307e-07
3.47198e-06
3.73085e-07
3.63966e-06
3.73101e-07
3.81531e-06
3.73119e-07
3.99931e-06
3.73137e-07
4.19204e-06
3.73157e-07
4.39389e-06
3.73178e-07
4.60527e-06
3.73201e-07
4.82663e-06
3.73225e-07
5.05841e-06
3.73251e-07
5.30107e-06
3.73279e-07
5.55511e-06
3.7331e-07
5.82103e-06
3.73343e-07
6.09935e-06
3.73385e-07
7.45504e-06
3.73428e-07
7.44483e-06
3.73473e-07
7.43466e-06
3.73519e-07
7.42454e-06
3.73566e-07
7.41448e-06
3.73615e-07
7.40448e-06
3.73666e-07
7.39458e-06
3.73718e-07
7.38477e-06
3.73772e-07
7.3751e-06
3.73827e-07
7.36558e-06
3.73884e-07
7.35624e-06
3.73942e-07
7.34711e-06
3.74001e-07
7.33823e-06
3.74062e-07
7.32963e-06
3.74123e-07
7.32134e-06
3.74186e-07
7.31341e-06
3.74249e-07
7.30588e-06
3.74314e-07
7.29879e-06
3.7438e-07
7.29219e-06
3.74446e-07
7.28612e-06
3.74513e-07
7.28065e-06
3.74582e-07
7.27581e-06
3.74653e-07
7.27165e-06
3.74725e-07
7.26823e-06
3.74799e-07
7.2656e-06
3.74875e-07
7.26379e-06
3.74955e-07
7.26286e-06
3.75039e-07
7.26286e-06
3.75127e-07
7.26382e-06
3.7522e-07
7.26578e-06
3.75319e-07
7.26878e-06
3.75424e-07
7.27285e-06
3.75537e-07
7.278e-06
3.75658e-07
7.28426e-06
3.75787e-07
7.29165e-06
3.75926e-07
7.30016e-06
3.76074e-07
7.30979e-06
3.76232e-07
7.32054e-06
3.76399e-07
7.33239e-06
3.76575e-07
7.34531e-06
3.76724e-07
6.01241e-06
3.76869e-07
5.74094e-06
3.77012e-07
5.4817e-06
3.7715e-07
5.2341e-06
3.77282e-07
4.99758e-06
3.7741e-07
4.77161e-06
3.77531e-07
4.5557e-06
3.77646e-07
4.3494e-06
3.77754e-07
4.15226e-06
3.77855e-07
3.96388e-06
3.7795e-07
3.78387e-06
3.78037e-07
3.61186e-06
3.78118e-07
3.44751e-06
3.78192e-07
3.29047e-06
3.78259e-07
3.14044e-06
3.7832e-07
2.9971e-06
3.78375e-07
2.86016e-06
3.78424e-07
2.72935e-06
3.78468e-07
2.6044e-06
3.78507e-07
2.48506e-06
3.7854e-07
2.37107e-06
3.78569e-07
2.26221e-06
3.78593e-07
2.15825e-06
3.78614e-07
2.05898e-06
3.7863e-07
1.96419e-06
3.78644e-07
1.87368e-06
3.78654e-07
1.78728e-06
3.78662e-07
1.7048e-06
3.78667e-07
1.62606e-06
1.55086e-06
3.72304e-07
1.55122e-06
3.7231e-07
1.62672e-06
3.72318e-07
1.70594e-06
3.72327e-07
1.78898e-06
3.72335e-07
1.87603e-06
3.72343e-07
1.96728e-06
3.72351e-07
2.06292e-06
3.72359e-07
2.16316e-06
3.72367e-07
2.26821e-06
3.72376e-07
2.37832e-06
3.72385e-07
2.49372e-06
3.72395e-07
2.61465e-06
3.72405e-07
2.74138e-06
3.72417e-07
2.87418e-06
3.72429e-07
3.01333e-06
3.72442e-07
3.15914e-06
3.72457e-07
3.31191e-06
3.72472e-07
3.47196e-06
3.72488e-07
3.63964e-06
3.72506e-07
3.8153e-06
3.72525e-07
3.99929e-06
3.72545e-07
4.19202e-06
3.72567e-07
4.39386e-06
3.7259e-07
4.60525e-06
3.72616e-07
4.8266e-06
3.72643e-07
5.05838e-06
3.72672e-07
5.30104e-06
3.72703e-07
5.55508e-06
3.72737e-07
5.821e-06
3.72774e-07
6.09932e-06
3.72822e-07
7.455e-06
3.72872e-07
7.44478e-06
3.72924e-07
7.43461e-06
3.72977e-07
7.42449e-06
3.73033e-07
7.41442e-06
3.73091e-07
7.40443e-06
3.73151e-07
7.39452e-06
3.73214e-07
7.38471e-06
3.7328e-07
7.37504e-06
3.73348e-07
7.36551e-06
3.73419e-07
7.35617e-06
3.73493e-07
7.34704e-06
3.7357e-07
7.33815e-06
3.73649e-07
7.32955e-06
3.73731e-07
7.32126e-06
3.73816e-07
7.31332e-06
3.73904e-07
7.30579e-06
3.73994e-07
7.2987e-06
3.74087e-07
7.29209e-06
3.74183e-07
7.28603e-06
3.74282e-07
7.28055e-06
3.74385e-07
7.27571e-06
3.74491e-07
7.27155e-06
3.74601e-07
7.26812e-06
3.74715e-07
7.26548e-06
3.74834e-07
7.26367e-06
3.74958e-07
7.26274e-06
3.75088e-07
7.26273e-06
3.75224e-07
7.26368e-06
3.75367e-07
7.26564e-06
3.75517e-07
7.26863e-06
3.75676e-07
7.27269e-06
3.75844e-07
7.27783e-06
3.76021e-07
7.28409e-06
3.76207e-07
7.29146e-06
3.76403e-07
7.29996e-06
3.7661e-07
7.30959e-06
3.76826e-07
7.32033e-06
3.77052e-07
7.33216e-06
3.77286e-07
7.34507e-06
3.77481e-07
6.01222e-06
3.77671e-07
5.74075e-06
3.77854e-07
5.48152e-06
3.78029e-07
5.23392e-06
3.78197e-07
4.99741e-06
3.78357e-07
4.77145e-06
3.78507e-07
4.55555e-06
3.78649e-07
4.34926e-06
3.78782e-07
4.15213e-06
3.78905e-07
3.96376e-06
3.7902e-07
3.78376e-06
3.79125e-07
3.61176e-06
3.79222e-07
3.44741e-06
3.79311e-07
3.29038e-06
3.79391e-07
3.14036e-06
3.79463e-07
2.99702e-06
3.79528e-07
2.86009e-06
3.79586e-07
2.72929e-06
3.79637e-07
2.60435e-06
3.79682e-07
2.48501e-06
3.7972e-07
2.37103e-06
3.79754e-07
2.26218e-06
3.79782e-07
2.15822e-06
3.79805e-07
2.05895e-06
3.79825e-07
1.96417e-06
3.79841e-07
1.87367e-06
3.79853e-07
1.78727e-06
3.79862e-07
1.70479e-06
3.79868e-07
1.62606e-06
1.55086e-06
3.71618e-07
1.55122e-06
3.71624e-07
1.62671e-06
3.71631e-07
1.70593e-06
3.71639e-07
1.78897e-06
3.71647e-07
1.87603e-06
3.71656e-07
1.96727e-06
3.71664e-07
2.06291e-06
3.71672e-07
2.16315e-06
3.71681e-07
2.26821e-06
3.7169e-07
2.37831e-06
3.71699e-07
2.49371e-06
3.7171e-07
2.61464e-06
3.71721e-07
2.74136e-06
3.71733e-07
2.87416e-06
3.71746e-07
3.01332e-06
3.71761e-07
3.15912e-06
3.71776e-07
3.31189e-06
3.71792e-07
3.47195e-06
3.7181e-07
3.63962e-06
3.71829e-07
3.81528e-06
3.71849e-07
3.99927e-06
3.71871e-07
4.192e-06
3.71895e-07
4.39384e-06
3.7192e-07
4.60522e-06
3.71947e-07
4.82658e-06
3.71977e-07
5.05835e-06
3.72009e-07
5.30101e-06
3.72043e-07
5.55505e-06
3.72081e-07
5.82096e-06
3.72122e-07
6.09927e-06
3.72175e-07
7.45494e-06
3.72231e-07
7.44472e-06
3.72289e-07
7.43455e-06
3.7235e-07
7.42443e-06
3.72414e-07
7.41436e-06
3.72481e-07
7.40436e-06
3.72552e-07
7.39445e-06
3.72627e-07
7.38464e-06
3.72705e-07
7.37496e-06
3.72788e-07
7.36543e-06
3.72875e-07
7.35608e-06
3.72966e-07
7.34695e-06
3.73062e-07
7.33806e-06
3.73163e-07
7.32945e-06
3.73268e-07
7.32115e-06
3.73378e-07
7.31321e-06
3.73494e-07
7.30568e-06
3.73614e-07
7.29858e-06
3.73739e-07
7.29197e-06
3.7387e-07
7.28589e-06
3.74006e-07
7.28041e-06
3.74148e-07
7.27556e-06
3.74296e-07
7.2714e-06
3.74451e-07
7.26797e-06
3.74613e-07
7.26532e-06
3.74781e-07
7.2635e-06
3.74957e-07
7.26256e-06
3.75142e-07
7.26254e-06
3.75335e-07
7.26349e-06
3.75537e-07
7.26544e-06
3.75749e-07
7.26842e-06
3.75971e-07
7.27246e-06
3.76203e-07
7.2776e-06
3.76445e-07
7.28384e-06
3.76699e-07
7.29121e-06
3.76963e-07
7.2997e-06
3.77237e-07
7.30931e-06
3.77521e-07
7.32004e-06
3.77815e-07
7.33187e-06
3.78115e-07
7.34477e-06
3.78364e-07
6.01197e-06
3.78603e-07
5.74051e-06
3.78832e-07
5.48129e-06
3.7905e-07
5.23371e-06
3.79257e-07
4.9972e-06
3.79453e-07
4.77125e-06
3.79636e-07
4.55537e-06
3.79808e-07
4.34908e-06
3.79968e-07
4.15197e-06
3.80116e-07
3.96361e-06
3.80253e-07
3.78362e-06
3.80378e-07
3.61163e-06
3.80493e-07
3.4473e-06
3.80597e-07
3.29028e-06
3.80691e-07
3.14026e-06
3.80776e-07
2.99694e-06
3.80851e-07
2.86002e-06
3.80918e-07
2.72923e-06
3.80977e-07
2.60429e-06
3.81029e-07
2.48496e-06
3.81074e-07
2.37099e-06
3.81112e-07
2.26214e-06
3.81144e-07
2.15819e-06
3.81171e-07
2.05893e-06
3.81194e-07
1.96415e-06
3.81212e-07
1.87365e-06
3.81227e-07
1.78726e-06
3.81237e-07
1.70478e-06
3.81245e-07
1.62605e-06
1.55086e-06
3.70855e-07
1.55121e-06
3.7086e-07
1.62671e-06
3.70866e-07
1.70592e-06
3.70874e-07
1.78897e-06
3.70881e-07
1.87602e-06
3.7089e-07
1.96726e-06
3.70898e-07
2.0629e-06
3.70907e-07
2.16314e-06
3.70916e-07
2.2682e-06
3.70925e-07
2.3783e-06
3.70935e-07
2.4937e-06
3.70946e-07
2.61463e-06
3.70958e-07
2.74135e-06
3.70971e-07
2.87415e-06
3.70985e-07
3.0133e-06
3.70999e-07
3.15911e-06
3.71015e-07
3.31188e-06
3.71033e-07
3.47193e-06
3.71051e-07
3.63961e-06
3.71071e-07
3.81526e-06
3.71093e-07
3.99925e-06
3.71116e-07
4.19197e-06
3.71141e-07
4.39382e-06
3.71168e-07
4.6052e-06
3.71197e-07
4.82655e-06
3.71229e-07
5.05832e-06
3.71263e-07
5.30098e-06
3.713e-07
5.55501e-06
3.71341e-07
5.82092e-06
3.71386e-07
6.09923e-06
3.71444e-07
7.45488e-06
3.71505e-07
7.44466e-06
3.7157e-07
7.43449e-06
3.71638e-07
7.42436e-06
3.71711e-07
7.41429e-06
3.71788e-07
7.40428e-06
3.71869e-07
7.39436e-06
3.71956e-07
7.38455e-06
3.72049e-07
7.37486e-06
3.72147e-07
7.36533e-06
3.72251e-07
7.35598e-06
3.72362e-07
7.34684e-06
3.72479e-07
7.33794e-06
3.72603e-07
7.32932e-06
3.72735e-07
7.32102e-06
3.72873e-07
7.31308e-06
3.73019e-07
7.30553e-06
3.73173e-07
7.29842e-06
3.73335e-07
7.29181e-06
3.73505e-07
7.28572e-06
3.73684e-07
7.28023e-06
3.73872e-07
7.27538e-06
3.74068e-07
7.2712e-06
3.74274e-07
7.26776e-06
3.7449e-07
7.2651e-06
3.74716e-07
7.26328e-06
3.74953e-07
7.26232e-06
3.752e-07
7.2623e-06
3.75459e-07
7.26323e-06
3.7573e-07
7.26517e-06
3.76012e-07
7.26814e-06
3.76306e-07
7.27217e-06
3.76612e-07
7.27729e-06
3.7693e-07
7.28353e-06
3.7726e-07
7.29088e-06
3.77601e-07
7.29936e-06
3.77953e-07
7.30896e-06
3.78315e-07
7.31968e-06
3.78684e-07
7.3315e-06
3.7906e-07
7.3444e-06
3.79369e-07
6.01166e-06
3.79664e-07
5.74021e-06
3.79944e-07
5.48101e-06
3.8021e-07
5.23344e-06
3.80461e-07
4.99695e-06
3.80697e-07
4.77102e-06
3.80917e-07
4.55515e-06
3.81122e-07
4.34888e-06
3.81312e-07
4.15178e-06
3.81487e-07
3.96343e-06
3.81648e-07
3.78346e-06
3.81795e-07
3.61148e-06
3.81929e-07
3.44716e-06
3.82051e-07
3.29016e-06
3.8216e-07
3.14015e-06
3.82258e-07
2.99684e-06
3.82345e-07
2.85993e-06
3.82422e-07
2.72915e-06
3.8249e-07
2.60422e-06
3.82549e-07
2.4849e-06
3.826e-07
2.37094e-06
3.82643e-07
2.26209e-06
3.8268e-07
2.15815e-06
3.82711e-07
2.0589e-06
3.82737e-07
1.96412e-06
3.82758e-07
1.87363e-06
3.82775e-07
1.78724e-06
3.82788e-07
1.70477e-06
3.82796e-07
1.62604e-06
1.55085e-06
3.70013e-07
1.55121e-06
3.70018e-07
1.6267e-06
3.70024e-07
1.70592e-06
3.70031e-07
1.78896e-06
3.70039e-07
1.87601e-06
3.70047e-07
1.96726e-06
3.70055e-07
2.06289e-06
3.70064e-07
2.16313e-06
3.70074e-07
2.26819e-06
3.70084e-07
2.37829e-06
3.70094e-07
2.49368e-06
3.70106e-07
2.61461e-06
3.70118e-07
2.74134e-06
3.70131e-07
2.87414e-06
3.70145e-07
3.01329e-06
3.7016e-07
3.15909e-06
3.70177e-07
3.31186e-06
3.70195e-07
3.47191e-06
3.70214e-07
3.63959e-06
3.70235e-07
3.81524e-06
3.70258e-07
3.99923e-06
3.70282e-07
4.19195e-06
3.70308e-07
4.39379e-06
3.70337e-07
4.60517e-06
3.70367e-07
4.82652e-06
3.70401e-07
5.05828e-06
3.70437e-07
5.30094e-06
3.70476e-07
5.55497e-06
3.7052e-07
5.82087e-06
3.70568e-07
6.09918e-06
3.70631e-07
7.45482e-06
3.70698e-07
7.44459e-06
3.70769e-07
7.43441e-06
3.70844e-07
7.42428e-06
3.70925e-07
7.41421e-06
3.71012e-07
7.4042e-06
3.71105e-07
7.39427e-06
3.71204e-07
7.38445e-06
3.71311e-07
7.37476e-06
3.71426e-07
7.36522e-06
3.71549e-07
7.35586e-06
3.7168e-07
7.34671e-06
3.71821e-07
7.3378e-06
3.7197e-07
7.32917e-06
3.7213e-07
7.32086e-06
3.723e-07
7.31291e-06
3.72481e-07
7.30535e-06
3.72672e-07
7.29823e-06
3.72875e-07
7.2916e-06
3.73089e-07
7.28551e-06
3.73316e-07
7.28001e-06
3.73554e-07
7.27514e-06
3.73805e-07
7.27095e-06
3.7407e-07
7.2675e-06
3.74347e-07
7.26483e-06
3.74638e-07
7.26298e-06
3.74943e-07
7.26202e-06
3.75262e-07
7.26198e-06
3.75595e-07
7.2629e-06
3.75943e-07
7.26482e-06
3.76305e-07
7.26777e-06
3.76681e-07
7.27179e-06
3.77071e-07
7.2769e-06
3.77474e-07
7.28312e-06
3.7789e-07
7.29046e-06
3.78318e-07
7.29893e-06
3.78757e-07
7.30852e-06
3.79205e-07
7.31923e-06
3.7966e-07
7.33104e-06
3.8012e-07
7.34394e-06
3.80496e-07
6.01128e-06
3.80853e-07
5.73986e-06
3.81191e-07
5.48067e-06
3.8151e-07
5.23312e-06
3.81809e-07
4.99665e-06
3.82089e-07
4.77074e-06
3.82349e-07
4.55489e-06
3.8259e-07
4.34864e-06
3.82813e-07
4.15155e-06
3.83018e-07
3.96323e-06
3.83206e-07
3.78327e-06
3.83377e-07
3.61131e-06
3.83532e-07
3.44701e-06
3.83672e-07
3.29002e-06
3.83798e-07
3.14003e-06
3.8391e-07
2.99673e-06
3.8401e-07
2.85983e-06
3.84098e-07
2.72906e-06
3.84175e-07
2.60415e-06
3.84242e-07
2.48483e-06
3.843e-07
2.37088e-06
3.8435e-07
2.26205e-06
3.84391e-07
2.15811e-06
3.84427e-07
2.05886e-06
3.84456e-07
1.96409e-06
3.8448e-07
1.87361e-06
3.84499e-07
1.78722e-06
3.84513e-07
1.70475e-06
3.84522e-07
1.62603e-06
1.55085e-06
3.69095e-07
1.55121e-06
3.69099e-07
1.6267e-06
3.69105e-07
1.70591e-06
3.69112e-07
1.78895e-06
3.6912e-07
1.876e-06
3.69128e-07
1.96725e-06
3.69137e-07
2.06288e-06
3.69146e-07
2.16312e-06
3.69156e-07
2.26818e-06
3.69166e-07
2.37828e-06
3.69177e-07
2.49367e-06
3.69189e-07
2.6146e-06
3.69201e-07
2.74133e-06
3.69215e-07
2.87412e-06
3.69229e-07
3.01327e-06
3.69245e-07
3.15908e-06
3.69262e-07
3.31184e-06
3.69281e-07
3.47189e-06
3.693e-07
3.63957e-06
3.69322e-07
3.81522e-06
3.69345e-07
3.99921e-06
3.6937e-07
4.19192e-06
3.69397e-07
4.39376e-06
3.69427e-07
4.60514e-06
3.69458e-07
4.82648e-06
3.69493e-07
5.05825e-06
3.69531e-07
5.3009e-06
3.69572e-07
5.55493e-06
3.69618e-07
5.82083e-06
3.69669e-07
6.09913e-06
3.69736e-07
7.45475e-06
3.69808e-07
7.44452e-06
3.69885e-07
7.43434e-06
3.69968e-07
7.4242e-06
3.70057e-07
7.41412e-06
3.70154e-07
7.4041e-06
3.70258e-07
7.39417e-06
3.70371e-07
7.38434e-06
3.70493e-07
7.37464e-06
3.70625e-07
7.36509e-06
3.70767e-07
7.35571e-06
3.70921e-07
7.34655e-06
3.71087e-07
7.33764e-06
3.71264e-07
7.32899e-06
3.71455e-07
7.32067e-06
3.71659e-07
7.3127e-06
3.71878e-07
7.30513e-06
3.7211e-07
7.298e-06
3.72358e-07
7.29136e-06
3.72621e-07
7.28525e-06
3.729e-07
7.27973e-06
3.73195e-07
7.27484e-06
3.73507e-07
7.27064e-06
3.73836e-07
7.26717e-06
3.74182e-07
7.26448e-06
3.74545e-07
7.26262e-06
3.74926e-07
7.26164e-06
3.75325e-07
7.26158e-06
3.75741e-07
7.26248e-06
3.76175e-07
7.26438e-06
3.76625e-07
7.26732e-06
3.77093e-07
7.27133e-06
3.77576e-07
7.27642e-06
3.78075e-07
7.28262e-06
3.78587e-07
7.28995e-06
3.79112e-07
7.2984e-06
3.79647e-07
7.30799e-06
3.80191e-07
7.31869e-06
3.80741e-07
7.33049e-06
3.81294e-07
7.34339e-06
3.81743e-07
6.01083e-06
3.82169e-07
5.73943e-06
3.8257e-07
5.48027e-06
3.82947e-07
5.23274e-06
3.833e-07
4.9963e-06
3.83628e-07
4.77041e-06
3.83932e-07
4.55458e-06
3.84214e-07
4.34836e-06
3.84472e-07
4.15129e-06
3.8471e-07
3.96299e-06
3.84926e-07
3.78305e-06
3.85123e-07
3.61112e-06
3.85301e-07
3.44683e-06
3.85462e-07
3.28986e-06
3.85606e-07
3.13988e-06
3.85734e-07
2.9966e-06
3.85847e-07
2.85972e-06
3.85947e-07
2.72896e-06
3.86034e-07
2.60406e-06
3.8611e-07
2.48476e-06
3.86175e-07
2.37081e-06
3.86231e-07
2.26199e-06
3.86278e-07
2.15806e-06
3.86317e-07
2.05882e-06
3.8635e-07
1.96406e-06
3.86377e-07
1.87358e-06
3.86398e-07
1.7872e-06
3.86413e-07
1.70474e-06
3.86423e-07
1.62602e-06
1.55084e-06
3.68102e-07
1.55121e-06
3.68107e-07
1.6267e-06
3.68112e-07
1.7059e-06
3.68119e-07
1.78894e-06
3.68127e-07
1.87599e-06
3.68136e-07
1.96724e-06
3.68145e-07
2.06288e-06
3.68154e-07
2.16311e-06
3.68164e-07
2.26817e-06
3.68175e-07
2.37827e-06
3.68186e-07
2.49366e-06
3.68198e-07
2.61459e-06
3.6821e-07
2.74132e-06
3.68224e-07
2.87411e-06
3.68239e-07
3.01326e-06
3.68255e-07
3.15906e-06
3.68272e-07
3.31182e-06
3.68291e-07
3.47187e-06
3.68311e-07
3.63955e-06
3.68333e-07
3.81519e-06
3.68356e-07
3.99918e-06
3.68382e-07
4.1919e-06
3.6841e-07
4.39373e-06
3.6844e-07
4.60511e-06
3.68472e-07
4.82645e-06
3.68508e-07
5.05821e-06
3.68547e-07
5.30086e-06
3.6859e-07
5.55488e-06
3.68638e-07
5.82078e-06
3.68691e-07
6.09908e-06
3.68762e-07
7.45468e-06
3.68839e-07
7.44444e-06
3.68921e-07
7.43426e-06
3.69011e-07
7.42411e-06
3.69108e-07
7.41402e-06
3.69215e-07
7.40399e-06
3.6933e-07
7.39405e-06
3.69457e-07
7.38421e-06
3.69595e-07
7.3745e-06
3.69745e-07
7.36494e-06