/*--------------------------------*- C++ -*----------------------------------*\
  =========                 |
  \\      /  F ield         | OpenFOAM: The Open Source CFD Toolbox
   \\    /   O peration     | Website:  https://openfoam.org
    \\  /    A nd           | Version:  9
     \\/     M anipulation  |
\*---------------------------------------------------------------------------*/
FoamFile
{
    format      ascii;
    class       volScalarField;
    location    "0.01";
    object      rAU;
}
// * * * * * * * * * * * * * * * * * * * * * * * * * * * * * * * * * * * * * //

dimensions      [-1 3 1 0 0 0 0];

internalField   nonuniform List<scalar> 
20000
(
1.79308e-05
2.22936e-05
2.26601e-05
2.30057e-05
2.33311e-05
2.36368e-05
2.39238e-05
2.41926e-05
2.44442e-05
2.46794e-05
2.4899e-05
2.5104e-05
2.52953e-05
2.54735e-05
2.56397e-05
2.57946e-05
2.5939e-05
2.60735e-05
2.61991e-05
2.63162e-05
2.64256e-05
2.65279e-05
2.66237e-05
2.67134e-05
2.67976e-05
2.68769e-05
2.69516e-05
2.70221e-05
2.70889e-05
2.71663e-05
2.73287e-05
2.7358e-05
2.73748e-05
2.73916e-05
2.74083e-05
2.74249e-05
2.74414e-05
2.74577e-05
2.74738e-05
2.74897e-05
2.75053e-05
2.75206e-05
2.75355e-05
2.75499e-05
2.75638e-05
2.75772e-05
2.75898e-05
2.76018e-05
2.76129e-05
2.76231e-05
2.76324e-05
2.76405e-05
2.76476e-05
2.76533e-05
2.76578e-05
2.76608e-05
2.76624e-05
2.76623e-05
2.76607e-05
2.76573e-05
2.76522e-05
2.76453e-05
2.76365e-05
2.76258e-05
2.76133e-05
2.75989e-05
2.75826e-05
2.75644e-05
2.75444e-05
2.75101e-05
2.73399e-05
2.72556e-05
2.71814e-05
2.71031e-05
2.70203e-05
2.69327e-05
2.68401e-05
2.6742e-05
2.6638e-05
2.65275e-05
2.64102e-05
2.62853e-05
2.61523e-05
2.60105e-05
2.58592e-05
2.56977e-05
2.55253e-05
2.53411e-05
2.51443e-05
2.4934e-05
2.47094e-05
2.44697e-05
2.42139e-05
2.39413e-05
2.36508e-05
2.33419e-05
2.30136e-05
2.26653e-05
2.22965e-05
2.40303e-05
2.21734e-05
2.92499e-05
2.98815e-05
3.04828e-05
3.10537e-05
3.15944e-05
3.21054e-05
3.25874e-05
3.30412e-05
3.34676e-05
3.38678e-05
3.42427e-05
3.45935e-05
3.49215e-05
3.52277e-05
3.55135e-05
3.578e-05
3.60283e-05
3.62597e-05
3.64752e-05
3.66758e-05
3.68627e-05
3.70367e-05
3.71989e-05
3.73501e-05
3.74911e-05
3.76227e-05
3.77456e-05
3.78606e-05
3.79956e-05
3.82951e-05
3.83319e-05
3.83442e-05
3.83566e-05
3.83688e-05
3.8381e-05
3.83931e-05
3.84051e-05
3.84169e-05
3.84285e-05
3.844e-05
3.84511e-05
3.8462e-05
3.84726e-05
3.84827e-05
3.84925e-05
3.85017e-05
3.85104e-05
3.85186e-05
3.8526e-05
3.85328e-05
3.85387e-05
3.85438e-05
3.8548e-05
3.85513e-05
3.85535e-05
3.85547e-05
3.85547e-05
3.85535e-05
3.8551e-05
3.85473e-05
3.85423e-05
3.85359e-05
3.85281e-05
3.8519e-05
3.85085e-05
3.84966e-05
3.84833e-05
3.84687e-05
3.84283e-05
3.81226e-05
3.79823e-05
3.78618e-05
3.7733e-05
3.75953e-05
3.7448e-05
3.72906e-05
3.71221e-05
3.69419e-05
3.67489e-05
3.65422e-05
3.6321e-05
3.6084e-05
3.58303e-05
3.55586e-05
3.5268e-05
3.4957e-05
3.46247e-05
3.42697e-05
3.38909e-05
3.34872e-05
3.30575e-05
3.26007e-05
3.2116e-05
3.16024e-05
3.10594e-05
3.04866e-05
2.98835e-05
2.92503e-05
3.2314e-05
2.21742e-05
2.92507e-05
2.98823e-05
3.04835e-05
3.10544e-05
3.15951e-05
3.21061e-05
3.25881e-05
3.30419e-05
3.34683e-05
3.38684e-05
3.42433e-05
3.45941e-05
3.4922e-05
3.52283e-05
3.5514e-05
3.57805e-05
3.60288e-05
3.62601e-05
3.64756e-05
3.66762e-05
3.68631e-05
3.70371e-05
3.71993e-05
3.73504e-05
3.74914e-05
3.7623e-05
3.77459e-05
3.78609e-05
3.79958e-05
3.82953e-05
3.8332e-05
3.83444e-05
3.83567e-05
3.8369e-05
3.83812e-05
3.83932e-05
3.84052e-05
3.8417e-05
3.84286e-05
3.84401e-05
3.84512e-05
3.84621e-05
3.84726e-05
3.84828e-05
3.84925e-05
3.85018e-05
3.85105e-05
3.85186e-05
3.8526e-05
3.85328e-05
3.85387e-05
3.85438e-05
3.8548e-05
3.85513e-05
3.85535e-05
3.85546e-05
3.85546e-05
3.85534e-05
3.8551e-05
3.85473e-05
3.85422e-05
3.85358e-05
3.85281e-05
3.85189e-05
3.85084e-05
3.84965e-05
3.84832e-05
3.84686e-05
3.84282e-05
3.81224e-05
3.79821e-05
3.78616e-05
3.77327e-05
3.7595e-05
3.74477e-05
3.72902e-05
3.71217e-05
3.69414e-05
3.67484e-05
3.65417e-05
3.63204e-05
3.60833e-05
3.58296e-05
3.55579e-05
3.52671e-05
3.49562e-05
3.46238e-05
3.42687e-05
3.38899e-05
3.34862e-05
3.30564e-05
3.25996e-05
3.21148e-05
3.16012e-05
3.10582e-05
3.04853e-05
2.98822e-05
2.9249e-05
3.23124e-05
2.21752e-05
2.92517e-05
2.98833e-05
3.04845e-05
3.10553e-05
3.1596e-05
3.2107e-05
3.2589e-05
3.30427e-05
3.34691e-05
3.38692e-05
3.42441e-05
3.45949e-05
3.49228e-05
3.5229e-05
3.55147e-05
3.57812e-05
3.60295e-05
3.62608e-05
3.64762e-05
3.66768e-05
3.68636e-05
3.70376e-05
3.71998e-05
3.73509e-05
3.74918e-05
3.76234e-05
3.77463e-05
3.78613e-05
3.79962e-05
3.82956e-05
3.83323e-05
3.83447e-05
3.8357e-05
3.83693e-05
3.83814e-05
3.83935e-05
3.84054e-05
3.84172e-05
3.84289e-05
3.84403e-05
3.84514e-05
3.84623e-05
3.84728e-05
3.8483e-05
3.84927e-05
3.85019e-05
3.85106e-05
3.85187e-05
3.85261e-05
3.85329e-05
3.85388e-05
3.85439e-05
3.85481e-05
3.85513e-05
3.85535e-05
3.85546e-05
3.85546e-05
3.85534e-05
3.85509e-05
3.85472e-05
3.85422e-05
3.85357e-05
3.8528e-05
3.85188e-05
3.85083e-05
3.84963e-05
3.8483e-05
3.84684e-05
3.8428e-05
3.81221e-05
3.79818e-05
3.78612e-05
3.77323e-05
3.75945e-05
3.74472e-05
3.72896e-05
3.71211e-05
3.69407e-05
3.67476e-05
3.65408e-05
3.63194e-05
3.60824e-05
3.58285e-05
3.55568e-05
3.5266e-05
3.49549e-05
3.46225e-05
3.42674e-05
3.38885e-05
3.34847e-05
3.30549e-05
3.2598e-05
3.21132e-05
3.15995e-05
3.10565e-05
3.04836e-05
2.98805e-05
2.92472e-05
3.23102e-05
2.21764e-05
2.92529e-05
2.98845e-05
3.04857e-05
3.10566e-05
3.15972e-05
3.21082e-05
3.25902e-05
3.30439e-05
3.34702e-05
3.38703e-05
3.42451e-05
3.45959e-05
3.49238e-05
3.523e-05
3.55157e-05
3.5782e-05
3.60303e-05
3.62616e-05
3.6477e-05
3.66776e-05
3.68644e-05
3.70383e-05
3.72004e-05
3.73515e-05
3.74924e-05
3.7624e-05
3.77469e-05
3.78618e-05
3.79967e-05
3.82961e-05
3.83327e-05
3.83451e-05
3.83574e-05
3.83696e-05
3.83818e-05
3.83939e-05
3.84058e-05
3.84176e-05
3.84292e-05
3.84406e-05
3.84517e-05
3.84626e-05
3.84731e-05
3.84832e-05
3.84929e-05
3.85021e-05
3.85108e-05
3.85189e-05
3.85263e-05
3.8533e-05
3.85389e-05
3.8544e-05
3.85482e-05
3.85514e-05
3.85536e-05
3.85547e-05
3.85546e-05
3.85534e-05
3.85509e-05
3.85471e-05
3.8542e-05
3.85356e-05
3.85278e-05
3.85186e-05
3.85081e-05
3.84961e-05
3.84828e-05
3.84681e-05
3.84276e-05
3.81216e-05
3.79813e-05
3.78606e-05
3.77316e-05
3.75938e-05
3.74464e-05
3.72888e-05
3.71201e-05
3.69397e-05
3.67465e-05
3.65397e-05
3.63182e-05
3.6081e-05
3.58271e-05
3.55553e-05
3.52644e-05
3.49533e-05
3.46207e-05
3.42656e-05
3.38866e-05
3.34828e-05
3.30529e-05
3.25959e-05
3.2111e-05
3.15974e-05
3.10543e-05
3.04813e-05
2.98782e-05
2.92449e-05
3.23072e-05
2.21779e-05
2.92545e-05
2.98861e-05
3.04873e-05
3.1058e-05
3.15987e-05
3.21097e-05
3.25916e-05
3.30452e-05
3.34716e-05
3.38716e-05
3.42464e-05
3.45971e-05
3.4925e-05
3.52311e-05
3.55168e-05
3.57831e-05
3.60314e-05
3.62626e-05
3.6478e-05
3.66785e-05
3.68653e-05
3.70392e-05
3.72013e-05
3.73523e-05
3.74932e-05
3.76247e-05
3.77475e-05
3.78625e-05
3.79973e-05
3.82966e-05
3.83333e-05
3.83456e-05
3.83579e-05
3.83701e-05
3.83823e-05
3.83943e-05
3.84063e-05
3.8418e-05
3.84296e-05
3.8441e-05
3.84522e-05
3.8463e-05
3.84735e-05
3.84836e-05
3.84933e-05
3.85025e-05
3.85111e-05
3.85192e-05
3.85266e-05
3.85332e-05
3.85391e-05
3.85442e-05
3.85483e-05
3.85515e-05
3.85536e-05
3.85547e-05
3.85546e-05
3.85534e-05
3.85508e-05
3.8547e-05
3.85419e-05
3.85355e-05
3.85276e-05
3.85184e-05
3.85078e-05
3.84958e-05
3.84824e-05
3.84677e-05
3.84272e-05
3.8121e-05
3.79806e-05
3.78599e-05
3.77308e-05
3.75929e-05
3.74454e-05
3.72877e-05
3.71189e-05
3.69384e-05
3.67451e-05
3.65382e-05
3.63166e-05
3.60793e-05
3.58253e-05
3.55534e-05
3.52624e-05
3.49512e-05
3.46185e-05
3.42633e-05
3.38843e-05
3.34803e-05
3.30503e-05
3.25933e-05
3.21084e-05
3.15946e-05
3.10515e-05
3.04785e-05
2.98754e-05
2.92421e-05
3.23036e-05
2.21797e-05
2.92563e-05
2.98879e-05
3.0489e-05
3.10598e-05
3.16004e-05
3.21114e-05
3.25932e-05
3.30469e-05
3.34732e-05
3.38732e-05
3.42479e-05
3.45986e-05
3.49264e-05
3.52325e-05
3.55181e-05
3.57844e-05
3.60326e-05
3.62638e-05
3.64791e-05
3.66796e-05
3.68663e-05
3.70402e-05
3.72022e-05
3.73533e-05
3.74941e-05
3.76256e-05
3.77484e-05
3.78633e-05
3.79981e-05
3.82972e-05
3.83339e-05
3.83462e-05
3.83585e-05
3.83707e-05
3.83829e-05
3.83949e-05
3.84069e-05
3.84186e-05
3.84302e-05
3.84416e-05
3.84527e-05
3.84635e-05
3.8474e-05
3.84841e-05
3.84937e-05
3.85029e-05
3.85115e-05
3.85195e-05
3.85269e-05
3.85336e-05
3.85394e-05
3.85444e-05
3.85485e-05
3.85517e-05
3.85538e-05
3.85548e-05
3.85547e-05
3.85534e-05
3.85508e-05
3.8547e-05
3.85418e-05
3.85353e-05
3.85274e-05
3.85181e-05
3.85075e-05
3.84954e-05
3.8482e-05
3.84672e-05
3.84267e-05
3.81203e-05
3.79798e-05
3.78589e-05
3.77298e-05
3.75917e-05
3.74442e-05
3.72863e-05
3.71175e-05
3.69368e-05
3.67434e-05
3.65364e-05
3.63147e-05
3.60773e-05
3.58231e-05
3.55511e-05
3.526e-05
3.49487e-05
3.46159e-05
3.42606e-05
3.38814e-05
3.34774e-05
3.30473e-05
3.25902e-05
3.21052e-05
3.15914e-05
3.10482e-05
3.04751e-05
2.9872e-05
2.92386e-05
3.22991e-05
2.21818e-05
2.92583e-05
2.98899e-05
3.04911e-05
3.10618e-05
3.16024e-05
3.21133e-05
3.25952e-05
3.30488e-05
3.3475e-05
3.3875e-05
3.42497e-05
3.46003e-05
3.49281e-05
3.52341e-05
3.55197e-05
3.57859e-05
3.60341e-05
3.62652e-05
3.64805e-05
3.66809e-05
3.68676e-05
3.70414e-05
3.72034e-05
3.73544e-05
3.74952e-05
3.76266e-05
3.77494e-05
3.78642e-05
3.7999e-05
3.8298e-05
3.83346e-05
3.8347e-05
3.83593e-05
3.83715e-05
3.83836e-05
3.83956e-05
3.84076e-05
3.84193e-05
3.84309e-05
3.84422e-05
3.84533e-05
3.84641e-05
3.84746e-05
3.84847e-05
3.84943e-05
3.85034e-05
3.8512e-05
3.852e-05
3.85274e-05
3.8534e-05
3.85398e-05
3.85448e-05
3.85488e-05
3.85519e-05
3.8554e-05
3.8555e-05
3.85548e-05
3.85534e-05
3.85508e-05
3.85469e-05
3.85417e-05
3.85351e-05
3.85272e-05
3.85178e-05
3.85071e-05
3.8495e-05
3.84815e-05
3.84667e-05
3.84261e-05
3.81195e-05
3.79788e-05
3.78579e-05
3.77286e-05
3.75904e-05
3.74427e-05
3.72847e-05
3.71158e-05
3.6935e-05
3.67414e-05
3.65342e-05
3.63124e-05
3.60749e-05
3.58206e-05
3.55484e-05
3.52572e-05
3.49457e-05
3.46128e-05
3.42574e-05
3.38781e-05
3.34739e-05
3.30438e-05
3.25866e-05
3.21014e-05
3.15876e-05
3.10443e-05
3.04712e-05
2.9868e-05
2.92346e-05
3.2294e-05
2.21841e-05
2.92606e-05
2.98922e-05
3.04934e-05
3.10641e-05
3.16047e-05
3.21155e-05
3.25973e-05
3.30509e-05
3.34771e-05
3.3877e-05
3.42517e-05
3.46022e-05
3.49299e-05
3.52359e-05
3.55214e-05
3.57876e-05
3.60357e-05
3.62668e-05
3.6482e-05
3.66824e-05
3.6869e-05
3.70428e-05
3.72047e-05
3.73556e-05
3.74964e-05
3.76278e-05
3.77505e-05
3.78653e-05
3.8e-05
3.82988e-05
3.83355e-05
3.83478e-05
3.83601e-05
3.83723e-05
3.83845e-05
3.83965e-05
3.84084e-05
3.84201e-05
3.84317e-05
3.8443e-05
3.84541e-05
3.84649e-05
3.84753e-05
3.84854e-05
3.8495e-05
3.85041e-05
3.85127e-05
3.85206e-05
3.85279e-05
3.85345e-05
3.85403e-05
3.85452e-05
3.85492e-05
3.85523e-05
3.85543e-05
3.85552e-05
3.8555e-05
3.85535e-05
3.85509e-05
3.85469e-05
3.85416e-05
3.8535e-05
3.85269e-05
3.85175e-05
3.85068e-05
3.84946e-05
3.8481e-05
3.84661e-05
3.84254e-05
3.81185e-05
3.79778e-05
3.78566e-05
3.77272e-05
3.75889e-05
3.74411e-05
3.72829e-05
3.71138e-05
3.69328e-05
3.67392e-05
3.65318e-05
3.63098e-05
3.60721e-05
3.58177e-05
3.55453e-05
3.5254e-05
3.49423e-05
3.46093e-05
3.42537e-05
3.38743e-05
3.347e-05
3.30397e-05
3.25824e-05
3.20972e-05
3.15832e-05
3.10399e-05
3.04667e-05
2.98634e-05
2.923e-05
3.22881e-05
2.21866e-05
2.92632e-05
2.98948e-05
3.04959e-05
3.10666e-05
3.16071e-05
3.2118e-05
3.25997e-05
3.30533e-05
3.34794e-05
3.38793e-05
3.42539e-05
3.46044e-05
3.4932e-05
3.5238e-05
3.55234e-05
3.57895e-05
3.60376e-05
3.62686e-05
3.64837e-05
3.66841e-05
3.68706e-05
3.70443e-05
3.72062e-05
3.73571e-05
3.74977e-05
3.76291e-05
3.77517e-05
3.78665e-05
3.80012e-05
3.82998e-05
3.83365e-05
3.83488e-05
3.83611e-05
3.83733e-05
3.83854e-05
3.83974e-05
3.84093e-05
3.84211e-05
3.84326e-05
3.84439e-05
3.8455e-05
3.84658e-05
3.84762e-05
3.84862e-05
3.84958e-05
3.85049e-05
3.85134e-05
3.85213e-05
3.85286e-05
3.85351e-05
3.85409e-05
3.85457e-05
3.85497e-05
3.85527e-05
3.85546e-05
3.85555e-05
3.85552e-05
3.85537e-05
3.8551e-05
3.85469e-05
3.85416e-05
3.85348e-05
3.85267e-05
3.85173e-05
3.85064e-05
3.84941e-05
3.84805e-05
3.84655e-05
3.84247e-05
3.81175e-05
3.79766e-05
3.78553e-05
3.77257e-05
3.75872e-05
3.74392e-05
3.72809e-05
3.71116e-05
3.69305e-05
3.67366e-05
3.65291e-05
3.63069e-05
3.6069e-05
3.58144e-05
3.55419e-05
3.52503e-05
3.49386e-05
3.46054e-05
3.42496e-05
3.387e-05
3.34656e-05
3.30352e-05
3.25777e-05
3.20924e-05
3.15783e-05
3.10349e-05
3.04616e-05
2.98583e-05
2.92249e-05
3.22815e-05
2.21895e-05
2.9266e-05
2.98976e-05
3.04987e-05
3.10694e-05
3.16099e-05
3.21207e-05
3.26024e-05
3.30558e-05
3.3482e-05
3.38817e-05
3.42563e-05
3.46067e-05
3.49343e-05
3.52402e-05
3.55256e-05
3.57916e-05
3.60396e-05
3.62705e-05
3.64856e-05
3.66859e-05
3.68724e-05
3.7046e-05
3.72078e-05
3.73586e-05
3.74992e-05
3.76305e-05
3.77531e-05
3.78678e-05
3.80025e-05
3.83009e-05
3.83376e-05
3.83499e-05
3.83621e-05
3.83743e-05
3.83865e-05
3.83985e-05
3.84104e-05
3.84221e-05
3.84336e-05
3.8445e-05
3.8456e-05
3.84668e-05
3.84772e-05
3.84872e-05
3.84967e-05
3.85058e-05
3.85143e-05
3.85222e-05
3.85294e-05
3.85359e-05
3.85416e-05
3.85464e-05
3.85503e-05
3.85532e-05
3.85551e-05
3.85559e-05
3.85555e-05
3.8554e-05
3.85511e-05
3.8547e-05
3.85416e-05
3.85348e-05
3.85266e-05
3.8517e-05
3.8506e-05
3.84937e-05
3.84799e-05
3.84648e-05
3.8424e-05
3.81164e-05
3.79753e-05
3.78538e-05
3.77241e-05
3.75854e-05
3.74372e-05
3.72787e-05
3.71092e-05
3.69279e-05
3.67338e-05
3.65261e-05
3.63037e-05
3.60656e-05
3.58108e-05
3.55381e-05
3.52463e-05
3.49343e-05
3.4601e-05
3.4245e-05
3.38653e-05
3.34607e-05
3.30301e-05
3.25725e-05
3.20871e-05
3.15729e-05
3.10293e-05
3.0456e-05
2.98526e-05
2.92191e-05
3.22741e-05
2.21926e-05
2.92691e-05
2.99007e-05
3.05018e-05
3.10724e-05
3.16129e-05
3.21236e-05
3.26053e-05
3.30587e-05
3.34847e-05
3.38844e-05
3.42589e-05
3.46093e-05
3.49368e-05
3.52426e-05
3.55279e-05
3.57939e-05
3.60418e-05
3.62727e-05
3.64877e-05
3.66879e-05
3.68743e-05
3.70479e-05
3.72096e-05
3.73603e-05
3.75009e-05
3.76321e-05
3.77546e-05
3.78693e-05
3.80039e-05
3.83021e-05
3.83387e-05
3.83511e-05
3.83633e-05
3.83755e-05
3.83876e-05
3.83997e-05
3.84115e-05
3.84233e-05
3.84348e-05
3.84461e-05
3.84571e-05
3.84679e-05
3.84782e-05
3.84882e-05
3.84978e-05
3.85068e-05
3.85153e-05
3.85231e-05
3.85303e-05
3.85367e-05
3.85424e-05
3.85471e-05
3.8551e-05
3.85539e-05
3.85557e-05
3.85564e-05
3.85559e-05
3.85543e-05
3.85514e-05
3.85472e-05
3.85416e-05
3.85347e-05
3.85265e-05
3.85168e-05
3.85057e-05
3.84932e-05
3.84794e-05
3.84642e-05
3.84232e-05
3.81152e-05
3.79739e-05
3.78522e-05
3.77223e-05
3.75834e-05
3.7435e-05
3.72763e-05
3.71065e-05
3.6925e-05
3.67307e-05
3.65227e-05
3.63001e-05
3.60618e-05
3.58068e-05
3.55339e-05
3.52419e-05
3.49297e-05
3.45961e-05
3.424e-05
3.38601e-05
3.34553e-05
3.30245e-05
3.25668e-05
3.20812e-05
3.15669e-05
3.10232e-05
3.04498e-05
2.98463e-05
2.92128e-05
3.2266e-05
2.21959e-05
2.92724e-05
2.9904e-05
3.05051e-05
3.10757e-05
3.16161e-05
3.21268e-05
3.26084e-05
3.30617e-05
3.34877e-05
3.38873e-05
3.42618e-05
3.46121e-05
3.49395e-05
3.52452e-05
3.55304e-05
3.57964e-05
3.60441e-05
3.6275e-05
3.64899e-05
3.669e-05
3.68763e-05
3.70499e-05
3.72115e-05
3.73622e-05
3.75027e-05
3.76338e-05
3.77563e-05
3.78708e-05
3.80054e-05
3.83033e-05
3.834e-05
3.83523e-05
3.83646e-05
3.83768e-05
3.83889e-05
3.84009e-05
3.84128e-05
3.84245e-05
3.84361e-05
3.84474e-05
3.84584e-05
3.84691e-05
3.84795e-05
3.84894e-05
3.84989e-05
3.85079e-05
3.85164e-05
3.85242e-05
3.85313e-05
3.85377e-05
3.85433e-05
3.8548e-05
3.85518e-05
3.85546e-05
3.85564e-05
3.8557e-05
3.85565e-05
3.85547e-05
3.85517e-05
3.85474e-05
3.85418e-05
3.85348e-05
3.85264e-05
3.85166e-05
3.85054e-05
3.84928e-05
3.84789e-05
3.84635e-05
3.84224e-05
3.81139e-05
3.79724e-05
3.78506e-05
3.77204e-05
3.75813e-05
3.74326e-05
3.72736e-05
3.71037e-05
3.69219e-05
3.67273e-05
3.65191e-05
3.62963e-05
3.60577e-05
3.58024e-05
3.55293e-05
3.52371e-05
3.49246e-05
3.45908e-05
3.42345e-05
3.38544e-05
3.34494e-05
3.30184e-05
3.25605e-05
3.20748e-05
3.15603e-05
3.10166e-05
3.04431e-05
2.98395e-05
2.92059e-05
3.22571e-05
2.21995e-05
2.9276e-05
2.99076e-05
3.05086e-05
3.10792e-05
3.16195e-05
3.21302e-05
3.26117e-05
3.3065e-05
3.34909e-05
3.38905e-05
3.42648e-05
3.4615e-05
3.49424e-05
3.5248e-05
3.55332e-05
3.5799e-05
3.60467e-05
3.62774e-05
3.64923e-05
3.66923e-05
3.68785e-05
3.7052e-05
3.72136e-05
3.73641e-05
3.75046e-05
3.76356e-05
3.77581e-05
3.78725e-05
3.8007e-05
3.83047e-05
3.83414e-05
3.83537e-05
3.8366e-05
3.83782e-05
3.83903e-05
3.84023e-05
3.84142e-05
3.84259e-05
3.84375e-05
3.84488e-05
3.84598e-05
3.84705e-05
3.84808e-05
3.84908e-05
3.85003e-05
3.85092e-05
3.85176e-05
3.85254e-05
3.85325e-05
3.85389e-05
3.85444e-05
3.85491e-05
3.85528e-05
3.85555e-05
3.85572e-05
3.85578e-05
3.85571e-05
3.85553e-05
3.85522e-05
3.85478e-05
3.8542e-05
3.85349e-05
3.85264e-05
3.85165e-05
3.85052e-05
3.84925e-05
3.84784e-05
3.84629e-05
3.84217e-05
3.81127e-05
3.79709e-05
3.78488e-05
3.77183e-05
3.7579e-05
3.743e-05
3.72708e-05
3.71006e-05
3.69185e-05
3.67237e-05
3.65152e-05
3.62921e-05
3.60533e-05
3.57977e-05
3.55243e-05
3.52318e-05
3.49192e-05
3.45851e-05
3.42285e-05
3.38482e-05
3.3443e-05
3.30118e-05
3.25538e-05
3.20678e-05
3.15532e-05
3.10093e-05
3.04357e-05
2.98321e-05
2.91984e-05
3.22475e-05
2.22033e-05
2.92798e-05
2.99114e-05
3.05124e-05
3.10829e-05
3.16232e-05
3.21338e-05
3.26153e-05
3.30685e-05
3.34943e-05
3.38938e-05
3.42681e-05
3.46182e-05
3.49455e-05
3.5251e-05
3.55361e-05
3.58018e-05
3.60494e-05
3.628e-05
3.64948e-05
3.66947e-05
3.68809e-05
3.70543e-05
3.72158e-05
3.73663e-05
3.75066e-05
3.76376e-05
3.77599e-05
3.78744e-05
3.80088e-05
3.83062e-05
3.83429e-05
3.83552e-05
3.83675e-05
3.83797e-05
3.83918e-05
3.84039e-05
3.84157e-05
3.84275e-05
3.8439e-05
3.84503e-05
3.84613e-05
3.8472e-05
3.84823e-05
3.84922e-05
3.85017e-05
3.85107e-05
3.8519e-05
3.85268e-05
3.85339e-05
3.85402e-05
3.85456e-05
3.85502e-05
3.85539e-05
3.85566e-05
3.85582e-05
3.85586e-05
3.85579e-05
3.8556e-05
3.85528e-05
3.85483e-05
3.85424e-05
3.85352e-05
3.85265e-05
3.85165e-05
3.8505e-05
3.84921e-05
3.84779e-05
3.84623e-05
3.84209e-05
3.81113e-05
3.79693e-05
3.78469e-05
3.77162e-05
3.75765e-05
3.74273e-05
3.72678e-05
3.70973e-05
3.69149e-05
3.67198e-05
3.6511e-05
3.62876e-05
3.60485e-05
3.57927e-05
3.55189e-05
3.52262e-05
3.49132e-05
3.45789e-05
3.42221e-05
3.38415e-05
3.3436e-05
3.30047e-05
3.25464e-05
3.20603e-05
3.15455e-05
3.10015e-05
3.04278e-05
2.9824e-05
2.91903e-05
3.22371e-05
2.22074e-05
2.92839e-05
2.99154e-05
3.05164e-05
3.10869e-05
3.16271e-05
3.21377e-05
3.26191e-05
3.30722e-05
3.3498e-05
3.38974e-05
3.42715e-05
3.46216e-05
3.49487e-05
3.52542e-05
3.55391e-05
3.58048e-05
3.60523e-05
3.62828e-05
3.64975e-05
3.66974e-05
3.68834e-05
3.70567e-05
3.72181e-05
3.73685e-05
3.75088e-05
3.76397e-05
3.7762e-05
3.78763e-05
3.80107e-05
3.83078e-05
3.83445e-05
3.83568e-05
3.83691e-05
3.83813e-05
3.83935e-05
3.84055e-05
3.84174e-05
3.84291e-05
3.84406e-05
3.84519e-05
3.84629e-05
3.84736e-05
3.84839e-05
3.84939e-05
3.85033e-05
3.85122e-05
3.85206e-05
3.85283e-05
3.85353e-05
3.85416e-05
3.8547e-05
3.85516e-05
3.85552e-05
3.85578e-05
3.85593e-05
3.85597e-05
3.85589e-05
3.85568e-05
3.85535e-05
3.85489e-05
3.85429e-05
3.85355e-05
3.85267e-05
3.85165e-05
3.85049e-05
3.84919e-05
3.84775e-05
3.84617e-05
3.84201e-05
3.811e-05
3.79677e-05
3.7845e-05
3.7714e-05
3.7574e-05
3.74245e-05
3.72646e-05
3.70938e-05
3.69111e-05
3.67157e-05
3.65066e-05
3.62828e-05
3.60434e-05
3.57872e-05
3.55132e-05
3.52201e-05
3.49069e-05
3.45723e-05
3.42151e-05
3.38343e-05
3.34286e-05
3.2997e-05
3.25385e-05
3.20522e-05
3.15373e-05
3.09931e-05
3.04192e-05
2.98154e-05
2.91816e-05
3.22259e-05
2.22117e-05
2.92882e-05
2.99197e-05
3.05206e-05
3.10911e-05
3.16313e-05
3.21417e-05
3.26231e-05
3.30761e-05
3.35018e-05
3.39011e-05
3.42752e-05
3.46252e-05
3.49522e-05
3.52576e-05
3.55424e-05
3.5808e-05
3.60554e-05
3.62858e-05
3.65004e-05
3.67001e-05
3.68861e-05
3.70593e-05
3.72206e-05
3.73709e-05
3.75111e-05
3.76419e-05
3.77641e-05
3.78784e-05
3.80127e-05
3.83095e-05
3.83462e-05
3.83585e-05
3.83708e-05
3.83831e-05
3.83952e-05
3.84072e-05
3.84191e-05
3.84309e-05
3.84424e-05
3.84537e-05
3.84647e-05
3.84754e-05
3.84857e-05
3.84956e-05
3.85051e-05
3.8514e-05
3.85223e-05
3.853e-05
3.8537e-05
3.85432e-05
3.85486e-05
3.85531e-05
3.85566e-05
3.85591e-05
3.85606e-05
3.85609e-05
3.856e-05
3.85578e-05
3.85544e-05
3.85496e-05
3.85435e-05
3.8536e-05
3.85271e-05
3.85167e-05
3.85049e-05
3.84917e-05
3.84771e-05
3.84612e-05
3.84194e-05
3.81086e-05
3.7966e-05
3.7843e-05
3.77116e-05
3.75713e-05
3.74214e-05
3.72613e-05
3.70901e-05
3.6907e-05
3.67112e-05
3.65018e-05
3.62777e-05
3.60379e-05
3.57814e-05
3.5507e-05
3.52136e-05
3.49001e-05
3.45651e-05
3.42077e-05
3.38266e-05
3.34206e-05
3.29887e-05
3.253e-05
3.20435e-05
3.15284e-05
3.0984e-05
3.041e-05
2.98061e-05
2.91722e-05
3.22139e-05
2.22162e-05
2.92927e-05
2.99241e-05
3.05251e-05
3.10955e-05
3.16357e-05
3.2146e-05
3.26273e-05
3.30803e-05
3.35059e-05
3.39051e-05
3.4279e-05
3.46289e-05
3.49559e-05
3.52611e-05
3.55459e-05
3.58113e-05
3.60586e-05
3.62889e-05
3.65034e-05
3.6703e-05
3.68889e-05
3.7062e-05
3.72232e-05
3.73734e-05
3.75135e-05
3.76443e-05
3.77664e-05
3.78805e-05
3.80148e-05
3.83112e-05
3.8348e-05
3.83603e-05
3.83726e-05
3.83849e-05
3.8397e-05
3.84091e-05
3.8421e-05
3.84327e-05
3.84443e-05
3.84556e-05
3.84666e-05
3.84773e-05
3.84876e-05
3.84975e-05
3.8507e-05
3.85159e-05
3.85242e-05
3.85319e-05
3.85388e-05
3.8545e-05
3.85503e-05
3.85548e-05
3.85582e-05
3.85607e-05
3.8562e-05
3.85623e-05
3.85613e-05
3.8559e-05
3.85555e-05
3.85506e-05
3.85443e-05
3.85366e-05
3.85275e-05
3.8517e-05
3.8505e-05
3.84917e-05
3.84769e-05
3.84607e-05
3.84188e-05
3.81072e-05
3.79643e-05
3.78409e-05
3.77092e-05
3.75685e-05
3.74183e-05
3.72577e-05
3.70862e-05
3.69027e-05
3.67066e-05
3.64967e-05
3.62723e-05
3.60321e-05
3.57752e-05
3.55005e-05
3.52067e-05
3.48928e-05
3.45575e-05
3.41998e-05
3.38183e-05
3.3412e-05
3.29799e-05
3.25209e-05
3.20341e-05
3.15188e-05
3.09743e-05
3.04001e-05
2.97961e-05
2.91621e-05
3.2201e-05
2.2221e-05
2.92974e-05
2.99289e-05
3.05298e-05
3.11001e-05
3.16402e-05
3.21506e-05
3.26318e-05
3.30846e-05
3.35101e-05
3.39092e-05
3.42831e-05
3.46329e-05
3.49597e-05
3.52648e-05
3.55495e-05
3.58148e-05
3.6062e-05
3.62922e-05
3.65065e-05
3.67061e-05
3.68919e-05
3.70648e-05
3.7226e-05
3.73761e-05
3.75161e-05
3.76467e-05
3.77687e-05
3.78828e-05
3.8017e-05
3.83131e-05
3.83498e-05
3.83622e-05
3.83746e-05
3.83868e-05
3.8399e-05
3.84111e-05
3.8423e-05
3.84348e-05
3.84463e-05
3.84576e-05
3.84687e-05
3.84794e-05
3.84897e-05
3.84996e-05
3.8509e-05
3.85179e-05
3.85262e-05
3.85339e-05
3.85408e-05
3.8547e-05
3.85523e-05
3.85567e-05
3.85601e-05
3.85624e-05
3.85637e-05
3.85638e-05
3.85627e-05
3.85604e-05
3.85567e-05
3.85517e-05
3.85452e-05
3.85374e-05
3.85281e-05
3.85174e-05
3.85053e-05
3.84917e-05
3.84767e-05
3.84603e-05
3.84181e-05
3.81059e-05
3.79625e-05
3.78388e-05
3.77067e-05
3.75656e-05
3.7415e-05
3.7254e-05
3.7082e-05
3.68982e-05
3.67016e-05
3.64914e-05
3.62665e-05
3.60259e-05
3.57686e-05
3.54935e-05
3.51993e-05
3.4885e-05
3.45494e-05
3.41913e-05
3.38095e-05
3.34029e-05
3.29705e-05
3.25112e-05
3.20242e-05
3.15086e-05
3.09639e-05
3.03896e-05
2.97854e-05
2.91514e-05
3.21871e-05
2.22259e-05
2.93024e-05
2.99338e-05
3.05347e-05
3.1105e-05
3.1645e-05
3.21553e-05
3.26364e-05
3.30892e-05
3.35146e-05
3.39136e-05
3.42874e-05
3.4637e-05
3.49637e-05
3.52687e-05
3.55533e-05
3.58185e-05
3.60655e-05
3.62956e-05
3.65099e-05
3.67093e-05
3.6895e-05
3.70678e-05
3.72288e-05
3.73789e-05
3.75188e-05
3.76493e-05
3.77712e-05
3.78852e-05
3.80193e-05
3.83151e-05
3.83518e-05
3.83642e-05
3.83766e-05
3.83889e-05
3.84011e-05
3.84132e-05
3.84251e-05
3.84369e-05
3.84485e-05
3.84598e-05
3.84709e-05
3.84816e-05
3.84919e-05
3.85018e-05
3.85113e-05
3.85202e-05
3.85285e-05
3.85361e-05
3.8543e-05
3.85491e-05
3.85544e-05
3.85587e-05
3.85621e-05
3.85644e-05
3.85656e-05
3.85656e-05
3.85644e-05
3.85619e-05
3.85581e-05
3.85529e-05
3.85464e-05
3.85384e-05
3.85289e-05
3.8518e-05
3.85057e-05
3.84919e-05
3.84767e-05
3.846e-05
3.84176e-05
3.81045e-05
3.79608e-05
3.78367e-05
3.77041e-05
3.75626e-05
3.74115e-05
3.72502e-05
3.70777e-05
3.68934e-05
3.66964e-05
3.64857e-05
3.62604e-05
3.60194e-05
3.57617e-05
3.54861e-05
3.51915e-05
3.48768e-05
3.45408e-05
3.41823e-05
3.38001e-05
3.33932e-05
3.29605e-05
3.25009e-05
3.20136e-05
3.14978e-05
3.09529e-05
3.03784e-05
2.97741e-05
2.91399e-05
3.21724e-05
2.22312e-05
2.93076e-05
2.9939e-05
3.05398e-05
3.11101e-05
3.16501e-05
3.21602e-05
3.26413e-05
3.3094e-05
3.35192e-05
3.39182e-05
3.42918e-05
3.46413e-05
3.49679e-05
3.52728e-05
3.55572e-05
3.58223e-05
3.60693e-05
3.62992e-05
3.65133e-05
3.67127e-05
3.68982e-05
3.70709e-05
3.72318e-05
3.73818e-05
3.75216e-05
3.7652e-05
3.77738e-05
3.78878e-05
3.80217e-05
3.83171e-05
3.83539e-05
3.83663e-05
3.83787e-05
3.8391e-05
3.84032e-05
3.84154e-05
3.84273e-05
3.84392e-05
3.84508e-05
3.84621e-05
3.84732e-05
3.84839e-05
3.84943e-05
3.85042e-05
3.85137e-05
3.85226e-05
3.85309e-05
3.85385e-05
3.85454e-05
3.85515e-05
3.85567e-05
3.8561e-05
3.85643e-05
3.85666e-05
3.85677e-05
3.85676e-05
3.85663e-05
3.85637e-05
3.85598e-05
3.85544e-05
3.85477e-05
3.85395e-05
3.85299e-05
3.85188e-05
3.85062e-05
3.84922e-05
3.84767e-05
3.84599e-05
3.84172e-05
3.81032e-05
3.79591e-05
3.78345e-05
3.77015e-05
3.75595e-05
3.7408e-05
3.72461e-05
3.70732e-05
3.68884e-05
3.66909e-05
3.64797e-05
3.62539e-05
3.60125e-05
3.57543e-05
3.54783e-05
3.51832e-05
3.48681e-05
3.45317e-05
3.41727e-05
3.37902e-05
3.33829e-05
3.29498e-05
3.24899e-05
3.20023e-05
3.14863e-05
3.09411e-05
3.03665e-05
2.9762e-05
2.91277e-05
3.21568e-05
2.22366e-05
2.9313e-05
2.99444e-05
3.05452e-05
3.11154e-05
3.16553e-05
3.21654e-05
3.26463e-05
3.30989e-05
3.35241e-05
3.39229e-05
3.42964e-05
3.46458e-05
3.49723e-05
3.52771e-05
3.55613e-05
3.58263e-05
3.60731e-05
3.6303e-05
3.6517e-05
3.67161e-05
3.69016e-05
3.70742e-05
3.7235e-05
3.73848e-05
3.75245e-05
3.76548e-05
3.77766e-05
3.78904e-05
3.80243e-05
3.83192e-05
3.83561e-05
3.83685e-05
3.83809e-05
3.83933e-05
3.84055e-05
3.84177e-05
3.84297e-05
3.84415e-05
3.84532e-05
3.84646e-05
3.84757e-05
3.84865e-05
3.84968e-05
3.85068e-05
3.85163e-05
3.85252e-05
3.85335e-05
3.85411e-05
3.8548e-05
3.85541e-05
3.85593e-05
3.85635e-05
3.85668e-05
3.8569e-05
3.857e-05
3.85698e-05
3.85684e-05
3.85657e-05
3.85616e-05
3.85562e-05
3.85493e-05
3.85409e-05
3.85311e-05
3.85198e-05
3.85069e-05
3.84927e-05
3.84769e-05
3.84598e-05
3.84168e-05
3.81019e-05
3.79573e-05
3.78323e-05
3.76988e-05
3.75563e-05
3.74043e-05
3.72419e-05
3.70685e-05
3.68832e-05
3.66852e-05
3.64735e-05
3.62472e-05
3.60052e-05
3.57465e-05
3.547e-05
3.51745e-05
3.48589e-05
3.4522e-05
3.41626e-05
3.37797e-05
3.3372e-05
3.29385e-05
3.24783e-05
3.19904e-05
3.14741e-05
3.09287e-05
3.03538e-05
2.97492e-05
2.91148e-05
3.21402e-05
2.22422e-05
2.93186e-05
2.995e-05
3.05507e-05
3.11209e-05
3.16607e-05
3.21707e-05
3.26516e-05
3.31041e-05
3.35291e-05
3.39278e-05
3.43012e-05
3.46505e-05
3.49769e-05
3.52815e-05
3.55656e-05
3.58305e-05
3.60771e-05
3.63069e-05
3.65207e-05
3.67198e-05
3.69051e-05
3.70776e-05
3.72382e-05
3.73879e-05
3.75275e-05
3.76578e-05
3.77794e-05
3.78931e-05
3.80269e-05
3.83215e-05
3.83583e-05
3.83708e-05
3.83833e-05
3.83956e-05
3.84079e-05
3.84201e-05
3.84322e-05
3.8444e-05
3.84557e-05
3.84672e-05
3.84783e-05
3.84891e-05
3.84995e-05
3.85095e-05
3.8519e-05
3.8528e-05
3.85363e-05
3.85439e-05
3.85508e-05
3.85569e-05
3.8562e-05
3.85663e-05
3.85695e-05
3.85716e-05
3.85726e-05
3.85723e-05
3.85708e-05
3.8568e-05
3.85638e-05
3.85581e-05
3.85511e-05
3.85425e-05
3.85325e-05
3.85209e-05
3.85079e-05
3.84933e-05
3.84773e-05
3.84599e-05
3.84166e-05
3.81007e-05
3.79556e-05
3.783e-05
3.7696e-05
3.75531e-05
3.74005e-05
3.72375e-05
3.70636e-05
3.68777e-05
3.66791e-05
3.64669e-05
3.624e-05
3.59975e-05
3.57383e-05
3.54613e-05
3.51653e-05
3.48491e-05
3.45118e-05
3.41519e-05
3.37685e-05
3.33604e-05
3.29266e-05
3.2466e-05
3.19778e-05
3.14612e-05
3.09155e-05
3.03404e-05
2.97356e-05
2.91011e-05
3.21227e-05
2.22481e-05
2.93245e-05
2.99558e-05
3.05565e-05
3.11266e-05
3.16664e-05
3.21763e-05
3.2657e-05
3.31094e-05
3.35344e-05
3.39329e-05
3.43062e-05
3.46554e-05
3.49816e-05
3.52861e-05
3.55701e-05
3.58348e-05
3.60813e-05
3.63109e-05
3.65246e-05
3.67235e-05
3.69087e-05
3.70811e-05
3.72416e-05
3.73912e-05
3.75307e-05
3.76608e-05
3.77823e-05
3.7896e-05
3.80297e-05
3.83238e-05
3.83607e-05
3.83732e-05
3.83857e-05
3.83981e-05
3.84104e-05
3.84227e-05
3.84348e-05
3.84467e-05
3.84584e-05
3.84699e-05
3.84811e-05
3.84919e-05
3.85024e-05
3.85124e-05
3.8522e-05
3.85309e-05
3.85393e-05
3.85469e-05
3.85538e-05
3.85599e-05
3.85651e-05
3.85693e-05
3.85724e-05
3.85745e-05
3.85754e-05
3.85751e-05
3.85735e-05
3.85705e-05
3.85662e-05
3.85604e-05
3.85531e-05
3.85444e-05
3.85341e-05
3.85223e-05
3.8509e-05
3.84942e-05
3.84779e-05
3.84601e-05
3.84165e-05
3.80996e-05
3.79539e-05
3.78278e-05
3.76933e-05
3.75497e-05
3.73965e-05
3.7233e-05
3.70585e-05
3.6872e-05
3.66728e-05
3.646e-05
3.62326e-05
3.59895e-05
3.57297e-05
3.54521e-05
3.51555e-05
3.48389e-05
3.4501e-05
3.41407e-05
3.37568e-05
3.33482e-05
3.2914e-05
3.2453e-05
3.19644e-05
3.14475e-05
3.09016e-05
3.03263e-05
2.97213e-05
2.90867e-05
3.21041e-05
2.22542e-05
2.93305e-05
2.99618e-05
3.05625e-05
3.11325e-05
3.16722e-05
3.2182e-05
3.26627e-05
3.3115e-05
3.35398e-05
3.39382e-05
3.43114e-05
3.46604e-05
3.49865e-05
3.52908e-05
3.55747e-05
3.58392e-05
3.60856e-05
3.63151e-05
3.65286e-05
3.67274e-05
3.69125e-05
3.70847e-05
3.72451e-05
3.73946e-05
3.75339e-05
3.76639e-05
3.77854e-05
3.78989e-05
3.80325e-05
3.83262e-05
3.83631e-05
3.83757e-05
3.83882e-05
3.84006e-05
3.8413e-05
3.84253e-05
3.84375e-05
3.84495e-05
3.84612e-05
3.84728e-05
3.8484e-05
3.84949e-05
3.85055e-05
3.85155e-05
3.85251e-05
3.85341e-05
3.85425e-05
3.85502e-05
3.85571e-05
3.85632e-05
3.85683e-05
3.85725e-05
3.85757e-05
3.85777e-05
3.85785e-05
3.85781e-05
3.85764e-05
3.85733e-05
3.85689e-05
3.85629e-05
3.85555e-05
3.85465e-05
3.8536e-05
3.8524e-05
3.85104e-05
3.84952e-05