/*--------------------------------*- C++ -*----------------------------------*\
  =========                 |
  \\      /  F ield         | OpenFOAM: The Open Source CFD Toolbox
   \\    /   O peration     | Website:  https://openfoam.org
    \\  /    A nd           | Version:  9
     \\/     M anipulation  |
\*---------------------------------------------------------------------------*/
FoamFile
{
    format      ascii;
    class       volVectorField;
    location    "0.01";
    object      U;
}
// * * * * * * * * * * * * * * * * * * * * * * * * * * * * * * * * * * * * * //

dimensions      [0 1 -1 0 0 0 0];

internalField   nonuniform List<vector> 
20000
(
(-7.20302e-06 0 -0.000316902)
(-6.12493e-06 0 -0.000655253)
(-6.13635e-06 0 -0.00098001)
(-6.07654e-06 0 -0.00132657)
(-5.93231e-06 0 -0.00169746)
(-5.7874e-06 0 -0.00209479)
(-5.64079e-06 0 -0.00251895)
(-5.48834e-06 0 -0.00297006)
(-5.32013e-06 0 -0.00344844)
(-5.13171e-06 0 -0.0039547)
(-4.92217e-06 0 -0.00448953)
(-4.69147e-06 0 -0.00505369)
(-4.43944e-06 0 -0.00564803)
(-4.16579e-06 0 -0.0062735)
(-3.87031e-06 0 -0.0069312)
(-3.55288e-06 0 -0.00762234)
(-3.21342e-06 0 -0.00834831)
(-2.85171e-06 0 -0.00911059)
(-2.4674e-06 0 -0.00991084)
(-2.05995e-06 0 -0.0107508)
(-1.62858e-06 0 -0.0116325)
(-1.17221e-06 0 -0.0125579)
(-6.89497e-07 0 -0.0135292)
(-1.78916e-07 0 -0.0145488)
(3.61161e-07 0 -0.015619)
(9.32423e-07 0 -0.0167424)
(1.53662e-06 0 -0.0179217)
(2.17573e-06 0 -0.0191598)
(2.85334e-06 0 -0.0204598)
(3.57733e-06 0 -0.0218246)
(4.35628e-06 0 -0.0233767)
(5.18231e-06 0 -0.0250774)
(6.02668e-06 0 -0.0267701)
(6.86157e-06 0 -0.0284548)
(7.67685e-06 0 -0.0301302)
(8.46437e-06 0 -0.031794)
(9.21578e-06 0 -0.0334437)
(9.92203e-06 0 -0.0350757)
(1.05732e-05 0 -0.0366865)
(1.11584e-05 0 -0.0382719)
(1.16663e-05 0 -0.0398272)
(1.20847e-05 0 -0.0413475)
(1.24011e-05 0 -0.0428272)
(1.26026e-05 0 -0.0442605)
(1.26768e-05 0 -0.0456412)
(1.26117e-05 0 -0.0469627)
(1.23964e-05 0 -0.0482178)
(1.20216e-05 0 -0.0493994)
(1.14733e-05 0 -0.0504999)
(1.07344e-05 0 -0.0515113)
(9.81314e-06 0 -0.0524242)
(8.72587e-06 0 -0.0532307)
(7.47088e-06 0 -0.0539233)
(6.04625e-06 0 -0.0544936)
(4.46288e-06 0 -0.0549332)
(2.73859e-06 0 -0.0552339)
(8.91741e-07 0 -0.0553878)
(-1.05217e-06 0 -0.0553874)
(-3.06218e-06 0 -0.0552258)
(-5.10401e-06 0 -0.0548966)
(-7.13948e-06 0 -0.0543941)
(-9.12678e-06 0 -0.0537133)
(-1.10216e-05 0 -0.0528504)
(-1.2779e-05 0 -0.0518022)
(-1.43538e-05 0 -0.0505668)
(-1.57008e-05 0 -0.0491429)
(-1.67728e-05 0 -0.0475311)
(-1.75249e-05 0 -0.0457332)
(-1.79289e-05 0 -0.043753)
(-1.79946e-05 0 -0.0415937)
(-1.76991e-05 0 -0.0394789)
(-1.71051e-05 0 -0.0375119)
(-1.63205e-05 0 -0.0355468)
(-1.53652e-05 0 -0.0335953)
(-1.42612e-05 0 -0.0316676)
(-1.30385e-05 0 -0.0297726)
(-1.17264e-05 0 -0.0279177)
(-1.03513e-05 0 -0.0261086)
(-8.93551e-06 0 -0.0243497)
(-7.49855e-06 0 -0.0226446)
(-6.0573e-06 0 -0.0209956)
(-4.62644e-06 0 -0.0194045)
(-3.21844e-06 0 -0.0178724)
(-1.8438e-06 0 -0.0163998)
(-5.11076e-07 0 -0.0149869)
(7.7295e-07 0 -0.0136335)
(2.00325e-06 0 -0.0123392)
(3.17651e-06 0 -0.0111037)
(4.29094e-06 0 -0.00992649)
(5.34603e-06 0 -0.00880714)
(6.3422e-06 0 -0.00774518)
(7.28056e-06 0 -0.00674005)
(8.16171e-06 0 -0.00579104)
(8.98269e-06 0 -0.00489709)
(9.73301e-06 0 -0.00405652)
(1.03978e-05 0 -0.00326662)
(1.09815e-05 0 -0.0025237)
(1.1494e-05 0 -0.00182369)
(1.26063e-05 0 -0.00116531)
(1.63454e-05 0 -0.000565137)
(-4.42478e-05 0 -0.000315168)
(-4.05851e-05 0 -0.000656895)
(-4.00069e-05 0 -0.000980448)
(-3.9429e-05 0 -0.0013273)
(-3.87981e-05 0 -0.00169869)
(-3.82228e-05 0 -0.00209657)
(-3.7706e-05 0 -0.00252137)
(-3.72159e-05 0 -0.00297325)
(-3.67136e-05 0 -0.00345253)
(-3.61783e-05 0 -0.00395977)
(-3.55991e-05 0 -0.00449566)
(-3.4969e-05 0 -0.00506097)
(-3.42824e-05 0 -0.00565654)
(-3.35351e-05 0 -0.00628332)
(-3.27239e-05 0 -0.00694242)
(-3.18468e-05 0 -0.00763505)
(-3.09025e-05 0 -0.00836258)
(-2.98898e-05 0 -0.00912653)
(-2.88076e-05 0 -0.00992853)
(-2.76543e-05 0 -0.0107704)
(-2.64277e-05 0 -0.011654)
(-2.51247e-05 0 -0.0125815)
(-2.37413e-05 0 -0.013555)
(-2.2273e-05 0 -0.0145768)
(-2.07149e-05 0 -0.0156494)
(-1.90619e-05 0 -0.0167754)
(-1.7309e-05 0 -0.0179573)
(-1.54521e-05 0 -0.0191982)
(-1.34793e-05 0 -0.0205011)
(-1.1349e-05 0 -0.021869)
(-9.00591e-06 0 -0.0234248)
(-6.48856e-06 0 -0.0251293)
(-3.90552e-06 0 -0.0268258)
(-1.33837e-06 0 -0.0285141)
(1.19424e-06 0 -0.0301931)
(3.67718e-06 0 -0.0318606)
(6.09204e-06 0 -0.0335139)
(8.41792e-06 0 -0.0351495)
(1.06313e-05 0 -0.0367638)
(1.27061e-05 0 -0.0383526)
(1.46142e-05 0 -0.0399113)
(1.63259e-05 0 -0.0414348)
(1.78101e-05 0 -0.0429177)
(1.90352e-05 0 -0.0443542)
(1.99702e-05 0 -0.0457379)
(2.05859e-05 0 -0.0470622)
(2.08571e-05 0 -0.04832)
(2.076e-05 0 -0.0495041)
(2.02471e-05 0 -0.0506071)
(1.93099e-05 0 -0.0516206)
(1.79592e-05 0 -0.0525355)
(1.62019e-05 0 -0.0533439)
(1.40628e-05 0 -0.054038)
(1.15541e-05 0 -0.0546096)
(8.69493e-06 0 -0.0550502)
(5.52425e-06 0 -0.0553516)
(2.10081e-06 0 -0.055506)
(-1.50989e-06 0 -0.0555058)
(-5.22733e-06 0 -0.0553441)
(-8.95997e-06 0 -0.0550144)
(-1.26083e-05 0 -0.054511)
(-1.60637e-05 0 -0.0538291)
(-1.92117e-05 0 -0.0529647)
(-2.19366e-05 0 -0.0519147)
(-2.4123e-05 0 -0.050677)
(-2.56566e-05 0 -0.0492506)
(-2.64204e-05 0 -0.0476358)
(-2.62977e-05 0 -0.0458347)
(-2.52092e-05 0 -0.0438507)
(-2.32307e-05 0 -0.0416873)
(-2.05006e-05 0 -0.039568)
(-1.72474e-05 0 -0.0375969)
(-1.36245e-05 0 -0.0356279)
(-9.64584e-06 0 -0.0336724)
(-5.36994e-06 0 -0.0317408)
(-8.79264e-07 0 -0.029842)
(3.74761e-06 0 -0.0279833)
(8.44148e-06 0 -0.0261704)
(1.3146e-05 0 -0.0244079)
(1.78112e-05 0 -0.0226993)
(2.23943e-05 0 -0.0210469)
(2.68587e-05 0 -0.0194525)
(3.11737e-05 0 -0.0179172)
(3.53139e-05 0 -0.0164415)
(3.92593e-05 0 -0.0150256)
(4.29948e-05 0 -0.0136694)
(4.65105e-05 0 -0.0123724)
(4.98013e-05 0 -0.0111344)
(5.28669e-05 0 -0.00995471)
(5.5711e-05 0 -0.00883304)
(5.83398e-05 0 -0.00776886)
(6.07614e-05 0 -0.00676163)
(6.29821e-05 0 -0.0058106)
(6.49986e-05 0 -0.00491469)
(6.67935e-05 0 -0.00407214)
(6.83495e-05 0 -0.00328027)
(6.9705e-05 0 -0.00253558)
(7.08749e-05 0 -0.00183468)
(7.31736e-05 0 -0.00118051)
(7.96916e-05 0 -0.000603683)
(-9.974e-05 0 -0.000322528)
(-9.54893e-05 0 -0.000663949)
(-9.41646e-05 0 -0.000985183)
(-9.28756e-05 0 -0.00133054)
(-9.16917e-05 0 -0.0017012)
(-9.06606e-05 0 -0.0020985)
(-8.97561e-05 0 -0.00252284)
(-8.89081e-05 0 -0.00297437)
(-8.80605e-05 0 -0.00345338)
(-8.71806e-05 0 -0.00396038)
(-8.6248e-05 0 -0.00449605)
(-8.52477e-05 0 -0.00506113)
(-8.41677e-05 0 -0.00565647)
(-8.29985e-05 0 -0.00628302)
(-8.17326e-05 0 -0.00694186)
(-8.03643e-05 0 -0.00763423)
(-7.88895e-05 0 -0.00836149)
(-7.73046e-05 0 -0.00912514)
(-7.56066e-05 0 -0.00992684)
(-7.37916e-05 0 -0.0107684)
(-7.18552e-05 0 -0.0116517)
(-6.97917e-05 0 -0.0125788)
(-6.75942e-05 0 -0.0135519)
(-6.52552e-05 0 -0.0145733)
(-6.27664e-05 0 -0.0156455)
(-6.01195e-05 0 -0.016771)
(-5.73065e-05 0 -0.0179525)
(-5.43243e-05 0 -0.0191929)
(-5.11772e-05 0 -0.0204953)
(-4.78157e-05 0 -0.0218627)
(-4.3897e-05 0 -0.023418)
(-3.95469e-05 0 -0.0251217)
(-3.51998e-05 0 -0.0268173)
(-3.08868e-05 0 -0.0285048)
(-2.65964e-05 0 -0.030183)
(-2.23426e-05 0 -0.0318497)
(-1.81474e-05 0 -0.033502)
(-1.40373e-05 0 -0.0351368)
(-1.0043e-05 0 -0.0367502)
(-6.19956e-06 0 -0.038338)
(-2.54508e-06 0 -0.0398958)
(8.80018e-07 0 -0.0414183)
(4.03363e-06 0 -0.0429003)
(6.8724e-06 0 -0.0443358)
(9.35349e-06 0 -0.0457185)
(1.14373e-05 0 -0.0470418)
(1.30921e-05 0 -0.0482986)
(1.42843e-05 0 -0.0494818)
(1.49372e-05 0 -0.0505838)
(1.50993e-05 0 -0.0515964)
(1.47466e-05 0 -0.0525104)
(1.38273e-05 0 -0.0533179)
(1.245e-05 0 -0.0540112)
(1.06306e-05 0 -0.0545821)
(8.38e-06 0 -0.0550221)
(5.77183e-06 0 -0.055323)
(2.89346e-06 0 -0.055477)
(-1.61772e-07 0 -0.0554766)
(-3.27559e-06 0 -0.0553147)
(-6.31216e-06 0 -0.0549851)
(-9.12705e-06 0 -0.054482)
(-1.15636e-05 0 -0.0538005)
(-1.34576e-05 0 -0.0529367)
(-1.46429e-05 0 -0.0518875)
(-1.49554e-05 0 -0.0506508)
(-1.42346e-05 0 -0.0492256)
(-1.2317e-05 0 -0.0476121)
(-9.03753e-06 0 -0.0458125)
(-4.22957e-06 0 -0.0438303)
(2.10744e-06 0 -0.0416686)
(9.08183e-06 0 -0.0395505)
(1.61757e-05 0 -0.0375808)
(2.37478e-05 0 -0.0356132)
(3.17556e-05 0 -0.0336591)
(4.00633e-05 0 -0.0317287)
(4.85388e-05 0 -0.0298311)
(5.70669e-05 0 -0.0279735)
(6.55488e-05 0 -0.0261617)
(7.39014e-05 0 -0.0244003)
(8.20531e-05 0 -0.0226925)
(8.99441e-05 0 -0.021041)
(9.75246e-05 0 -0.0194474)
(0.000104754 0 -0.0179128)
(0.0001116 0 -0.0164378)
(0.000118037 0 -0.0150225)
(0.00012405 0 -0.0136668)
(0.000129629 0 -0.0123703)
(0.000134771 0 -0.0111327)
(0.000139481 0 -0.00995345)
(0.000143768 0 -0.00883212)
(0.000147645 0 -0.00776825)
(0.000151124 0 -0.00676127)
(0.000154217 0 -0.00581044)
(0.000156919 0 -0.00491462)
(0.000159211 0 -0.00407202)
(0.000161093 0 -0.00328007)
(0.00016267 0 -0.00253573)
(0.000164094 0 -0.00183633)
(0.000166158 0 -0.00118614)
(0.000170025 0 -0.00061656)
(-0.000171339 0 -0.000327533)
(-0.000167698 0 -0.000670527)
(-0.000166162 0 -0.000990264)
(-0.000164406 0 -0.00133419)
(-0.00016279 0 -0.00170375)
(-0.000161415 0 -0.00210016)
(-0.000160202 0 -0.00252378)
(-0.000159054 0 -0.00297475)
(-0.000157906 0 -0.00345329)
(-0.000156716 0 -0.00395986)
(-0.000155458 0 -0.00449509)
(-0.000154114 0 -0.00505973)
(-0.000152669 0 -0.00565459)
(-0.000151111 0 -0.00628064)
(-0.000149428 0 -0.00693895)
(-0.000147613 0 -0.00763074)
(-0.000145658 0 -0.00835738)
(-0.000143557 0 -0.00912037)
(-0.000141305 0 -0.00992136)
(-0.000138895 0 -0.0107621)
(-0.00013632 0 -0.0116446)
(-0.00013357 0 -0.0125709)
(-0.000130636 0 -0.0135431)
(-0.000127506 0 -0.0145635)
(-0.000124169 0 -0.0156347)
(-0.000120611 0 -0.0167591)
(-0.000116823 0 -0.0179395)
(-0.000112795 0 -0.0191787)
(-0.000108538 0 -0.0204798)
(-0.00010401 0 -0.0218458)
(-9.85966e-05 0 -0.0233995)
(-9.24862e-05 0 -0.0251016)
(-8.64175e-05 0 -0.0267956)
(-8.03603e-05 0 -0.0284816)
(-7.42834e-05 0 -0.0301582)
(-6.81976e-05 0 -0.0318233)
(-6.21221e-05 0 -0.033474)
(-5.60831e-05 0 -0.0351072)
(-5.01134e-05 0 -0.036719)
(-4.42508e-05 0 -0.0383053)
(-3.85375e-05 0 -0.0398614)
(-3.30178e-05 0 -0.0413824)
(-2.77386e-05 0 -0.0428628)
(-2.27486e-05 0 -0.0442968)
(-1.80958e-05 0 -0.0456779)
(-1.38239e-05 0 -0.0469997)
(-9.96773e-06 0 -0.0482551)
(-6.55907e-06 0 -0.0494369)
(-3.70772e-06 0 -0.0505375)
(-1.30097e-06 0 -0.0515487)
(6.1833e-07 0 -0.0524616)
(1.93674e-06 0 -0.0532681)
(2.83731e-06 0 -0.0539605)
(3.32432e-06 0 -0.0545306)
(3.42216e-06 0 -0.0549699)
(3.23297e-06 0 -0.0552704)
(2.8526e-06 0 -0.0554242)
(2.40437e-06 0 -0.0554237)
(2.02998e-06 0 -0.0552621)
(1.89636e-06 0 -0.054933)
(2.17876e-06 0 -0.0544307)
(3.06459e-06 0 -0.0537504)
(4.7512e-06 0 -0.0528879)
(7.43531e-06 0 -0.0518404)
(1.13091e-05 0 -0.0506057)
(1.65593e-05 0 -0.0491828)
(2.33746e-05 0 -0.0475719)
(3.19414e-05 0 -0.0457752)
(4.24594e-05 0 -0.043796)
(5.49907e-05 0 -0.0416377)
(6.77781e-05 0 -0.039523)
(8.00207e-05 0 -0.0375563)
(9.2693e-05 0 -0.0355915)
(0.000105711 0 -0.0336402)
(0.000118885 0 -0.0317124)
(0.000132055 0 -0.0298173)
(0.000145082 0 -0.027962)
(0.000157846 0 -0.0261523)
(0.000170249 0 -0.0243928)
(0.000182206 0 -0.0226869)
(0.00019365 0 -0.021037)
(0.000204528 0 -0.0194449)
(0.000214798 0 -0.0179117)
(0.00022443 0 -0.0164379)
(0.000233404 0 -0.0150236)
(0.000241711 0 -0.0136688)
(0.000249348 0 -0.0123731)
(0.000256323 0 -0.0111361)
(0.00026265 0 -0.00995737)
(0.000268348 0 -0.00883642)
(0.000273439 0 -0.0077728)
(0.000277949 0 -0.00676595)
(0.000281895 0 -0.00581511)
(0.000285284 0 -0.00491909)
(0.000288111 0 -0.00407613)
(0.000290408 0 -0.00328386)
(0.000292333 0 -0.00253975)
(0.000294151 0 -0.0018416)
(0.0002965 0 -0.00119294)
(0.000298427 0 -0.000623769)
(-0.000262752 0 -0.0003316)
(-0.000259333 0 -0.000676934)
(-0.000257761 0 -0.000996649)
(-0.000255656 0 -0.00133975)
(-0.000253687 0 -0.00170839)
(-0.000252 0 -0.00210405)
(-0.000250499 0 -0.00252721)
(-0.000249073 0 -0.00297793)
(-0.000247641 0 -0.00345636)
(-0.000246155 0 -0.00396288)
(-0.000244586 0 -0.0044981)
(-0.000242913 0 -0.00506274)
(-0.00024112 0 -0.00565761)
(-0.000239192 0 -0.00628366)
(-0.000237117 0 -0.00694197)
(-0.000234885 0 -0.00763375)
(-0.000232485 0 -0.00836036)
(-0.000229909 0 -0.00912331)
(-0.000227149 0 -0.00992423)
(-0.000224195 0 -0.0107649)
(-0.000221036 0 -0.0116473)
(-0.00021766 0 -0.0125734)
(-0.000214053 0 -0.0135455)
(-0.000210199 0 -0.0145658)
(-0.000206083 0 -0.0156368)
(-0.000201686 0 -0.016761)
(-0.000196993 0 -0.0179412)
(-0.000191985 0 -0.0191802)
(-0.000186652 0 -0.020481)
(-0.000180953 0 -0.0218468)
(-0.000174162 0 -0.0234001)
(-0.000166465 0 -0.0251019)
(-0.000158737 0 -0.0267957)
(-0.000150933 0 -0.0284814)
(-0.000143033 0 -0.0301578)
(-0.00013504 0 -0.0318226)
(-0.000126968 0 -0.0334731)
(-0.000118836 0 -0.035106)
(-0.000110674 0 -0.0367176)
(-0.000102516 0 -0.0383035)
(-9.44028e-05 0 -0.0398594)
(-8.63752e-05 0 -0.04138)
(-7.84786e-05 0 -0.04286)
(-7.07604e-05 0 -0.0442935)
(-6.32662e-05 0 -0.0456743)
(-5.60381e-05 0 -0.0469956)
(-4.91087e-05 0 -0.0482506)
(-4.25061e-05 0 -0.0494319)
(-3.63631e-05 0 -0.050532)
(-3.05001e-05 0 -0.0515428)
(-2.49345e-05 0 -0.0524552)
(-1.98941e-05 0 -0.0532612)
(-1.51681e-05 0 -0.0539533)
(-1.0677e-05 0 -0.0545231)
(-6.40469e-06 0 -0.0549622)
(-2.25242e-06 0 -0.0552625)
(1.89853e-06 0 -0.0554162)
(6.18936e-06 0 -0.0554158)
(1.07716e-05 0 -0.0552545)
(1.5832e-05 0 -0.0549257)
(2.15621e-05 0 -0.0544239)
(2.81647e-05 0 -0.0537443)
(3.58522e-05 0 -0.0528827)
(4.48327e-05 0 -0.0518362)
(5.53065e-05 0 -0.0506027)
(6.74647e-05 0 -0.0491811)
(8.14975e-05 0 -0.0475718)
(9.75829e-05 0 -0.0457767)
(0.000115873 0 -0.0437993)
(0.000136397 0 -0.0416428)
(0.000156632 0 -0.03953)
(0.000175557 0 -0.0375648)
(0.000194655 0 -0.0356014)
(0.000213806 0 -0.0336513)
(0.000232819 0 -0.0317247)
(0.000251526 0 -0.0298305)
(0.000269773 0 -0.027976)
(0.000287433 0 -0.026167)
(0.0003044 0 -0.024408)
(0.000320593 0 -0.0227024)
(0.000335948 0 -0.0210528)
(0.000350416 0 -0.0194608)
(0.000363965 0 -0.0179276)
(0.000376578 0 -0.0164536)
(0.000388246 0 -0.0150391)
(0.000398973 0 -0.0136839)
(0.000408771 0 -0.0123878)
(0.000417661 0 -0.0111502)
(0.000425672 0 -0.00997074)
(0.000432837 0 -0.00884904)
(0.000439192 0 -0.0077846)
(0.000444774 0 -0.00677686)
(0.000449617 0 -0.00582504)
(0.000453741 0 -0.00492792)
(0.000457158 0 -0.00408377)
(0.000459916 0 -0.00329045)
(0.000462166 0 -0.0025458)
(0.000464136 0 -0.00184769)
(0.000466511 0 -0.00119884)
(0.000467178 0 -0.000627943)
(-0.00037467 0 -0.000335365)
(-0.000371261 0 -0.000683296)
(-0.000369744 0 -0.00100359)
(-0.000367473 0 -0.00134619)
(-0.00036528 0 -0.00171394)
(-0.000363359 0 -0.00210883)
(-0.000361625 0 -0.00253153)
(-0.000359965 0 -0.00298207)
(-0.00035829 0 -0.0034605)
(-0.000356545 0 -0.00396712)
(-0.000354699 0 -0.00450248)
(-0.000352732 0 -0.00506728)
(-0.000350626 0 -0.00566235)
(-0.000348365 0 -0.00628862)
(-0.000345936 0 -0.00694716)
(-0.000343325 0 -0.00763917)
(-0.000340522 0 -0.00836603)
(-0.000337516 0 -0.00912922)
(-0.000334294 0 -0.00993041)
(-0.000330846 0 -0.0107714)
(-0.000327155 0 -0.011654)
(-0.000323207 0 -0.0125804)
(-0.000318983 0 -0.0135527)
(-0.000314464 0 -0.0145733)
(-0.000309629 0 -0.0156446)
(-0.000304454 0 -0.0167691)
(-0.000298916 0 -0.0179496)
(-0.000292988 0 -0.0191889)
(-0.000286634 0 -0.0204901)
(-0.000279798 0 -0.0218562)
(-0.000271694 0 -0.0234101)
(-0.000262487 0 -0.0251123)
(-0.000253121 0 -0.0268064)
(-0.000243561 0 -0.0284925)
(-0.000233793 0 -0.0301693)
(-0.00022381 0 -0.0318345)
(-0.000213612 0 -0.0334854)
(-0.000203211 0 -0.0351187)
(-0.000192625 0 -0.0367305)
(-0.000181881 0 -0.0383168)
(-0.000171007 0 -0.0398729)
(-0.000160038 0 -0.0413938)
(-0.000149008 0 -0.0428741)
(-0.000137958 0 -0.0443078)
(-0.000126923 0 -0.0456887)
(-0.00011594 0 -0.0470101)
(-0.00010503 0 -0.0482651)
(-9.42144e-05 0 -0.0494465)
(-8.36215e-05 0 -0.0505466)
(-7.30505e-05 0 -0.0515573)
(-6.24913e-05 0 -0.0524697)
(-5.22304e-05 0 -0.0532758)
(-4.20377e-05 0 -0.0539678)
(-3.17716e-05 0 -0.0545376)
(-2.14456e-05 0 -0.0549767)
(-1.09511e-05 0 -0.0552771)
(-1.59979e-07 0 -0.055431)
(1.10764e-05 0 -0.0554308)
(2.29194e-05 0 -0.0552697)
(3.55548e-05 0 -0.0549414)
(4.91769e-05 0 -0.0544401)
(6.39895e-05 0 -0.0537611)
(8.02013e-05 0 -0.0529002)
(9.80122e-05 0 -0.0518545)
(0.00011761 0 -0.0506219)
(0.000139169 0 -0.0492013)
(0.000162855 0 -0.0475931)
(0.000188815 0 -0.0457992)
(0.000217126 0 -0.0438229)
(0.00024773 0 -0.0416674)
(0.000277235 0 -0.0395553)
(0.000304392 0 -0.0375907)
(0.000331274 0 -0.0356279)
(0.00035776 0 -0.0336782)
(0.000383668 0 -0.0317518)
(0.00040883 0 -0.0298577)
(0.000433094 0 -0.0280032)
(0.000456333 0 -0.026194)
(0.000478453 0 -0.0244346)
(0.000499381 0 -0.0227286)
(0.000519066 0 -0.0210784)
(0.000537478 0 -0.0194857)
(0.000554603 0 -0.0179517)
(0.00057044 0 -0.0164768)
(0.000585001 0 -0.0150613)
(0.000598309 0 -0.0137051)
(0.000610394 0 -0.0124077)
(0.000621296 0 -0.0111689)
(0.00063106 0 -0.0099882)
(0.000639738 0 -0.00886519)
(0.000647382 0 -0.00779941)
(0.000654047 0 -0.00679029)
(0.000659784 0 -0.00583703)
(0.000664634 0 -0.0049384)
(0.000668634 0 -0.00409269)
(0.000671841 0 -0.0032979)
(0.00067437 0 -0.00255208)
(0.000676396 0 -0.00185307)
(0.000678689 0 -0.0012031)
(0.000678607 0 -0.00063056)
(-0.000506476 0 -0.000338843)
(-0.000503116 0 -0.000689312)
(-0.000501806 0 -0.00101041)
(-0.000499572 0 -0.0013527)
(-0.000497324 0 -0.00171964)
(-0.00049529 0 -0.00211375)
(-0.000493411 0 -0.00253592)
(-0.000491587 0 -0.00298621)
(-0.000489731 0 -0.00346457)
(-0.000487789 0 -0.00397122)
(-0.000485729 0 -0.00450667)
(-0.000483528 0 -0.00507159)
(-0.000481168 0 -0.00566679)
(-0.000478634 0 -0.00629322)
(-0.000475909 0 -0.00695192)
(-0.00047298 0 -0.00764411)
(-0.000469833 0 -0.00837115)
(-0.000466456 0 -0.00913454)
(-0.000462834 0 -0.00993593)
(-0.000458951 0 -0.0107771)
(-0.00045479 0 -0.0116599)
(-0.000450332 0 -0.0125866)
(-0.000445555 0 -0.0135591)
(-0.000440434 0 -0.0145799)
(-0.000434943 0 -0.0156515)
(-0.000429054 0 -0.0167762)
(-0.000422735 0 -0.017957)
(-0.000415951 0 -0.0191965)
(-0.000408651 0 -0.0204981)
(-0.000400753 0 -0.0218646)
(-0.000391374 0 -0.023419)
(-0.000380655 0 -0.0251216)
(-0.000369647 0 -0.0268161)
(-0.000358318 0 -0.0285025)
(-0.000346638 0 -0.0301796)
(-0.000334582 0 -0.0318452)
(-0.000322135 0 -0.0334965)
(-0.000309291 0 -0.0351301)
(-0.000296055 0 -0.0367422)
(-0.000282436 0 -0.0383288)
(-0.000268446 0 -0.0398852)
(-0.000254104 0 -0.0414064)
(-0.000239429 0 -0.0428869)
(-0.000224447 0 -0.0443208)
(-0.000209178 0 -0.0457019)
(-0.000193641 0 -0.0470235)
(-0.000177848 0 -0.0482787)
(-0.000161809 0 -0.0494602)
(-0.00014563 0 -0.0505605)
(-0.000129117 0 -0.0515713)
(-0.000112215 0 -0.0524838)
(-9.52372e-05 0 -0.05329)
(-7.79438e-05 0 -0.0539822)
(-6.01523e-05 0 -0.0545521)
(-4.19102e-05 0 -0.0549915)
(-2.3087e-05 0 -0.0552922)
(-3.56108e-06 0 -0.0554464)
(1.68193e-05 0 -0.0554467)
(3.82143e-05 0 -0.0552862)
(6.07945e-05 0 -0.0549586)
(8.47454e-05 0 -0.0544581)
(0.000110256 0 -0.0537799)
(0.000137513 0 -0.0529201)
(0.00016669 0 -0.0518755)
(0.000197944 0 -0.0506441)
(0.000231408 0 -0.0492248)
(0.000267204 0 -0.0476179)
(0.000305428 0 -0.0458254)
(0.000346092 0 -0.0438505)
(0.000389042 0 -0.0416961)
(0.000429735 0 -0.0395848)
(0.000466645 0 -0.0376208)
(0.000502677 0 -0.0356584)
(0.000537728 0 -0.0337091)
(0.000571623 0 -0.031783)
(0.000604198 0 -0.029889)
(0.000635311 0 -0.0280343)
(0.000664855 0 -0.0262248)
(0.000692753 0 -0.0244651)
(0.000718956 0 -0.0227585)
(0.000743436 0 -0.0211075)
(0.000766187 0 -0.019514)
(0.000787221 0 -0.017979)
(0.000806562 0 -0.0165031)
(0.000824248 0 -0.0150864)
(0.000840324 0 -0.0137289)
(0.000854846 0 -0.0124302)
(0.000867877 0 -0.0111899)
(0.000879484 0 -0.0100077)
(0.000889742 0 -0.00888322)
(0.000898725 0 -0.00781589)
(0.00090651 0 -0.00680519)
(0.000913174 0 -0.0058503)
(0.000918788 0 -0.00494999)
(0.000923421 0 -0.00410257)
(0.000927151 0 -0.0033061)
(0.000930072 0 -0.00255872)
(0.000932336 0 -0.00185825)
(0.000934822 0 -0.00120674)
(0.000934415 0 -0.00063261)
(-0.000657969 0 -0.000341889)
(-0.000654707 0 -0.000694707)
(-0.000653703 0 -0.00101672)
(-0.000651635 0 -0.00135898)
(-0.00064945 0 -0.00172535)
(-0.000647388 0 -0.00211881)
(-0.000645424 0 -0.00254051)
(-0.000643482 0 -0.00299056)
(-0.000641492 0 -0.00346883)
(-0.000639402 0 -0.00397549)
(-0.000637177 0 -0.00451098)
(-0.000634795 0 -0.00507598)
(-0.000632237 0 -0.00567127)
(-0.000629485 0 -0.00629779)
(-0.000626522 0 -0.0069566)
(-0.000623334 0 -0.0076489)
(-0.000619905 0 -0.00837605)
(-0.000616218 0 -0.00913955)
(-0.000612258 0 -0.00994104)
(-0.000608005 0 -0.0107823)
(-0.000603438 0 -0.0116653)
(-0.000598535 0 -0.012592)
(-0.000593271 0 -0.0135647)
(-0.000587617 0 -0.0145856)
(-0.000581542 0 -0.0156573)
(-0.00057501 0 -0.0167822)
(-0.000567981 0 -0.0179631)
(-0.000560412 0 -0.0192028)
(-0.000552239 0 -0.0205045)
(-0.000543357 0 -0.0218714)
(-0.000532753 0 -0.0234261)
(-0.00052054 0 -0.0251289)
(-0.000507905 0 -0.0268236)
(-0.000494801 0 -0.0285103)
(-0.000481175 0 -0.0301877)
(-0.000466975 0 -0.0318535)
(-0.000452165 0 -0.0335051)
(-0.000436719 0 -0.035139)
(-0.000420619 0 -0.0367515)
(-0.000403851 0 -0.0383384)
(-0.000386405 0 -0.0398951)
(-0.000368277 0 -0.0414165)
(-0.000349466 0 -0.0428973)
(-0.000329972 0 -0.0443315)
(-0.000309797 0 -0.0457129)
(-0.000288936 0 -0.0470348)
(-0.000267381 0 -0.0482903)
(-0.000245135 0 -0.049472)
(-0.000222278 0 -0.0505726)
(-0.000198603 0 -0.0515836)
(-0.000174033 0 -0.0524965)
(-0.000148881 0 -0.053303)
(-0.0001229 0 -0.0539956)
(-9.58929e-05 0 -0.054566)
(-6.79183e-05 0 -0.0550059)
(-3.88346e-05 0 -0.0553072)
(-8.53322e-06 0 -0.055462)
(2.31349e-05 0 -0.0554632)
(5.63146e-05 0 -0.0553035)
(9.1152e-05 0 -0.0549769)
(0.000127812 0 -0.0544775)
(0.000166454 0 -0.0538006)
(0.000207225 0 -0.0529421)
(0.000250256 0 -0.051899)
(0.000295652 0 -0.0506691)
(0.000343491 0 -0.0492514)
(0.000393828 0 -0.0476462)
(0.000446689 0 -0.0458554)
(0.000502015 0 -0.0438821)
(0.000559551 0 -0.0417291)
(0.00061334 0 -0.0396187)
(0.000661545 0 -0.0376555)
(0.000708125 0 -0.0356938)
(0.000752996 0 -0.033745)
(0.000795992 0 -0.0318191)
(0.000836964 0 -0.0299252)
(0.000875794 0 -0.0280704)
(0.000912402 0 -0.0262606)
(0.000946743 0 -0.0245003)
(0.000978799 0 -0.022793)
(0.00100858 0 -0.0211412)
(0.0010361 0 -0.0195467)
(0.00106142 0 -0.0180106)
(0.00108459 0 -0.0165334)
(0.00110567 0 -0.0151153)
(0.00112475 0 -0.0137563)
(0.00114191 0 -0.012456)
(0.00115723 0 -0.0112141)
(0.00117082 0 -0.0100302)
(0.00118278 0 -0.00890387)
(0.0011932 0 -0.00783471)
(0.0012022 0 -0.00682215)
(0.00120987 0 -0.00586539)
(0.00121634 0 -0.00496321)
(0.0012217 0 -0.00411392)
(0.00122607 0 -0.00331562)
(0.00122953 0 -0.00256647)
(0.00123224 0 -0.0018642)
(0.00123519 0 -0.00121085)
(0.0012347 0 -0.000634886)
(-0.000829209 0 -0.000344475)
(-0.000826031 0 -0.000699376)
(-0.000825343 0 -0.00102237)
(-0.000823473 0 -0.00136485)
(-0.000821392 0 -0.00173096)
(-0.000819342 0 -0.00212401)
(-0.000817322 0 -0.00254538)
(-0.000815287 0 -0.00299525)
(-0.000813187 0 -0.00347347)
(-0.000810975 0 -0.00398016)
(-0.000808618 0 -0.00451573)
(-0.000806091 0 -0.00508082)
(-0.000803374 0 -0.00567623)
(-0.000800447 0 -0.00630287)
(-0.000797294 0 -0.0069618)
(-0.000793895 0 -0.00765423)
(-0.000790234 0 -0.0083815)
(-0.000786293 0 -0.00914512)
(-0.000782051 0 -0.00994672)
(-0.000777486 0 -0.0107881)
(-0.000772577 0 -0.0116712)
(-0.000767295 0 -0.012598)
(-0.000761612 0 -0.0135708)
(-0.000755496 0 -0.0145919)
(-0.00074891 0 -0.0156636)
(-0.00074181 0 -0.0167887)
(-0.000734147 0 -0.0179697)
(-0.000725867 0 -0.0192096)
(-0.00071689 0 -0.0205116)
(-0.000707091 0 -0.0218787)
(-0.000695334 0 -0.0234338)
(-0.000681693 0 -0.0251369)
(-0.000667471 0 -0.0268319)
(-0.000652604 0 -0.0285189)
(-0.000637009 0 -0.0301966)
(-0.000620609 0 -0.0318629)
(-0.000603338 0 -0.0335149)
(-0.000585146 0 -0.0351493)
(-0.000565984 0 -0.0367623)
(-0.00054581 0 -0.0383497)
(-0.000524587 0 -0.0399069)
(-0.000502281 0 -0.0414289)
(-0.000478859 0 -0.0429102)
(-0.000454295 0 -0.044345)
(-0.000428564 0 -0.045727)
(-0.000401632 0 -0.0470495)
(-0.000373469 0 -0.0483055)
(-0.000344064 0 -0.0494879)
(-0.00031347 0 -0.050589)
(-0.000281445 0 -0.0516007)
(-0.000247908 0 -0.0525142)
(-0.00021316 0 -0.0533215)
(-0.000176952 0 -0.0540148)
(-0.000139084 0 -0.054586)
(-9.96029e-05 0 -0.0550268)
(-5.83742e-05 0 -0.0553291)
(-1.53047e-05 0 -0.055485)
(2.97436e-05 0 -0.0554873)
(7.68911e-05 0 -0.0553289)
(0.000126249 0 -0.0550036)
(0.000177951 0 -0.0545056)
(0.00023211 0 -0.0538302)
(0.00028882 0 -0.0529734)
(0.000348151 0 -0.0519319)
(0.000410142 0 -0.0507038)
(0.000474795 0 -0.0492878)
(0.000542082 0 -0.0476844)
(0.000611936 0 -0.0458953)
(0.000684202 0 -0.0439236)
(0.000758511 0 -0.041772)
(0.000827289 0 -0.0396625)
(0.000888376 0 -0.0377)
(0.000946941 0 -0.0357387)
(0.00100292 0 -0.0337902)
(0.00105616 0 -0.0318644)
(0.00110655 0 -0.0299702)
(0.001154 0 -0.0281149)
(0.00119847 0 -0.0263045)
(0.00123996 0 -0.0245434)
(0.00127849 0 -0.0228351)
(0.00131411 0 -0.0211821)
(0.00134689 0 -0.0195862)
(0.00137691 0 -0.0180485)
(0.00140426 0 -0.0165696)
(0.00142906 0 -0.0151497)
(0.00145141 0 -0.0137888)
(0.00147143 0 -0.0124865)
(0.00148925 0 -0.0112425)
(0.001505 0 -0.0100564)
(0.0015188 0 -0.00892795)
(0.0015308 0 -0.00785658)
(0.00154113 0 -0.00684182)
(0.00154993 0 -0.00588287)
(0.00155736 0 -0.00497856)
(0.00156355 0 -0.00412722)
(0.00156864 0 -0.00332693)
(0.00157272 0 -0.0025758)
(0.00157597 0 -0.00187149)
(0.00157949 0 -0.00121593)
(0.00157898 0 -0.000637707)
(-0.00102014 0 -0.000346688)
(-0.001017 0 -0.000703419)
(-0.00101657 0 -0.00102739)
(-0.00101486 0 -0.00137029)
(-0.00101287 0 -0.00173639)
(-0.00101084 0 -0.00212924)
(-0.00100878 0 -0.00255042)
(-0.00100667 0 -0.00300018)
(-0.00100447 0 -0.00347839)
(-0.00100216 0 -0.00398513)
(-0.000999695 0 -0.0045208)
(-0.000997051 0 -0.00508602)
(-0.000994207 0 -0.00568158)
(-0.000991142 0 -0.00630837)
(-0.000987836 0 -0.00696746)
(-0.00098427 0 -0.00766005)
(-0.000980423 0 -0.00838748)
(-0.000976275 0 -0.00915126)
(-0.000971804 0 -0.00995302)
(-0.000966984 0 -0.0107946)
(-0.000961791 0 -0.0116778)
(-0.000956195 0 -0.0126048)
(-0.000950162 0 -0.0135778)
(-0.000943657 0 -0.014599)
(-0.000936635 0 -0.015671)
(-0.000929046 0 -0.0167962)
(-0.00092083 0 -0.0179775)
(-0.000911918 0 -0.0192177)
(-0.000902214 0 -0.0205199)
(-0.00089157 0 -0.0218874)
(-0.000878746 0 -0.023443)
(-0.000863759 0 -0.0251466)
(-0.00084801 0 -0.026842)
(-0.000831405 0 -0.0285295)
(-0.000813836 0 -0.0302078)
(-0.000795194 0 -0.0318747)
(-0.000775384 0 -0.0335274)
(-0.000754318 0 -0.0351625)
(-0.000731915 0 -0.0367763)
(-0.000708099 0 -0.0383645)
(-0.000682795 0 -0.0399226)
(-0.000655936 0 -0.0414455)
(-0.000627454 0 -0.0429277)
(-0.000597286 0 -0.0443634)
(-0.000565373 0 -0.0457464)
(-0.000531653 0 -0.0470698)
(-0.00049606 0 -0.0483269)
(-0.000458567 0 -0.0495103)
(-0.000419199 0 -0.0506125)
(-0.00037767 0 -0.0516253)
(-0.000333894 0 -0.0525399)
(-0.000288166 0 -0.0533484)
(-0.000240234 0 -0.054043)
(-0.000189888 0 -0.0546155)
(-0.000137161 0 -0.0550577)
(-8.19348e-05 0 -0.0553614)
(-2.41408e-05 0 -0.0555188)
(3.63443e-05 0 -0.0555227)
(9.96114e-05 0 -0.0553659)
(0.000165721 0 -0.0550423)
(0.000234768 0 -0.0545462)
(0.000306801 0 -0.0538726)
(0.000381851 0 -0.0530176)
(0.000459911 0 -0.051978)
(0.000540935 0 -0.0507517)
(0.000624831 0 -0.0493376)
(0.000711471 0 -0.0477359)
(0.000800675 0 -0.0459485)
(0.00089217 0 -0.0439783)
(0.000985447 0 -0.0418278)
(0.00107113 0 -0.0397189)
(0.00114672 0 -0.0377566)
(0.00121874 0 -0.0357955)
(0.00128714 0 -0.0338468)
(0.00135181 0 -0.0319206)
(0.00141267 0 -0.0300258)
(0.00146968 0 -0.0281696)
(0.00152286 0 -0.026358)
(0.00157224 0 -0.0245956)
(0.00161791 0 -0.0228857)
(0.00165995 0 -0.021231)
(0.00169849 0 -0.0196332)
(0.00173365 0 -0.0180935)
(0.00176558 0 -0.0166124)
(0.00179443 0 -0.0151902)
(0.00182034 0 -0.0138269)
(0.00184348 0 -0.0125221)
(0.00186401 0 -0.0112755)
(0.0018821 0 -0.0100869)
(0.00189792 0 -0.00895579)
(0.00191164 0 -0.0078818)
(0.00192344 0 -0.00686445)
(0.00193348 0 -0.00590298)
(0.00194195 0 -0.00499626)
(0.00194904 0 -0.00414265)
(0.00195489 0 -0.00334018)
(0.00195961 0 -0.00258685)
(0.00196339 0 -0.00188018)
(0.00196746 0 -0.00122204)
(0.00196691 0 -0.000641099)
(-0.00123052 0 -0.00034866)
(-0.00122736 0 -0.000707037)
(-0.00122712 0 -0.00103198)
(-0.00122551 0 -0.00137539)
(-0.00122359 0 -0.00174166)
(-0.00122156 0 -0.00213448)
(-0.00121946 0 -0.00255556)
(-0.00121728 0 -0.00300526)
(-0.00121501 0 -0.00348348)
(-0.00121261 0 -0.00399028)
(-0.00121005 0 -0.00452606)
(-0.00120732 0 -0.00509142)
(-0.00120437 0 -0.00568713)
(-0.0012012 0 -0.0063141)
(-0.00119778 0 -0.00697336)
(-0.00119408 0 -0.00766613)
(-0.00119009 0 -0.00839374)
(-0.00118578 0 -0.0091577)
(-0.00118113 0 -0.00995965)
(-0.00117612 0 -0.0108014)
(-0.0011707 0 -0.0116848)
(-0.00116486 0 -0.012612)
(-0.00115855 0 -0.0135852)
(-0.00115173 0 -0.0146066)
(-0.00114435 0 -0.0156789)
(-0.00113636 0 -0.0168044)
(-0.00112768 0 -0.017986)
(-0.00111822 0 -0.0192265)
(-0.00110788 0 -0.0205291)
(-0.00109647 0 -0.0218971)
(-0.00108267 0 -0.0234533)
(-0.00106643 0 -0.0251575)
(-0.00104922 0 -0.0268535)
(-0.00103092 0 -0.0285417)
(-0.00101139 0 -0.0302208)
(-0.000990488 0 -0.0318886)
(-0.000968076 0 -0.0335422)
(-0.000944031 0 -0.0351782)
(-0.00091823 0 -0.0367931)
(-0.000890555 0 -0.0383824)
(-0.000860893 0 -0.0399417)
(-0.000829131 0 -0.0414659)
(-0.000795161 0 -0.0429494)
(-0.000758879 0 -0.0443865)
(-0.000720188 0 -0.0457708)
(-0.000678984 0 -0.0470958)
(-0.000635168 0 -0.0483543)
(-0.000588686 0 -0.0495393)
(-0.000539536 0 -0.0506431)
(-0.000487382 0 -0.0516574)
(-0.000432126 0 -0.0525738)
(-0.000374072 0 -0.0533841)
(-0.000312948 0 -0.0540805)
(-0.000248528 0 -0.0546548)
(-0.000180846 0 -0.0550989)
(-0.000109798 0 -0.0554045)
(-3.53526e-05 0 -0.055564)
(4.26014e-05 0 -0.0555699)
(0.000124119 0 -0.0554153)
(0.000209192 0 -0.0550938)
(0.000297866 0 -0.0545998)
(0.000390119 0 -0.0539284)
(0.000485899 0 -0.0530755)
(0.000585109 0 -0.0520381)