/*--------------------------------*- C++ -*----------------------------------*\
  =========                 |
  \\      /  F ield         | OpenFOAM: The Open Source CFD Toolbox
   \\    /   O peration     | Website:  https://openfoam.org
    \\  /    A nd           | Version:  9
     \\/     M anipulation  |
\*---------------------------------------------------------------------------*/
FoamFile
{
    format      ascii;
    class       surfaceVectorField;
    location    "0.01";
    object      Uf;
}
// * * * * * * * * * * * * * * * * * * * * * * * * * * * * * * * * * * * * * //

dimensions      [0 1 -1 0 0 0 0];

internalField   nonuniform List<vector> 
39700
(
(-6.65796e-06 0 -0.000482035)
(-2.57254e-05 0 -0.000315988)
(-6.28948e-06 0 -0.000813751)
(-2.3355e-05 0 -0.000655916)
(-6.1455e-06 0 -0.00114915)
(-2.30716e-05 0 -0.000979996)
(-6.01035e-06 0 -0.00150758)
(-2.27527e-05 0 -0.00132662)
(-5.86526e-06 0 -0.00189138)
(-2.23652e-05 0 -0.00169768)
(-5.71824e-06 0 -0.0023018)
(-2.20051e-05 0 -0.00209519)
(-5.56983e-06 0 -0.00273911)
(-2.16734e-05 0 -0.00251958)
(-5.40989e-06 0 -0.00320353)
(-2.13521e-05 0 -0.00297097)
(-5.23148e-06 0 -0.00369552)
(-2.10169e-05 0 -0.00344969)
(-5.03236e-06 0 -0.00421573)
(-2.0655e-05 0 -0.00395632)
(-4.81218e-06 0 -0.00476487)
(-2.02606e-05 0 -0.00449156)
(-4.57083e-06 0 -0.00534376)
(-1.98302e-05 0 -0.00505615)
(-4.30805e-06 0 -0.00595329)
(-1.93609e-05 0 -0.00565096)
(-4.02352e-06 0 -0.00659449)
(-1.88504e-05 0 -0.00627694)
(-3.7171e-06 0 -0.00726851)
(-1.82971e-05 0 -0.00693517)
(-3.3887e-06 0 -0.00797665)
(-1.76998e-05 0 -0.00762689)
(-3.03819e-06 0 -0.00872034)
(-1.70579e-05 0 -0.00835346)
(-2.66529e-06 0 -0.00950115)
(-1.63708e-05 0 -0.00911638)
(-2.26957e-06 0 -0.0103208)
(-1.56375e-05 0 -0.00991731)
(-1.85038e-06 0 -0.0111811)
(-1.48571e-05 0 -0.010758)
(-1.4068e-06 0 -0.0120842)
(-1.40282e-05 0 -0.0116405)
(-9.37594e-07 0 -0.013032)
(-1.31484e-05 0 -0.0125667)
(-4.41308e-07 0 -0.0140268)
(-1.22154e-05 0 -0.0135388)
(8.36445e-08 0 -0.0150711)
(-1.1226e-05 0 -0.0145592)
(6.38923e-07 0 -0.0161673)
(-1.01769e-05 0 -0.0156304)
(1.22624e-06 0 -0.017318)
(-9.06474e-06 0 -0.0167548)
(1.84748e-06 0 -0.018526)
(-7.8862e-06 0 -0.0179351)
(2.50509e-06 0 -0.0197943)
(-6.63817e-06 0 -0.0191743)
(3.20348e-06 0 -0.0211259)
(-5.31296e-06 0 -0.0204754)
(3.94334e-06 0 -0.0225226)
(-3.88582e-06 0 -0.0218414)
(4.76157e-06 0 -0.0242271)
(-2.32481e-06 0 -0.0233948)
(5.60559e-06 0 -0.0259238)
(-6.53123e-07 0 -0.025097)
(6.44696e-06 0 -0.0276125)
(1.06058e-06 0 -0.0267912)
(7.27319e-06 0 -0.0292925)
(2.7616e-06 0 -0.0284773)
(8.07582e-06 0 -0.0309621)
(4.43555e-06 0 -0.0301541)
(8.84661e-06 0 -0.0326189)
(6.07077e-06 0 -0.0318193)
(9.57693e-06 0 -0.0342597)
(7.65391e-06 0 -0.0334704)
(1.02572e-05 0 -0.0358811)
(9.16998e-06 0 -0.0351038)
(1.08772e-05 0 -0.0374792)
(1.06022e-05 0 -0.036716)
(1.14256e-05 0 -0.0390496)
(1.19322e-05 0 -0.0383026)
(1.18907e-05 0 -0.0405873)
(1.31403e-05 0 -0.0398593)
(1.22601e-05 0 -0.0420873)
(1.42053e-05 0 -0.0413808)
(1.2521e-05 0 -0.0435439)
(1.51056e-05 0 -0.0428617)
(1.26608e-05 0 -0.0449509)
(1.58189e-05 0 -0.0442963)
(1.26672e-05 0 -0.046302)
(1.63235e-05 0 -0.0456781)
(1.25284e-05 0 -0.0475902)
(1.65988e-05 0 -0.0470006)
(1.22348e-05 0 -0.0488086)
(1.66268e-05 0 -0.0482568)
(1.17773e-05 0 -0.0499496)
(1.63908e-05 0 -0.0494394)
(1.11343e-05 0 -0.0510056)
(1.58602e-05 0 -0.0505409)
(1.03012e-05 0 -0.0519677)
(1.50222e-05 0 -0.0515531)
(9.29418e-06 0 -0.0528274)
(1.38862e-05 0 -0.0524667)
(8.12347e-06 0 -0.053577)
(1.24639e-05 0 -0.053274)
(6.78402e-06 0 -0.0542085)
(1.07669e-05 0 -0.0539672)
(5.27757e-06 0 -0.0547134)
(8.80017e-06 0 -0.054538)
(3.62093e-06 0 -0.0550836)
(6.57891e-06 0 -0.054978)
(1.83176e-06 0 -0.0553108)
(4.13142e-06 0 -0.055279)
(-6.8879e-08 0 -0.0553876)
(1.49627e-06 0 -0.0554331)
(-2.05023e-06 0 -0.0553066)
(-1.28103e-06 0 -0.0554329)
(-4.08188e-06 0 -0.0550612)
(-4.14476e-06 0 -0.0552713)
(-6.12693e-06 0 -0.0546453)
(-7.03199e-06 0 -0.0549419)
(-8.14522e-06 0 -0.0540537)
(-9.87389e-06 0 -0.0544392)
(-1.00934e-05 0 -0.0532819)
(-1.25952e-05 0 -0.0537581)
(-1.19267e-05 0 -0.0523263)
(-1.51167e-05 0 -0.0528946)
(-1.36e-05 0 -0.0511845)
(-1.73578e-05 0 -0.0518459)
(-1.50682e-05 0 -0.0498548)
(-1.92384e-05 0 -0.0506096)
(-1.62853e-05 0 -0.048337)
(-2.06787e-05 0 -0.049185)
(-1.72041e-05 0 -0.0466322)
(-2.15966e-05 0 -0.0475721)
(-1.77845e-05 0 -0.0447431)
(-2.19113e-05 0 -0.0457731)
(-1.80129e-05 0 -0.0426733)
(-2.1569e-05 0 -0.0437915)
(-1.79075e-05 0 -0.0404299)
(-2.06127e-05 0 -0.0416308)
(-1.7428e-05 0 -0.0384719)
(-1.90999e-05 0 -0.0395145)
(-1.67369e-05 0 -0.0365059)
(-1.71762e-05 0 -0.0375461)
(-1.58642e-05 0 -0.0345478)
(-1.49725e-05 0 -0.0355796)
(-1.48289e-05 0 -0.0326084)
(-1.25055e-05 0 -0.0336266)
(-1.36602e-05 0 -0.0306975)
(-9.81559e-06 0 -0.0316975)
(-1.23876e-05 0 -0.028823)
(-6.95889e-06 0 -0.0298011)
(-1.104e-05 0 -0.0269915)
(-3.9894e-06 0 -0.0279448)
(-9.64099e-06 0 -0.0252081)
(-9.54905e-07 0 -0.0261343)
(-8.2116e-06 0 -0.0234768)
(2.10523e-06 0 -0.0243741)
(-6.76994e-06 0 -0.0218004)
(5.15633e-06 0 -0.0226676)
(-5.33177e-06 0 -0.0201811)
(8.1685e-06 0 -0.0210173)
(-3.91064e-06 0 -0.0186202)
(1.11161e-05 0 -0.019425)
(-2.51799e-06 0 -0.0171185)
(1.39776e-05 0 -0.0178917)
(-1.16337e-06 0 -0.0156765)
(1.67351e-05 0 -0.0164179)
(1.45582e-07 0 -0.014294)
(1.93741e-05 0 -0.0150038)
(1.40299e-06 0 -0.0129709)
(2.18839e-05 0 -0.0136492)
(2.60469e-06 0 -0.0117067)
(2.42569e-05 0 -0.0123539)
(3.74815e-06 0 -0.010501)
(2.64889e-05 0 -0.0111174)
(4.83226e-06 0 -0.00935344)
(2.85789e-05 0 -0.00993919)
(5.85697e-06 0 -0.00826347)
(3.05285e-05 0 -0.0088189)
(6.82303e-06 0 -0.0072306)
(3.2341e-05 0 -0.00775602)
(7.73137e-06 0 -0.0062542)
(3.4021e-05 0 -0.00675)
(8.58113e-06 0 -0.00533338)
(3.55719e-05 0 -0.00580013)
(9.36555e-06 0 -0.00446676)
(3.69907e-05 0 -0.00490533)
(1.00705e-05 0 -0.00365213)
(3.82633e-05 0 -0.00406387)
(1.06876e-05 0 -0.00288629)
(3.93736e-05 0 -0.00327306)
(1.12463e-05 0 -0.00216533)
(4.03432e-05 0 -0.00252929)
(1.18924e-05 0 -0.00148664)
(4.11844e-05 0 -0.00182883)
(1.34438e-05 0 -0.000858055)
(4.289e-05 0 -0.00117254)
(4.80185e-05 0 -0.000584114)
(-4.2192e-05 0 -0.000481948)
(-7.19939e-05 0 -0.000318904)
(-4.07244e-05 0 -0.000814805)
(-6.80372e-05 0 -0.000660483)
(-3.98118e-05 0 -0.00114973)
(-6.70858e-05 0 -0.000982706)
(-3.91237e-05 0 -0.00150856)
(-6.61523e-05 0 -0.00132857)
(-3.85176e-05 0 -0.00189288)
(-6.52449e-05 0 -0.00169932)
(-3.79743e-05 0 -0.00230389)
(-6.44417e-05 0 -0.0020966)
(-3.74731e-05 0 -0.00274191)
(-6.3731e-05 0 -0.00252082)
(-3.69772e-05 0 -0.00320716)
(-6.3062e-05 0 -0.00297213)
(-3.64586e-05 0 -0.00370009)
(-6.23871e-05 0 -0.00345085)
(-3.59017e-05 0 -0.00422131)
(-6.16794e-05 0 -0.00395751)
(-3.52975e-05 0 -0.00477156)
(-6.09235e-05 0 -0.00449278)
(-3.46398e-05 0 -0.00535164)
(-6.01083e-05 0 -0.00505742)
(-3.39234e-05 0 -0.00596244)
(-5.9225e-05 0 -0.00565227)
(-3.31445e-05 0 -0.00660499)
(-5.82668e-05 0 -0.00627829)
(-3.23008e-05 0 -0.00728046)
(-5.72282e-05 0 -0.00693657)
(-3.13904e-05 0 -0.00799012)
(-5.61055e-05 0 -0.00762832)
(-3.04122e-05 0 -0.00873542)
(-5.4896e-05 0 -0.00835493)
(-2.93652e-05 0 -0.00951795)
(-5.35972e-05 0 -0.00911788)
(-2.82479e-05 0 -0.0103394)
(-5.22071e-05 0 -0.00991884)
(-2.70587e-05 0 -0.0112016)
(-5.0723e-05 0 -0.0107596)
(-2.57947e-05 0 -0.0121067)
(-4.91415e-05 0 -0.011642)
(-2.44526e-05 0 -0.0130566)
(-4.74582e-05 0 -0.0125683)
(-2.30279e-05 0 -0.0140537)
(-4.56678e-05 0 -0.0135404)
(-2.1516e-05 0 -0.0151003)
(-4.37641e-05 0 -0.0145609)
(-1.99118e-05 0 -0.0161989)
(-4.17407e-05 0 -0.015632)
(-1.82101e-05 0 -0.0173522)
(-3.95907e-05 0 -0.0167564)
(-1.64056e-05 0 -0.018563)
(-3.73078e-05 0 -0.0179368)
(-1.44912e-05 0 -0.0198341)
(-3.48882e-05 0 -0.019176)
(-1.2456e-05 0 -0.0211687)
(-3.23282e-05 0 -0.0204771)
(-1.02794e-05 0 -0.0225686)
(-2.95823e-05 0 -0.0218431)
(-7.76722e-06 0 -0.024277)
(-2.64514e-05 0 -0.0233965)
(-5.19277e-06 0 -0.0259775)
(-2.30177e-05 0 -0.0250988)
(-2.62026e-06 0 -0.0276699)
(-1.95526e-05 0 -0.0267929)
(-6.9902e-08 0 -0.0293536)
(-1.61126e-05 0 -0.028479)
(2.43923e-06 0 -0.0310269)
(-1.27011e-05 0 -0.0301557)
(4.88971e-06 0 -0.0326872)
(-9.33272e-06 0 -0.031821)
(7.26213e-06 0 -0.0343317)
(-6.0277e-06 0 -0.0334719)
(9.53414e-06 0 -0.0359566)
(-2.8097e-06 0 -0.0351053)
(1.16809e-05 0 -0.0375582)
(2.94119e-07 0 -0.0367174)
(1.36752e-05 0 -0.0391319)
(3.25327e-06 0 -0.038304)
(1.54883e-05 0 -0.040673)
(6.03457e-06 0 -0.0398605)
(1.70895e-05 0 -0.0421763)
(8.60296e-06 0 -0.0413818)
(1.84472e-05 0 -0.043636)
(1.09219e-05 0 -0.0428626)
(1.95304e-05 0 -0.045046)
(1.29538e-05 0 -0.044297)
(2.03089e-05 0 -0.0464)
(1.46619e-05 0 -0.0456786)
(2.07541e-05 0 -0.0476911)
(1.60116e-05 0 -0.0470009)
(2.08424e-05 0 -0.0489121)
(1.69746e-05 0 -0.0482569)
(2.05517e-05 0 -0.0500556)
(1.75221e-05 0 -0.0494392)
(1.98292e-05 0 -0.0511139)
(1.75922e-05 0 -0.0505404)
(1.8664e-05 0 -0.0520781)
(1.72046e-05 0 -0.0515523)
(1.71022e-05 0 -0.0529397)
(1.63529e-05 0 -0.0524657)
(1.51627e-05 0 -0.0536909)
(1.50146e-05 0 -0.0532727)
(1.284e-05 0 -0.0543238)
(1.32564e-05 0 -0.0539656)
(1.01482e-05 0 -0.0548299)
(1.10923e-05 0 -0.0545362)
(7.13011e-06 0 -0.0552009)
(8.53747e-06 0 -0.054976)
(3.82605e-06 0 -0.0554288)
(5.64804e-06 0 -0.0552768)
(3.00076e-07 0 -0.0555059)
(2.49713e-06 0 -0.0554308)
(-3.37389e-06 0 -0.0554249)
(-8.35831e-07 0 -0.0554304)
(-7.10895e-06 0 -0.0551792)
(-4.25146e-06 0 -0.0552688)
(-1.08109e-05 0 -0.0547627)
(-7.63606e-06 0 -0.0549394)
(-1.43755e-05 0 -0.0541701)
(-1.08677e-05 0 -0.0544368)
(-1.76899e-05 0 -0.0533969)
(-1.38136e-05 0 -0.0537558)
(-2.06388e-05 0 -0.0524397)
(-1.63347e-05 0 -0.0528927)
(-2.31067e-05 0 -0.0512958)
(-1.82897e-05 0 -0.0518442)
(-2.49786e-05 0 -0.0499638)
(-1.95392e-05 0 -0.0506084)
(-2.61394e-05 0 -0.0484432)
(-1.99456e-05 0 -0.0491842)
(-2.64711e-05 0 -0.0467352)
(-1.93687e-05 0 -0.0475719)
(-2.58771e-05 0 -0.0448427)
(-1.76676e-05 0 -0.0457735)
(-2.43102e-05 0 -0.042769)
(-1.47194e-05 0 -0.0437926)
(-2.18532e-05 0 -0.040521)
(-1.05616e-05 0 -0.0416325)
(-1.88707e-05 0 -0.0385589)
(-5.70938e-06 0 -0.039517)
(-1.54508e-05 0 -0.0365889)
(-5.35847e-07 0 -0.037549)
(-1.16399e-05 0 -0.0346268)
(5.06164e-06 0 -0.035583)
(-7.49778e-06 0 -0.0326836)
(1.10549e-05 0 -0.0336306)
(-3.10256e-06 0 -0.0307687)
(1.73467e-05 0 -0.0317019)
(1.46313e-06 0 -0.0288904)
(2.38298e-05 0 -0.0298058)
(6.13024e-06 0 -0.0270552)
(3.04073e-05 0 -0.0279498)
(1.08356e-05 0 -0.0252681)
(3.69952e-05 0 -0.0261396)
(1.55254e-05 0 -0.0235332)
(4.35237e-05 0 -0.0243796)
(2.01535e-05 0 -0.0218533)
(4.99322e-05 0 -0.0226733)
(2.46802e-05 0 -0.0202306)
(5.61692e-05 0 -0.0210232)
(2.90719e-05 0 -0.0186665)
(6.21917e-05 0 -0.019431)
(3.33004e-05 0 -0.0171617)
(6.79638e-05 0 -0.0178977)
(3.73431e-05 0 -0.0157167)
(7.34567e-05 0 -0.0164239)
(4.11826e-05 0 -0.0143313)
(7.86483e-05 0 -0.0150098)
(4.48064e-05 0 -0.0130054)
(8.35225e-05 0 -0.0136553)
(4.82071e-05 0 -0.0117386)
(8.80697e-05 0 -0.0123599)
(5.1382e-05 0 -0.0105304)
(9.22862e-05 0 -0.0111232)
(5.43329e-05 0 -0.00938047)
(9.6174e-05 0 -0.00994494)
(5.70648e-05 0 -0.00828823)
(9.97395e-05 0 -0.0088245)
(5.95848e-05 0 -0.00725321)
(0.000102992 0 -0.00776147)
(6.19002e-05 0 -0.00627475)
(0.000105943 0 -0.00675527)
(6.40132e-05 0 -0.00535194)
(0.0001086 0 -0.00580519)
(6.59124e-05 0 -0.00448334)
(0.000110959 0 -0.00491011)
(6.75755e-05 0 -0.00366674)
(0.000113002 0 -0.00406827)
(6.90135e-05 0 -0.00289902)
(0.000114721 0 -0.00327705)
(7.03601e-05 0 -0.00217676)
(0.000116188 0 -0.0025332)
(7.19718e-05 0 -0.00149978)
(0.000117484 0 -0.00183369)
(7.50319e-05 0 -0.000885203)
(0.000119666 0 -0.00118211)
(0.000124858 0 -0.00060948)
(-9.73894e-05 0 -0.000489159)
(-0.000135539 0 -0.000324993)
(-9.52391e-05 0 -0.000820728)
(-0.000131593 0 -0.000667176)
(-9.35801e-05 0 -0.00115373)
(-0.000130163 0 -0.000987634)
(-9.22884e-05 0 -0.00151144)
(-0.000128641 0 -0.00133224)
(-9.11892e-05 0 -0.00189511)
(-0.000127241 0 -0.0017023)
(-9.02269e-05 0 -0.0023056)
(-0.000126038 0 -0.00209908)
(-8.93501e-05 0 -0.00274321)
(-0.000124979 0 -0.00252298)
(-8.85017e-05 0 -0.00320815)
(-0.000123981 0 -0.00297412)
(-8.76382e-05 0 -0.00370082)
(-0.000122983 0 -0.00345278)
(-8.67323e-05 0 -0.00422182)
(-0.000121948 0 -0.00395943)
(-8.57665e-05 0 -0.00477184)
(-0.000120853 0 -0.00449473)
(-8.47271e-05 0 -0.00535169)
(-0.000119681 0 -0.00505941)
(-8.36034e-05 0 -0.00596226)
(-0.000118418 0 -0.00565432)
(-8.23867e-05 0 -0.00660457)
(-0.000117055 0 -0.0062804)
(-8.10703e-05 0 -0.00727977)
(-0.00011558 0 -0.00693874)
(-7.96494e-05 0 -0.00798917)
(-0.000113989 0 -0.00763056)
(-7.81204e-05 0 -0.00873419)
(-0.000112274 0 -0.00835723)
(-7.64799e-05 0 -0.00951641)
(-0.000110431 0 -0.00912024)
(-7.47245e-05 0 -0.0103376)
(-0.000108456 0 -0.00992126)
(-7.28501e-05 0 -0.0111995)
(-0.000106343 0 -0.0107621)
(-7.08516e-05 0 -0.0121041)
(-0.000104087 0 -0.0116446)
(-6.8723e-05 0 -0.0130537)
(-0.000101681 0 -0.0125708)
(-6.64568e-05 0 -0.0140504)
(-9.91152e-05 0 -0.013543)
(-6.40449e-05 0 -0.0150966)
(-9.63807e-05 0 -0.0145635)
(-6.14791e-05 0 -0.0161948)
(-9.34675e-05 0 -0.0156347)
(-5.87515e-05 0 -0.0173476)
(-9.03654e-05 0 -0.0167592)
(-5.58548e-05 0 -0.0185579)
(-8.70647e-05 0 -0.0179396)
(-5.27808e-05 0 -0.0198285)
(-8.35599e-05 0 -0.0191788)
(-4.95341e-05 0 -0.0211626)
(-7.98578e-05 0 -0.0204799)
(-4.61382e-05 0 -0.022562)
(-7.59129e-05 0 -0.0218459)
(-4.16955e-05 0 -0.0242698)
(-7.12468e-05 0 -0.0233994)
(-3.73619e-05 0 -0.0259695)
(-6.60165e-05 0 -0.0251016)
(-3.30468e-05 0 -0.0276611)
(-6.08086e-05 0 -0.0267958)
(-2.87451e-05 0 -0.0293439)
(-5.56235e-05 0 -0.0284818)
(-2.44728e-05 0 -0.0310163)
(-5.04399e-05 0 -0.0301586)
(-2.02478e-05 0 -0.0326759)
(-4.52701e-05 0 -0.0318238)
(-1.60941e-05 0 -0.0343194)
(-4.01348e-05 0 -0.0334747)
(-1.20405e-05 0 -0.0359435)
(-3.50602e-05 0 -0.035108)
(-8.12005e-06 0 -0.0375441)
(-3.00782e-05 0 -0.03672)
(-4.36915e-06 0 -0.0391169)
(-2.52252e-05 0 -0.0383065)
(-8.27122e-07 0 -0.0406571)
(-2.05413e-05 0 -0.0398628)
(2.46422e-06 0 -0.0421593)
(-1.60689e-05 0 -0.041384)
(5.46245e-06 0 -0.043618)
(-1.18525e-05 0 -0.0428646)
(8.12466e-06 0 -0.0450271)
(-7.93811e-06 0 -0.0442988)
(1.04098e-05 0 -0.0463801)
(-4.37114e-06 0 -0.0456802)
(1.22796e-05 0 -0.0476702)
(-1.19331e-06 0 -0.0470022)
(1.37006e-05 0 -0.0488902)
(1.56221e-06 0 -0.0482578)
(1.46468e-05 0 -0.0500328)
(3.86259e-06 0 -0.0494398)
(1.50699e-05 0 -0.0510901)
(5.61475e-06 0 -0.0505407)
(1.49191e-05 0 -0.0520534)
(6.89917e-06 0 -0.0515522)
(1.42752e-05 0 -0.0529141)
(7.68246e-06 0 -0.0524653)
(1.31474e-05 0 -0.0536646)
(7.88201e-06 0 -0.0532719)
(1.15479e-05 0 -0.0542967)
(7.64368e-06 0 -0.0539646)
(9.5091e-06 0 -0.0548021)
(6.97745e-06 0 -0.0545348)
(7.07784e-06 0 -0.0551726)
(5.90108e-06 0 -0.0549744)
(4.32738e-06 0 -0.0554)
(4.5024e-06 0 -0.0552749)
(1.35319e-06 0 -0.0554768)
(2.87303e-06 0 -0.0554288)
(-1.7375e-06 0 -0.0553956)
(1.1213e-06 0 -0.0554283)
(-4.8205e-06 0 -0.0551499)
(-6.22809e-07 0 -0.0552667)
(-7.75693e-06 0 -0.0547335)
(-2.2079e-06 0 -0.0549375)
(-1.03927e-05 0 -0.0541412)
(-3.47414e-06 0 -0.054435)
(-1.25674e-05 0 -0.0533686)
(-4.24952e-06 0 -0.0537544)
(-1.41165e-05 0 -0.0524121)
(-4.3532e-06 0 -0.0528916)
(-1.48743e-05 0 -0.0512691)
(-3.60378e-06 0 -0.0518437)
(-1.46787e-05 0 -0.0499382)
(-1.82315e-06 0 -0.0506085)
(-1.33669e-05 0 -0.0484189)
(1.16235e-06 0 -0.049185)
(-1.07705e-05 0 -0.0467123)
(5.52881e-06 0 -0.0475736)
(-6.73988e-06 0 -0.0448214)
(1.14519e-05 0 -0.0457762)
(-1.20462e-06 0 -0.0427494)
(1.91149e-05 0 -0.0437963)
(6.00658e-06 0 -0.040503)
(2.85491e-05 0 -0.0416373)
(1.26609e-05 0 -0.0385421)
(3.843e-05 0 -0.0395224)
(1.99916e-05 0 -0.0365735)
(4.80982e-05 0 -0.0375553)
(2.78113e-05 0 -0.0346128)
(5.82204e-05 0 -0.0355901)
(3.59822e-05 0 -0.0326708)
(6.87331e-05 0 -0.0336383)
(4.43821e-05 0 -0.0307573)
(7.94741e-05 0 -0.0317102)
(5.28915e-05 0 -0.0288801)
(9.02968e-05 0 -0.0298147)
(6.14019e-05 0 -0.027046)
(0.000101074 0 -0.0279591)
(6.98228e-05 0 -0.02526)
(0.000111698 0 -0.0261491)
(7.80772e-05 0 -0.023526)
(0.000122075 0 -0.0243894)
(8.60997e-05 0 -0.021847)
(0.00013213 0 -0.0226833)
(9.38353e-05 0 -0.0202251)
(0.000141797 0 -0.0210333)
(0.000101239 0 -0.0186618)
(0.000151026 0 -0.0194411)
(0.000108274 0 -0.0171577)
(0.000159776 0 -0.0179078)
(0.000114912 0 -0.0157133)
(0.000168015 0 -0.016434)
(0.000121133 0 -0.0143285)
(0.000175721 0 -0.0150197)
(0.000126923 0 -0.0130031)
(0.000182881 0 -0.0136649)
(0.000132278 0 -0.0117367)
(0.000189489 0 -0.0123693)
(0.000137198 0 -0.010529)
(0.000195547 0 -0.0111323)
(0.00014169 0 -0.00937939)
(0.000201065 0 -0.00995369)
(0.000145766 0 -0.00828747)
(0.000206058 0 -0.00883286)
(0.000149437 0 -0.00725273)
(0.000210542 0 -0.00776939)
(0.000152717 0 -0.0062745)
(0.000214536 0 -0.00676273)
(0.000155609 0 -0.00535183)
(0.000218056 0 -0.0058121)
(0.000158101 0 -0.00448325)
(0.000221102 0 -0.00491637)
(0.000160178 0 -0.00366658)
(0.000223661 0 -0.00407375)
(0.000161885 0 -0.00289901)
(0.00022575 0 -0.00328178)
(0.000163433 0 -0.00217767)
(0.000227501 0 -0.00253768)
(0.000165201 0 -0.00150347)
(0.000229123 0 -0.00183901)
(0.000167618 0 -0.000894545)
(0.000231329 0 -0.00118968)
(0.000234226 0 -0.000620299)
(-0.000169441 0 -0.000494932)
(-0.000217045 0 -0.000329581)
(-0.000167321 0 -0.000826575)
(-0.000213515 0 -0.000673776)
(-0.000165328 0 -0.00115812)
(-0.000211962 0 -0.000993554)
(-0.000163601 0 -0.00151455)
(-0.000210031 0 -0.00133713)
(-0.00016212 0 -0.00189722)
(-0.000208238 0 -0.0017063)
(-0.000160829 0 -0.00230691)
(-0.000206707 0 -0.00210241)
(-0.000159647 0 -0.00274388)
(-0.00020535 0 -0.00252588)
(-0.0001585 0 -0.0032083)
(-0.000204064 0 -0.00297681)
(-0.000157331 0 -0.00370052)
(-0.000202774 0 -0.00345538)
(-0.000156108 0 -0.00422108)
(-0.000201435 0 -0.00396202)
(-0.000154808 0 -0.00477066)
(-0.000200022 0 -0.00449735)
(-0.000153415 0 -0.00535005)
(-0.000198513 0 -0.00506208)
(-0.000151914 0 -0.00596014)
(-0.000196894 0 -0.00565705)
(-0.000150295 0 -0.00660193)
(-0.000195151 0 -0.00628321)
(-0.000148547 0 -0.00727658)
(-0.000193273 0 -0.00694163)
(-0.000146663 0 -0.00798538)
(-0.000191249 0 -0.00763354)
(-0.000144636 0 -0.00872976)
(-0.000189071 0 -0.00836028)
(-0.000142462 0 -0.00951129)
(-0.000186733 0 -0.00912338)
(-0.000140132 0 -0.0103317)
(-0.000184227 0 -0.00992447)
(-0.000137641 0 -0.0111928)
(-0.000181545 0 -0.0107653)
(-0.000134981 0 -0.0120967)
(-0.000178678 0 -0.0116479)
(-0.000132142 0 -0.0130453)
(-0.000175615 0 -0.0125742)
(-0.000129113 0 -0.0140411)
(-0.000172345 0 -0.0135465)
(-0.000125882 0 -0.0150863)
(-0.000168853 0 -0.0145671)
(-0.000122438 0 -0.0161834)
(-0.000165126 0 -0.0156383)
(-0.000118768 0 -0.0173352)
(-0.000161149 0 -0.0167628)
(-0.000114865 0 -0.0185443)
(-0.000156908 0 -0.0179432)
(-0.00011072 0 -0.0198137)
(-0.00015239 0 -0.0191825)
(-0.000106323 0 -0.0211464)
(-0.000147595 0 -0.0204837)
(-0.000101638 0 -0.0225445)
(-0.000142482 0 -0.0218497)
(-9.55278e-05 0 -0.0242506)
(-0.000136379 0 -0.0234035)
(-8.94582e-05 0 -0.0259486)
(-0.000129475 0 -0.0251057)
(-8.33993e-05 0 -0.0276386)
(-0.000122577 0 -0.0267998)
(-7.73311e-05 0 -0.0293199)
(-0.000115647 0 -0.0284859)
(-7.12509e-05 0 -0.0309907)
(-0.000108658 0 -0.0301626)
(-6.51705e-05 0 -0.0326486)
(-0.000101619 0 -0.0318279)
(-5.9113e-05 0 -0.0342906)
(-9.45448e-05 0 -0.0334788)
(-5.31082e-05 0 -0.0359131)
(-8.74594e-05 0 -0.035112)
(-4.71915e-05 0 -0.0375121)
(-8.03935e-05 0 -0.036724)
(-4.14025e-05 0 -0.0390834)
(-7.33836e-05 0 -0.0383103)
(-3.57845e-05 0 -0.0406219)
(-6.64701e-05 0 -0.0398665)
(-3.0384e-05 0 -0.0421226)
(-5.96965e-05 0 -0.0413876)
(-2.52487e-05 0 -0.0435798)
(-5.31086e-05 0 -0.042868)
(-2.04258e-05 0 -0.0449874)
(-4.67545e-05 0 -0.0443019)
(-1.59612e-05 0 -0.0463388)
(-4.0681e-05 0 -0.0456831)
(-1.18976e-05 0 -0.0476274)
(-3.4931e-05 0 -0.0470049)
(-8.27159e-06 0 -0.048846)
(-2.95382e-05 0 -0.0482602)
(-5.11082e-06 0 -0.0499872)
(-2.45326e-05 0 -0.0494419)
(-2.45001e-06 0 -0.0510431)
(-2.00354e-05 0 -0.0505424)
(-3.72696e-07 0 -0.0520052)
(-1.59005e-05 0 -0.0515536)
(1.23562e-06 0 -0.0528648)
(-1.21581e-05 0 -0.0524663)
(2.37059e-06 0 -0.0536143)
(-8.97866e-06 0 -0.0532727)
(3.06603e-06 0 -0.0542455)
(-6.1654e-06 0 -0.053965)
(3.36172e-06 0 -0.0547503)
(-3.67634e-06 0 -0.054535)
(3.31229e-06 0 -0.0551202)
(-1.49127e-06 0 -0.0549743)
(3.01855e-06 0 -0.0553473)
(4.90276e-07 0 -0.0552747)
(2.59984e-06 0 -0.0554239)
(2.37556e-06 0 -0.0554285)
(2.18307e-06 0 -0.0553429)
(4.29686e-06 0 -0.055428)
(1.92352e-06 0 -0.0550976)
(6.40077e-06 0 -0.0552665)
(1.98965e-06 0 -0.0546819)
(8.86418e-06 0 -0.0549375)
(2.56623e-06 0 -0.0540905)
(1.18704e-05 0 -0.0544354)
(3.84552e-06 0 -0.0533192)
(1.56146e-05 0 -0.0537552)
(6.02414e-06 0 -0.0523642)
(2.03017e-05 0 -0.0528931)
(9.29695e-06 0 -0.0512231)
(2.6134e-05 0 -0.0518459)
(1.38533e-05 0 -0.0498942)
(3.33078e-05 0 -0.0506115)
(1.98808e-05 0 -0.0483774)
(4.2012e-05 0 -0.0491891)
(2.75738e-05 0 -0.0466736)
(5.24361e-05 0 -0.0475787)
(3.71134e-05 0 -0.0447856)
(6.47621e-05 0 -0.0457825)
(4.86058e-05 0 -0.0427169)
(7.91663e-05 0 -0.0438039)
(6.20602e-05 0 -0.040474)
(9.56938e-05 0 -0.0416463)
(7.40035e-05 0 -0.0385162)
(0.000112205 0 -0.0395322)
(8.64767e-05 0 -0.0365505)
(0.000127789 0 -0.037566)
(9.93411e-05 0 -0.0345925)
(0.000143674 0 -0.0356016)
(0.000112443 0 -0.0326533)
(0.000159758 0 -0.0336506)
(0.00012562 0 -0.0307422)
(0.000175852 0 -0.0317232)
(0.000138723 0 -0.0288675)
(0.00019179 0 -0.0298282)
(0.000151621 0 -0.0270355)
(0.000207427 0 -0.027973)
(0.000164204 0 -0.0252515)
(0.00022264 0 -0.0261634)
(0.000176383 0 -0.0235194)
(0.000237325 0 -0.0244039)
(0.000188081 0 -0.0218422)
(0.0002514 0 -0.0226979)
(0.000199238 0 -0.0202219)
(0.000264799 0 -0.0210479)
(0.000209806 0 -0.01866)
(0.000277472 0 -0.0194556)
(0.00021975 0 -0.0171572)
(0.000289382 0 -0.0179222)
(0.000229045 0 -0.0157139)
(0.000300504 0 -0.0164481)
(0.000237678 0 -0.0143301)
(0.000310825 0 -0.0150335)
(0.000245641 0 -0.0130055)
(0.000320342 0 -0.0136783)
(0.000252939 0 -0.0117399)
(0.00032906 0 -0.0123821)
(0.000259581 0 -0.0105327)
(0.000336992 0 -0.0111446)
(0.000265584 0 -0.0093835)
(0.000344161 0 -0.00996536)
(0.000270971 0 -0.0082919)
(0.000350592 0 -0.00884387)
(0.000275763 0 -0.00725735)
(0.000356316 0 -0.00777968)
(0.000279984 0 -0.00627917)
(0.000361362 0 -0.00677225)
(0.000283645 0 -0.00535639)
(0.000365756 0 -0.00582078)
(0.000286748 0 -0.00448754)
(0.000369513 0 -0.00492409)
(0.000289303 0 -0.00367053)
(0.000372634 0 -0.00408043)
(0.000291399 0 -0.00290291)
(0.000375162 0 -0.00328753)
(0.000293274 0 -0.00218233)
(0.000377249 0 -0.00254305)
(0.00029522 0 -0.00150952)
(0.000379144 0 -0.00184483)
(0.000297246 0 -0.000901555)
(0.000381505 0 -0.00119601)
(0.000382802 0 -0.000625915)
(-0.000261004 0 -0.000500141)
(-0.000318711 0 -0.000333484)
(-0.000258967 0 -0.000832971)
(-0.000315297 0 -0.000680119)
(-0.000256752 0 -0.0011641)
(-0.000313753 0 -0.00100013)
(-0.000254681 0 -0.00151966)
(-0.000311564 0 -0.001343)
(-0.000252865 0 -0.00190149)
(-0.000309483 0 -0.00171121)
(-0.000251271 0 -0.00231057)
(-0.000307679 0 -0.00210652)
(-0.000249807 0 -0.00274718)
(-0.000306062 0 -0.00252948)
(-0.000248378 0 -0.00321143)
(-0.000304519 0 -0.00298016)
(-0.00024692 0 -0.00370357)
(-0.000302965 0 -0.00345863)
(-0.000245394 0 -0.0042241)
(-0.00030135 0 -0.00396526)
(-0.000243774 0 -0.00477368)
(-0.000299643 0 -0.00450061)
(-0.000242043 0 -0.00535307)
(-0.000297822 0 -0.0050654)
(-0.000240184 0 -0.00596316)
(-0.000295873 0 -0.00566045)
(-0.000238184 0 -0.00660495)
(-0.000293779 0 -0.00628669)
(-0.000236032 0 -0.00727959)
(-0.000291526 0 -0.0069452)
(-0.000233717 0 -0.00798837)
(-0.000289105 0 -0.0076372)
(-0.000231231 0 -0.00873272)
(-0.000286504 0 -0.00836404)
(-0.000228565 0 -0.0095142)
(-0.000283712 0 -0.00912722)
(-0.00022571 0 -0.0103345)
(-0.000280722 0 -0.00992841)
(-0.000222656 0 -0.0111956)
(-0.00027752 0 -0.0107694)
(-0.000219392 0 -0.0120993)
(-0.000274096 0 -0.011652)
(-0.000215904 0 -0.0130479)
(-0.000270433 0 -0.0125784)
(-0.000212177 0 -0.0140435)
(-0.000266518 0 -0.0135508)
(-0.000208195 0 -0.0150885)
(-0.000262332 0 -0.0145714)
(-0.000203942 0 -0.0161855)
(-0.000257856 0 -0.0156427)
(-0.000199402 0 -0.017337)
(-0.00025307 0 -0.0167673)
(-0.000194558 0 -0.0185459)
(-0.000247955 0 -0.0179478)
(-0.000189395 0 -0.019815)
(-0.000242487 0 -0.0191871)
(-0.000183874 0 -0.0211476)
(-0.000236643 0 -0.0204884)
(-0.00017791 0 -0.0225453)
(-0.000230376 0 -0.0218546)
(-0.00017033 0 -0.024251)
(-0.000222928 0 -0.0234086)
(-0.000162625 0 -0.0259488)
(-0.000214476 0 -0.0251108)
(-0.000154852 0 -0.0276385)
(-0.000205929 0 -0.026805)
(-0.000147 0 -0.0293196)
(-0.000197247 0 -0.0284912)
(-0.000139055 0 -0.0309902)
(-0.000188413 0 -0.030168)
(-0.000131023 0 -0.0326479)
(-0.000179425 0 -0.0318332)
(-0.000122921 0 -0.0342896)
(-0.00017029 0 -0.0334842)
(-0.000114775 0 -0.0359118)
(-0.000161023 0 -0.0351175)
(-0.000106616 0 -0.0375105)
(-0.000151649 0 -0.0367294)
(-9.84799e-05 0 -0.0390814)
(-0.000142199 0 -0.0383157)
(-9.0409e-05 0 -0.0406197)
(-0.000132705 0 -0.0398719)
(-8.24472e-05 0 -0.04212)
(-0.000123206 0 -0.0413929)
(-7.46402e-05 0 -0.0435768)
(-0.000113743 0 -0.0428732)
(-6.70333e-05 0 -0.0449839)
(-0.000104359 0 -0.044307)
(-5.9671e-05 0 -0.046335)
(-9.50948e-05 0 -0.045688)
(-5.25929e-05 0 -0.0476231)
(-8.59888e-05 0 -0.0470096)
(-4.58364e-05 0 -0.0488412)
(-7.70693e-05 0 -0.0482647)
(-3.94274e-05 0 -0.049982)
(-6.83603e-05 0 -0.0494462)
(-3.33781e-05 0 -0.0510374)
(-5.99923e-05 0 -0.0505465)
(-2.77704e-05 0 -0.051999)
(-5.17753e-05 0 -0.0515573)
(-2.25029e-05 0 -0.0528582)
(-4.37129e-05 0 -0.0524699)
(-1.75773e-05 0 -0.0536073)
(-3.60623e-05 0 -0.053276)
(-1.29509e-05 0 -0.0542382)
(-2.86029e-05 0 -0.0539681)
(-8.57309e-06 0 -0.0547426)
(-2.12243e-05 0 -0.0545379)
(-4.3634e-06 0 -0.0551123)
(-1.39251e-05 0 -0.0549771)
(-2.0574e-07 0 -0.0553394)
(-6.60178e-06 0 -0.0552775)
(4.00018e-06 0 -0.055416)
(8.69276e-07 0 -0.0554312)
(8.43109e-06 0 -0.0553351)
(8.63289e-06 0 -0.055431)
(1.32479e-05 0 -0.0550901)
(1.68455e-05 0 -0.0552697)
(1.86366e-05 0 -0.0546748)
(2.56934e-05 0 -0.0549411)
(2.47981e-05 0 -0.0540841)
(3.53695e-05 0 -0.0544395)
(3.19393e-05 0 -0.0533135)
(4.60771e-05 0 -0.05376)
(4.02696e-05 0 -0.0523594)
(5.80267e-05 0 -0.0528986)
(4.99939e-05 0 -0.0512194)
(7.14224e-05 0 -0.0518523)
(6.13082e-05 0 -0.0498919)
(8.64584e-05 0 -0.0506191)
(7.44028e-05 0 -0.0483764)
(0.000103317 0 -0.0491978)
(8.94685e-05 0 -0.0466742)
(0.000122176 0 -0.0475887)
(0.000106679 0 -0.044788)
(0.000143199 0 -0.045794)
(0.000126081 0 -0.042721)
(0.0001665 0 -0.0438169)
(0.000147491 0 -0.0404801)
(0.000192064 0 -0.0416605)
(0.000166309 0 -0.0385239)
(0.000216933 0 -0.0395475)
(0.000185333 0 -0.0365597)
(0.000239975 0 -0.0375823)
(0.00020446 0 -0.0346031)
(0.000262965 0 -0.0356188)
(0.000223542 0 -0.032665)
(0.000285783 0 -0.0336686)
(0.000242404 0 -0.030755)
(0.000308244 0 -0.0317418)
(0.00026088 0 -0.0288811)
(0.000330178 0 -0.0298474)
(0.00027883 0 -0.0270499)
(0.000351433 0 -0.0279925)
(0.000296139 0 -0.0252665)
(0.000371883 0 -0.0261831)
(0.000312713 0 -0.0235349)
(0.000391427 0 -0.0244237)
(0.000328479 0 -0.0218579)
(0.000409987 0 -0.0227177)
(0.000343381 0 -0.0202378)
(0.000427507 0 -0.0210675)
(0.000357379 0 -0.0186759)
(0.000443947 0 -0.0194749)
(0.000370449 0 -0.017173)
(0.000459284 0 -0.0179411)
(0.000382577 0 -0.0157295)
(0.000473509 0 -0.0164665)
(0.000393762 0 -0.0143453)
(0.000486623 0 -0.0150513)
(0.000404013 0 -0.0130204)
(0.000498641 0 -0.0136954)
(0.000413345 0 -0.0117542)
(0.000509582 0 -0.0123985)
(0.000421785 0 -0.0105464)
(0.000519479 0 -0.0111602)
(0.000429361 0 -0.00939648)
(0.000528366 0 -0.00998003)
(0.000436111 0 -0.0083041)
(0.000536287 0 -0.00885758)
(0.00044207 0 -0.00726869)
(0.000543287 0 -0.00779238)
(0.000447273 0 -0.00628958)
(0.000549411 0 -0.00678388)
(0.000451747 0 -0.00536576)
(0.000554701 0 -0.00583128)
(0.00045551 0 -0.00449576)
(0.000559188 0 -0.00493336)
(0.00045859 0 -0.00367763)
(0.000562896 0 -0.00408839)
(0.000461085 0 -0.00290922)
(0.000565878 0 -0.00329429)
(0.000463187 0 -0.0021884)
(0.000568268 0 -0.00254902)
(0.00046507 0 -0.00151551)
(0.000570266 0 -0.00185043)
(0.00046667 0 -0.000906572)
(0.0005726 0 -0.00120099)
(0.000572892 0 -0.000629261)
(-0.000372941 0 -0.000505173)
(-0.000440573 0 -0.000337101)
(-0.000370958 0 -0.000839616)
(-0.000437189 0 -0.000686291)
(-0.000368654 0 -0.00117079)
(-0.000435775 0 -0.00100697)
(-0.00036639 0 -0.00152567)
(-0.000433522 0 -0.00134941)
(-0.000364344 0 -0.00190667)
(-0.000431302 0 -0.00171674)
(-0.000362517 0 -0.00231513)
(-0.000429324 0 -0.00211123)
(-0.000360819 0 -0.00275142)
(-0.000427518 0 -0.00253365)
(-0.000359151 0 -0.00321557)
(-0.000425776 0 -0.00298405)
(-0.000357442 0 -0.00370775)
(-0.00042401 0 -0.00346243)
(-0.000355649 0 -0.0042284)
(-0.000422167 0 -0.00396905)
(-0.000353744 0 -0.00477813)
(-0.000420214 0 -0.00450445)
(-0.000351709 0 -0.00535771)
(-0.00041813 0 -0.0050693)
(-0.000349527 0 -0.00596801)
(-0.000415897 0 -0.00566443)
(-0.000347183 0 -0.00661002)
(-0.000413499 0 -0.00629077)
(-0.000344665 0 -0.0072849)
(-0.000410922 0 -0.00694938)
(-0.00034196 0 -0.00799391)
(-0.000408152 0 -0.00764148)
(-0.000339058 0 -0.00873851)
(-0.000405178 0 -0.00836843)
(-0.000335947 0 -0.00952024)
(-0.000401986 0 -0.00913172)
(-0.000332614 0 -0.0103408)
(-0.000398564 0 -0.00993301)
(-0.000329048 0 -0.0112021)
(-0.000394898 0 -0.0107741)
(-0.000325232 0 -0.0121061)
(-0.000390973 0 -0.0116568)
(-0.000321149 0 -0.013055)
(-0.000386769 0 -0.0125833)
(-0.000316782 0 -0.0140508)
(-0.000382269 0 -0.0135558)
(-0.000312109 0 -0.0150962)
(-0.000377449 0 -0.0145765)
(-0.000307109 0 -0.0161934)
(-0.000372286 0 -0.0156479)
(-0.000301758 0 -0.0173453)
(-0.000366754 0 -0.0167726)
(-0.000296031 0 -0.0185544)
(-0.000360826 0 -0.0179532)
(-0.000289899 0 -0.0198239)
(-0.00035447 0 -0.0191926)
(-0.00028331 0 -0.0211568)
(-0.000347642 0 -0.020494)
(-0.000276165 0 -0.022555)
(-0.000340275 0 -0.0218604)
(-0.000267117 0 -0.0242612)
(-0.000331534 0 -0.0234146)
(-0.000257829 0 -0.0259594)
(-0.000321571 0 -0.025117)