/*--------------------------------*- C++ -*----------------------------------*\
  =========                 |
  \\      /  F ield         | OpenFOAM: The Open Source CFD Toolbox
   \\    /   O peration     | Website:  https://openfoam.org
    \\  /    A nd           | Version:  9
     \\/     M anipulation  |
\*---------------------------------------------------------------------------*/
FoamFile
{
    format      ascii;
    class       surfaceScalarField;
    location    "0.03";
    object      alphaPhi0.water;
}
// * * * * * * * * * * * * * * * * * * * * * * * * * * * * * * * * * * * * * //

dimensions      [0 3 -1 0 0 0 0];

internalField   nonuniform List<scalar> 
9850
(
-5.74716e-24
2.36492e-23
-2.05482e-22
7.78377e-22
-4.19503e-21
1.90789e-20
-6.93576e-20
3.09399e-19
-9.91017e-19
4.38738e-18
-1.99945e-18
7.19427e-17
0
1.28506e-15
0
2.22924e-14
0
3.85867e-13
0
7.27469e-12
0
1.51435e-10
0
9.20429e-10
-2.04287e-08
1.78037e-09
-2.3069e-07
-1.6123e-07
-3.10427e-07
-5.01524e-07
-3.20972e-07
-5.79294e-07
-2.83164e-07
-6.28727e-07
-2.4039e-07
-6.2423e-07
-2.15406e-07
-5.92659e-07
-2.06258e-07
-5.70884e-07
-2.04322e-07
-4.6141e-07
-2.03444e-07
-4.406e-07
-2.02504e-07
-4.22976e-07
-2.00714e-07
-4.11407e-07
-1.9544e-07
-4.08978e-07
-1.83192e-07
-4.09255e-07
-1.64342e-07
-3.93436e-07
-1.48301e-07
-3.42893e-07
-1.53086e-07
-2.51339e-07
-7.61999e-08
-9.82749e-08
-1.31407e-09
-9.66388e-10
-6.06286e-11
4.06398e-11
7.43151e-12
1.96108e-10
0
7.52271e-11
0
1.42555e-11
0
3.07554e-12
0
7.96394e-13
0
2.0355e-13
0
4.99465e-14
0
1.16751e-14
1.03814e-16
2.65984e-15
1.6967e-16
7.69262e-16
1.50778e-16
4.37752e-16
1.19009e-16
3.22281e-16
8.50853e-17
2.31914e-16
5.37344e-17
1.51203e-16
3.15492e-17
9.09173e-17
1.75735e-17
5.08659e-17
9.08128e-18
2.81257e-17
1.06987e-17
-9.14765e-24
3.4318e-23
-3.92876e-22
1.23673e-21
-7.12686e-21
4.33198e-20
-6.68227e-20
4.3299e-19
-7.90223e-19
3.77557e-18
-2.20075e-18
5.86454e-17
0
1.0457e-15
0
1.89054e-14
0
3.77207e-13
0
7.80311e-12
-5.81886e-12
1.79061e-10
0
4.74729e-10
9.26612e-10
2.15847e-10
-2.21866e-07
-7.70638e-09
-3.28514e-07
-4.11506e-07
-3.29974e-07
-5.77845e-07
-2.83624e-07
-6.75077e-07
-2.36892e-07
-6.70962e-07
-2.12397e-07
-6.17153e-07
-2.05557e-07
-5.77725e-07
-2.05044e-07
-4.61922e-07
-2.04195e-07
-4.41449e-07
-2.02867e-07
-4.24304e-07
-2.03958e-07
-4.10316e-07
-2.09362e-07
-4.03575e-07
-2.15658e-07
-4.02959e-07
-2.15306e-07
-3.93787e-07
-2.07078e-07
-3.51109e-07
-2.07849e-07
-2.50017e-07
-6.0444e-08
-6.35875e-08
-6.6949e-10
-8.20773e-11
-8.49108e-11
2.12378e-11
4.55526e-13
1.07962e-10
0
7.06055e-11
0
1.70325e-11
0
3.41704e-12
0
8.11478e-13
0
2.11083e-13
0
5.74069e-14
0
1.48484e-14
3.26657e-17
3.38509e-15
1.46345e-16
8.15612e-16
1.4997e-16
4.62225e-16
1.29792e-16
3.77491e-16
9.69748e-17
2.8948e-16
6.46825e-17
1.99362e-16
4.06871e-17
1.27067e-16
2.43306e-17
7.57052e-17
1.3567e-17
4.44682e-17
1.83232e-17
-2.82577e-23
6.83149e-23
-9.67435e-22
3.17211e-21
-1.7835e-20
9.28569e-20
-9.02828e-20
8.08948e-19
-6.52548e-19
3.77169e-18
-1.73352e-18
4.80251e-17
0
9.13168e-16
0
1.82451e-14
0
4.20034e-13
0
9.74485e-12
-2.25882e-11
2.11376e-10
0
6.97926e-10
5.35774e-10
8.17875e-11
-1.52052e-07
9.31185e-08
-3.01915e-07
-2.9945e-07
-3.06278e-07
-5.73505e-07
-2.65077e-07
-7.16279e-07
-2.25413e-07
-7.10626e-07
-2.06679e-07
-6.35888e-07
-2.04564e-07
-5.7984e-07
-2.06603e-07
-4.59883e-07
-2.06008e-07
-4.42045e-07
-2.02978e-07
-4.27334e-07
-2.05448e-07
-4.07846e-07
-2.24686e-07
-3.84337e-07
-2.59344e-07
-3.68301e-07
-2.8864e-07
-3.64486e-07
-2.87915e-07
-3.51679e-07
-2.32031e-07
-2.71907e-07
-1.84285e-08
-5.46171e-08
-1.57556e-10
-5.69958e-11
-3.72608e-11
1.64e-11
6.75084e-13
5.45087e-11
0
6.06306e-11
0
1.5464e-11
0
4.66781e-12
0
8.9983e-13
0
2.13379e-13
0
5.84838e-14
0
1.61647e-14
4.21414e-18
4.08631e-15
1.16366e-16
8.41238e-16
1.40789e-16
4.78094e-16
1.32071e-16
4.21864e-16
1.02192e-16
3.43401e-16
7.11083e-17
2.49366e-16
4.66739e-17
1.65766e-16
2.92198e-17
1.02849e-16
1.71436e-17
6.27924e-17
2.72397e-17
-4.57936e-23
1.20521e-22
-1.69676e-21
6.4008e-21
-3.0988e-20
1.47171e-19
-1.41235e-19
1.22769e-18
-6.53912e-19
5.27986e-18
-1.41507e-18
4.61744e-17
0
9.11487e-16
0
2.07839e-14
0
5.40307e-13
0
1.40419e-11
-4.795e-11
2.17095e-10
5.47279e-11
6.34317e-10
1.14712e-09
3.75811e-11
-1.44801e-08
7.41704e-08
-1.92482e-07
-1.23909e-07
-2.15683e-07
-5.50538e-07
-2.10788e-07
-7.21177e-07
-2.01341e-07
-7.20072e-07
-1.98227e-07
-6.39002e-07
-2.03821e-07
-5.74246e-07
-2.10251e-07
-4.53454e-07
-2.11316e-07
-4.4098e-07
-2.04106e-07
-4.34543e-07
-1.98013e-07
-4.13939e-07
-2.16314e-07
-3.66036e-07
-2.65955e-07
-3.1866e-07
-3.14266e-07
-3.16174e-07
-3.11757e-07
-3.53598e-07
-1.31779e-07
-2.91929e-07
-2.76764e-09
-2.28511e-08
0
-9.92665e-11
3.10363e-12
-1.46414e-11
7.87397e-13
5.21403e-11
0
5.03247e-11
0
1.2755e-11
0
5.36676e-12
0
1.20682e-12
0
2.39391e-13
0
6.05294e-14
0
1.672e-14
5.99236e-20
4.48135e-15
9.38293e-17
8.38365e-16
1.25604e-16
5.04887e-16
1.21095e-16
4.54948e-16
9.85537e-17
3.87939e-16
7.13844e-17
2.96189e-16
4.80392e-17
2.03905e-16
3.08159e-17
1.29842e-16
1.85962e-17
8.09753e-17
3.61553e-17
-5.27475e-23
1.98866e-22
-2.62751e-21
1.0862e-20
-3.96016e-20
2.09105e-19
-2.02167e-19
1.59213e-18
-7.87718e-19
7.30487e-18
-1.11096e-18
5.19039e-17
0
1.07808e-15
0
2.72017e-14
0
8.06464e-13
0
1.57049e-11
-5.93046e-11
2.3731e-10
3.65488e-11
5.7142e-10
3.12745e-11
1.85496e-11
2.99039e-08
1.72619e-08
5.13351e-09
-4.08632e-08
-6.57214e-08
-4.79923e-07
-1.22928e-07
-6.63978e-07
-1.66583e-07
-6.76418e-07
-1.88016e-07
-6.17569e-07
-2.03008e-07
-5.59253e-07
-2.16192e-07
-4.4027e-07
-2.22581e-07
-4.34591e-07
-2.11291e-07
-4.45833e-07
-1.85711e-07
-4.39519e-07
-1.7929e-07
-3.72456e-07
-2.13624e-07
-2.84326e-07
-2.43959e-07
-2.85809e-07
-1.86526e-07
-3.87637e-07
-2.76783e-08
-1.13175e-07
-1.14156e-10
-6.50875e-10
-2.88382e-11
-8.88305e-11
5.05306e-11
-8.50003e-11
0
6.3155e-11
0
3.6125e-11
0
9.80515e-12
0
4.82147e-12
0
1.47853e-12
0
3.17205e-13
0
6.96269e-14
0
1.78589e-14
0
4.8482e-15
7.1739e-17
8.15676e-16
1.02044e-16
5.18215e-16
9.93412e-17
4.7384e-16
8.46101e-17
4.17335e-16
6.37317e-17
3.32085e-16
4.38316e-17
2.36038e-16
2.84855e-17
1.5325e-16
1.74119e-17
9.6579e-17
4.30479e-17
-8.71716e-23
3.57496e-22
-3.79621e-21
1.66966e-20
-4.79223e-20
2.76257e-19
-2.50905e-19
1.94001e-18
-8.84443e-19
8.82848e-18
-7.36139e-19
6.25859e-17
0
1.42993e-15
0
3.95672e-14
0
1.04512e-12
0
1.67397e-11
-1.88555e-11
2.7214e-10
0
2.17191e-10
-2.46438e-10
5.77227e-11
-1.19203e-08
1.67153e-09
9.1801e-08
-1.17762e-07
4.7436e-08
-4.22155e-07
-5.16462e-08
-5.64896e-07
-1.40221e-07
-5.87844e-07
-1.78342e-07
-5.79448e-07
-1.9937e-07
-5.38226e-07
-2.21106e-07
-4.18533e-07
-2.38746e-07
-4.16951e-07
-2.31636e-07
-4.52942e-07
-1.89948e-07
-4.81207e-07
-1.51826e-07
-4.10578e-07
-1.52692e-07
-2.8339e-07
-1.32702e-07
-3.04384e-07
-3.36745e-08
-1.70929e-07
-1.51638e-09
-1.24795e-09
-2.27977e-10
-1.80795e-11
-2.41804e-10
-2.5597e-11
-1.12206e-10
-9.10885e-11
-9.90752e-12
2.17696e-11
0
2.48352e-11
0
7.91565e-12
0
3.60385e-12
0
1.39319e-12
0
3.87073e-13
0
8.92538e-14
0
2.09113e-14
0
5.38615e-15
4.66219e-17
7.95215e-16
7.08415e-17
5.18887e-16
6.95193e-17
4.78343e-16
6.11711e-17
4.32588e-16
4.74459e-17
3.55314e-16
3.30675e-17
2.58478e-16
2.15303e-17
1.69969e-16
1.30871e-17
1.071e-16
4.68735e-17
-1.34296e-22
6.10898e-22
-4.6701e-21
2.16819e-20
-5.49854e-20
3.18582e-19
-2.78235e-19
2.27034e-18
-9.48083e-19
1.03636e-17
0
7.91936e-17
0
2.02858e-15
0
5.89085e-14
0
1.20676e-12
-3.43875e-11
3.08665e-11
-8.5219e-12
3.047e-10
0
1.40742e-10
0
9.99615e-11
0
5.59625e-10
-6.08383e-08
-3.01802e-08
-1.42887e-08
-3.67074e-07
-7.3805e-08
-5.05907e-07
-1.46451e-07
-5.15202e-07
-1.69021e-07
-5.5688e-07
-1.86662e-07
-5.20585e-07
-2.16108e-07
-3.89087e-07
-2.47264e-07
-3.85796e-07
-2.57089e-07
-4.43112e-07
-2.25362e-07
-5.12899e-07
-1.90113e-07
-4.45716e-07
-1.9639e-07
-2.75629e-07
-7.29756e-08
-1.371e-07
8.9385e-10
-4.67019e-11
-6.74062e-12
-2.6068e-12
-8.20312e-12
-3.08064e-12
-4.61509e-12
-3.97085e-12
-2.82662e-11
-1.03157e-11
-1.48476e-11
1.6131e-11
-2.57712e-12
3.80948e-11
-2.85257e-13
4.41164e-12
-8.71359e-15
2.86931e-12
0
1.13056e-12
0
3.74049e-13
0
9.80686e-14
0
2.50487e-14
0
6.16398e-15
2.10434e-17
8.51564e-16
3.56666e-17
5.15963e-16
3.53897e-17
4.79399e-16
3.2184e-17
4.41827e-16
2.54195e-17
3.6805e-16
1.75804e-17
2.68092e-16
1.11634e-17
1.76432e-16
6.49778e-18
1.10861e-16
4.81498e-17
-1.65935e-22
8.59216e-22
-4.61955e-21
2.29028e-20
-5.60164e-20
3.26001e-19
-2.95386e-19
2.52797e-18
-1.04842e-18
1.28394e-17
0
1.05088e-16
0
2.94159e-15
0
7.19914e-14
0
1.27116e-12
-1.35137e-11
2.89501e-11
-1.29892e-12
1.10941e-10
-1.56671e-10
8.58906e-11
-1.87513e-10
1.76628e-10
0
6.95679e-11
-2.9339e-08
-1.15968e-09
-1.65594e-07
-6.09462e-08
-1.74227e-07
-4.09283e-07
-1.75352e-07
-5.14248e-07
-1.55258e-07
-5.76926e-07
-1.60712e-07
-5.15107e-07
-1.89718e-07
-3.60068e-07
-2.20214e-07
-3.5528e-07
-2.37172e-07
-4.26e-07
-2.44549e-07
-5.04432e-07
-2.7162e-07
-3.68743e-07
-1.06568e-07
-9.76358e-08
-2.04513e-11
-4.49491e-11
-6.11862e-13
-1.55457e-12
-7.68672e-13
-6.4568e-13
-1.9168e-13
-6.62592e-13
-7.48124e-13
-3.65304e-13
-1.68336e-11
-4.5695e-12
-1.14073e-11
2.2795e-11
-5.50953e-12
3.8306e-11
-6.52942e-13
2.00413e-12
-2.67518e-13
2.02279e-12
-6.18281e-14
7.9167e-13
-1.26561e-14
3.08289e-13
-2.07605e-15
9.3352e-14
-2.93883e-16
2.4874e-14
-2.27326e-17
6.28224e-15
-1.52213e-18
9.92155e-16
3.22985e-20
5.12958e-16
2.65675e-19
4.80553e-16
2.81062e-20
4.45541e-16
-4.10356e-19
3.68727e-16
-7.42456e-19
2.68113e-16
-9.37037e-19
1.76346e-16
-9.18964e-19
1.11265e-16
4.61019e-17
-1.67769e-22
9.48409e-22
-4.11203e-21
2.29592e-20
-5.02945e-20
3.21368e-19
-3.03182e-19
2.64108e-18
-1.23513e-18
1.61525e-17
0
1.40359e-16
0
3.60337e-15
0
7.39476e-14
0
1.20805e-12
0
2.11576e-11
0
1.12926e-10
-1.19282e-11
8.05605e-10
-1.9575e-11
5.81304e-11
8.88926e-11
4.49922e-11
-2.08597e-14
-2.14946e-11
-6.03685e-08
-6.93384e-10
-1.51788e-07
-3.15951e-08
-1.75519e-07
-3.20802e-07
-1.5053e-07
-5.8686e-07
-1.37903e-07
-5.26612e-07
-1.37866e-07
-3.59594e-07
-1.2169e-07
-3.70246e-07
-1.00461e-07
-3.7385e-07
-1.19757e-07
-2.43609e-07
-7.61811e-08
-5.80203e-08
-3.09669e-11
-1.51628e-09
-1.02637e-12
-6.72085e-12
-4.28559e-13
-2.33261e-13
-2.02844e-13
-3.22586e-13
0
-3.62298e-13
-4.71418e-13
-2.21256e-13
-2.31602e-11
-2.86791e-12
-2.01823e-11
1.93478e-11
-4.33581e-12
2.1537e-11
-7.58097e-13
1.2206e-12
-3.76212e-13
6.94549e-13
-1.10186e-13
5.18257e-13
-3.18758e-14
1.89794e-13
-8.23095e-15
7.45717e-14
-1.89998e-15
2.15364e-14
-3.08245e-16
5.57592e-15
-6.0478e-17
1.00396e-15
-3.90988e-17
5.06409e-16
-3.62469e-17
4.84409e-16
-3.39103e-17
4.44664e-16
-2.77663e-17
3.61512e-16
-2.02057e-17
2.59116e-16
-1.45013e-17
1.7095e-16
-8.79282e-18
1.06945e-16
3.95643e-17
-1.54704e-22
9.59318e-22
-3.55254e-21
2.14531e-20
-4.32312e-20
3.01601e-19
-2.91681e-19
2.65875e-18
-1.41445e-18
1.83549e-17
0
1.69173e-16
0
3.77685e-15
0
6.85505e-14
0
1.08197e-12
0
1.55266e-11
-1.57198e-10
1.65438e-10
-1.43532e-10
9.9009e-10
-1.04005e-10
1.07975e-10
-1.63858e-11
1.17904e-11
-8.6858e-12
-8.58563e-12
-2.03127e-10
-2.90045e-10
-3.06879e-08
-1.22607e-09
-7.1627e-08
-2.12833e-09
-1.51272e-07
-7.1471e-08
-1.28315e-07
-1.65651e-07
-5.74308e-08
-1.26505e-07
2.12601e-08
-5.11032e-08
2.05481e-08
-3.09676e-10
-8.43652e-10
-1.3572e-10
-2.2818e-10
-1.63256e-09
-5.59111e-12
-3.68498e-11
-1.3907e-12
-7.14435e-12
-1.07024e-13
-3.88996e-14
-3.10257e-14
-6.74712e-14
0
-2.53547e-13
0
-5.04503e-13
-1.57367e-11
-1.73162e-12
-2.33538e-11
6.32918e-12
-2.82682e-12
1.71683e-12
-5.63878e-13
1.18899e-12
-2.7865e-13
7.34938e-13
-1.07104e-13
2.55796e-13
-3.58909e-14
1.1158e-13
-1.11994e-14
4.34983e-14
-2.89113e-15
1.56584e-14
-4.9935e-16
4.26805e-15
-1.05506e-16
8.61592e-16
-7.74269e-17
4.94837e-16
-7.24179e-17
4.8528e-16
-6.62581e-17
4.38446e-16
-5.27383e-17
3.46535e-16
-3.78729e-17
2.44652e-16
-2.66265e-17
1.61153e-16
-1.46878e-17
9.82031e-17
3.18983e-17
-1.30204e-22
8.90865e-22
-2.88268e-21
1.85509e-20
-3.68888e-20
2.73996e-19
-2.75364e-19
2.61899e-18
-1.49243e-18
1.89838e-17
0
1.784e-16
0
3.52179e-15
0
5.73364e-14
0
9.1984e-13
0
1.37037e-11
-2.86886e-11
1.20722e-10
-1.77723e-10
1.02601e-10
-3.08255e-11
6.13929e-11
-1.24288e-11
5.55515e-13
-9.98512e-11
-5.58342e-13
-1.56346e-10
-5.93706e-11
-6.07503e-11
-1.73108e-10
-1.47796e-09
-1.08131e-10
-1.20821e-08
-7.29613e-12
-7.1252e-09
-7.51587e-12
-3.79383e-10
-4.98588e-12
-2.02455e-12
-1.22154e-11
-1.33992e-12
-3.57105e-11
-1.04931e-11
-3.3858e-11
-2.26387e-11
-8.85436e-12
-2.16058e-11
-9.90939e-12
-6.89566e-13
-4.26636e-12
-4.03063e-14
-1.83278e-13
0
-1.48048e-14
0
-2.70172e-13
-4.68453e-12
-5.97673e-13
-1.41854e-11
8.39147e-14
-4.77433e-12
5.33331e-12
-1.46838e-12
8.19981e-13
-1.00339e-12
1.14082e-12
-2.3779e-13
1.3507e-12
-7.26734e-14
1.61777e-13
-2.98117e-14
6.10642e-14
-9.34512e-15
1.77347e-14
-2.67867e-15
8.26025e-15
-4.79023e-16
2.46327e-15
-1.39503e-16
6.30019e-16
-1.11511e-16
4.83014e-16
-1.00676e-16
4.84215e-16
-9.47896e-17
4.25802e-16
-7.34958e-17
3.25392e-16
-5.24833e-17
2.26681e-16
-3.59424e-17
1.48235e-16
-1.73291e-17
8.55269e-17
2.2461e-17
-9.94324e-23
7.27933e-22
-2.31772e-21
1.58222e-20
-3.18928e-20
2.55025e-19
-2.48824e-19
2.50709e-18
-1.44108e-18
1.86801e-17
0
1.66128e-16
0
2.89554e-15
0
4.44286e-14
0
7.30382e-13
0
1.73665e-11
0
2.99209e-10
-1.59876e-10
6.84535e-11
-1.74224e-12
0
-1.21602e-12
3.4133e-14
-5.41191e-13
-8.55809e-14
-3.59331e-11
-1.13144e-12
-5.64796e-11
-1.0326e-12
-3.9687e-12
-3.93776e-12
-1.74616e-12
-4.66011e-12
-1.12597e-12
-4.67446e-12
-8.37575e-13
-3.03729e-12
-7.00055e-12
-2.80223e-12
-1.07983e-11
-8.74989e-12
-5.5562e-12
-1.06489e-12
-2.458e-12
-3.21412e-12
-1.00137e-12
-1.21027e-12
-4.21863e-13
-7.52269e-13
-4.05132e-14
-7.32813e-14
-3.68142e-14
-7.51528e-15
0
-2.29267e-13
-8.17218e-12
-2.84493e-13
-2.23232e-11
3.23376e-12
-3.60612e-12
1.91544e-11
-1.33596e-12
4.008e-13
-1.36334e-12
7.17104e-13
-1.18504e-13
1.46966e-12
-5.05963e-14
7.53819e-14
-1.63298e-14
2.06174e-14
-5.53277e-15
1.01918e-14
-1.64023e-15
3.33999e-15
-3.18412e-16
1.18741e-15
-1.5418e-16
5.03876e-16
-1.40583e-16
4.71533e-16
-1.36098e-16
4.7797e-16
-1.17301e-16
4.02203e-16
-8.91782e-17
3.01255e-16
-6.33333e-17
2.07189e-16
-4.12202e-17
1.32712e-16
-1.6068e-17
6.9336e-17
1.32707e-17
-7.46309e-23
5.73376e-22
-1.97234e-21
1.44135e-20
-2.76718e-20
2.471e-19
-2.18485e-19
2.35414e-18
-1.29936e-18
1.68967e-17
-2.03807e-18
1.394e-16
-1.60809e-16
2.10825e-15
0
3.33218e-14
-1.71903e-14
7.52605e-13
-2.28207e-11
5.09104e-11
-3.44068e-11
6.1784e-10
-7.86807e-11
3.29469e-10
-1.77187e-13
2.7819e-11
-1.70628e-13
1.32754e-14
-1.74386e-13
0
-1.61418e-13
-1.65023e-13
-2.68263e-13
-1.99932e-13
-3.84959e-12
-1.16041e-13
-2.3258e-12
-4.08365e-15
-2.19411e-12
-1.10833e-14
-1.35909e-12
-3.51082e-15
-3.43014e-13
-2.19869e-15
-6.75435e-13
-1.67181e-14
-3.62029e-13
-7.5363e-13
-2.7494e-14
-3.76089e-13
1.94946e-14
-1.31941e-13
1.15166e-16
-2.42693e-14
0
-1.00992e-14
-6.74331e-15
-7.64787e-16
0
-3.56948e-14
-3.70041e-12
-3.27605e-14
-1.92377e-11
6.41198e-12
-1.44637e-12
2.65244e-11
-5.89088e-13
1.97419e-13
-6.40557e-13
1.27954e-13
-3.07882e-14
1.54901e-12
-2.79928e-14
8.53055e-14
-9.27282e-15
6.9109e-15
-2.59713e-15
1.09941e-14
-6.87399e-16
1.78573e-15
-1.96764e-16
7.4922e-16
-1.64234e-16
4.77438e-16
-1.654e-16
4.60491e-16
-1.59726e-16
4.6081e-16
-1.33133e-16
3.76763e-16
-9.9411e-17
2.75953e-16
-6.92552e-17
1.86249e-16
-4.07614e-17
1.13787e-16
-1.14018e-17
5.05222e-17
6.21506e-18
-5.88133e-23
4.75284e-22
-1.76445e-21
1.4013e-20
-2.50334e-20
2.45767e-19
-1.86888e-19
2.26613e-18
-1.04635e-18
1.45528e-17
-3.20349e-18
1.06525e-16
-4.55023e-17
1.59673e-15
0
2.95617e-14
-1.92796e-13
9.49998e-13
-6.26334e-11
6.72395e-11
-9.81723e-11
6.78681e-10
-3.40229e-11
3.97495e-10
-9.68214e-14
3.9792e-12
-1.01508e-13
1.73478e-14
-3.07713e-13
1.42159e-14
-2.54398e-13
-4.81349e-15
-1.55981e-13
-3.77154e-14
-5.54619e-15
-2.09558e-14
-1.15396e-15
-2.43295e-14
-5.60192e-16
-5.46833e-15
-3.27169e-16
-2.87748e-15
-5.37586e-16
-1.2122e-15
-1.63176e-14
-4.81184e-16
-9.67852e-15
-8.10734e-15
6.93805e-15
-3.0274e-14
6.28057e-15
-1.35796e-14
1.50339e-15
-3.44708e-15
-5.9888e-18
-2.87401e-16
-1.35234e-17
-1.30778e-16
0
-8.86162e-16
-1.78848e-12
4.3192e-14
-1.83265e-11
8.39586e-12
-1.45707e-13
3.2292e-11
-1.61721e-13
9.91023e-14
-6.76384e-13
1.89542e-13
-1.36846e-14
1.57544e-12
-1.02194e-14
2.80854e-14
-7.67858e-15
6.31057e-15
-1.54472e-15
1.00205e-14
-4.00087e-16
1.02104e-15
-1.87902e-16
5.6678e-16
-1.79073e-16
4.6519e-16
-1.85018e-16
4.55432e-16
-1.76395e-16
4.42104e-16
-1.42804e-16
3.49642e-16
-1.04435e-16
2.49726e-16
-6.94759e-17
1.63102e-16
-3.46938e-17
9.11854e-17
-6.17035e-18
3.22128e-17
2.29329e-18
-4.92389e-23
4.36469e-22
-1.61181e-21
1.40258e-20
-2.32455e-20
2.50167e-19
-1.62135e-19
2.24445e-18
-7.87348e-19
1.31225e-17
-2.91996e-18
8.27723e-17
-2.19162e-17
1.35279e-15
0
2.72127e-14
-9.35473e-14
1.01598e-12
-1.77665e-11
6.6356e-11
-1.06825e-10
2.08111e-10
-3.90928e-12
4.34666e-10
-3.42536e-14
1.62244e-12
-3.85799e-14
2.0759e-14
-3.65233e-14
1.10559e-14
-3.64959e-14
-1.36609e-15
-3.80537e-14
-1.45833e-14
-2.20774e-14
-1.99254e-14
-3.8298e-15
0
-1.99745e-15
-3.71202e-15
-4.04964e-16
-2.12269e-15
-1.57649e-16
-6.20859e-16
-1.38829e-16
-4.81236e-16
-5.89118e-17
-3.36816e-16
5.54379e-16
-1.54281e-15
8.00593e-16
-1.11899e-15
1.44016e-16
-2.92312e-16
3.62731e-17
-3.58854e-17
-8.59643e-18
1.01965e-18
0
3.77802e-16
-9.67172e-14
6.79686e-14
-1.68892e-11
8.17647e-12
-1.11155e-11
3.79625e-11
-4.71025e-13
1.78138e-11
-3.70639e-13
6.48826e-14
-1.26414e-13
0
-1.20809e-14
9.20131e-14
-6.99257e-15
6.03846e-15
-7.01863e-16
6.36944e-15
-2.69258e-16
5.89766e-16
-1.98004e-16
4.9308e-16
-1.98058e-16
4.61986e-16
-2.01033e-16
4.51422e-16
-1.87492e-16
4.23728e-16
-1.46897e-16
3.2083e-16
-1.03913e-16
2.21781e-16
-6.33138e-17
1.36858e-16
-2.5068e-17
6.65741e-17
-2.57544e-18
1.78086e-17
6.78337e-19
-4.37502e-23
4.30649e-22
-1.47889e-21
1.47213e-20
-2.12402e-20
2.59981e-19
-1.43603e-19
2.26123e-18
-6.00295e-19
1.26531e-17
-2.18619e-18
6.98361e-17
-1.82235e-17
1.26039e-15
0
2.75627e-14
-9.56564e-14
1.06859e-12
0
8.26303e-11
-1.08589e-10
1.06199e-10
-4.30204e-12
4.69145e-10
-2.24401e-14
9.73335e-13
-2.828e-14
2.57285e-14
-3.36925e-14
1.60286e-14
-4.62222e-14
1.00602e-14
-7.39485e-14
0
-2.21182e-13
0
-5.70388e-15
-7.45781e-13
-3.16341e-15
-4.69558e-15
-2.71901e-16
-3.8831e-15
-1.47424e-16
-7.40054e-16
-5.71837e-17
-5.70206e-16
8.27415e-18
-4.01471e-16
6.61799e-17
-2.52171e-16
1.11701e-16
-2.12969e-16
6.08355e-17
-6.64536e-17
3.22449e-17
4.20242e-18
-3.68314e-18
4.96404e-17
0
7.61352e-16
-4.09764e-14
7.20096e-14
-2.07754e-11
6.74587e-12
-1.7183e-11
4.44603e-11
-1.10526e-13
4.99488e-11
-7.91187e-14
2.08501e-14
-5.74815e-14
9.08384e-16
-9.23434e-15
1.40652e-13
-3.27999e-15
3.89132e-15
-3.3071e-16
1.76276e-15
-2.34539e-16
4.93347e-16
-2.12043e-16
4.73795e-16
-2.1592e-16
4.6208e-16
-2.18319e-16
4.48313e-16
-1.93139e-16
4.01892e-16
-1.4539e-16
2.89456e-16
-9.70936e-17
1.90873e-16
-5.14633e-17
1.07523e-16
-1.52841e-17
4.32844e-17
-8.18576e-19
8.51478e-18
1.61661e-19
-4.00684e-23
4.47784e-22
-1.35968e-21
1.59126e-20
-1.89519e-20
2.75795e-19
-1.26088e-19
2.33575e-18
-4.73865e-19
1.26187e-17
-5.43286e-19
6.59227e-17
0
1.23517e-15
0
3.37062e-14
0
9.22361e-13
0
6.79167e-11
-9.52016e-11
2.21016e-10
-7.74829e-12
5.10147e-10
-4.67346e-14
9.04277e-13
-5.23619e-14
3.10825e-14
-6.87655e-14
3.20492e-14
-4.57998e-13
1.17141e-13
-1.28952e-12
-5.23605e-13
-1.52338e-12
-8.25249e-13
-7.26735e-15
-1.22991e-12
-3.85165e-15
-5.89163e-15
-3.15702e-16
-4.99597e-15
-1.48723e-16
-8.9485e-16
-5.54936e-17
-6.62593e-16
7.32627e-18
-4.6401e-16
4.47854e-17
-2.89505e-16
5.77994e-17
-1.48112e-16
4.67072e-17
-4.25682e-17
2.04645e-17
3.42677e-17
-3.47621e-18
9.72369e-17
-4.57896e-16
1.13264e-15
0
1.28045e-13
-2.24977e-11
4.73819e-12
-2.00363e-11
5.17419e-11
-3.39843e-14
4.83596e-11
-3.20831e-14
1.07712e-14
-6.47299e-14
4.14535e-14
-1.21385e-15
1.55937e-13
-1.18148e-15
2.83356e-15
-2.53949e-16
8.29139e-16
-2.33403e-16
4.7201e-16
-2.27697e-16
4.73611e-16
-2.32475e-16
4.6285e-16
-2.31633e-16
4.43485e-16
-1.93111e-16
3.75561e-16
-1.37529e-16
2.53924e-16
-8.36447e-17
1.56104e-16
-3.65636e-17
7.70043e-17
-7.8841e-18
2.46114e-17
-1.90818e-19
3.52706e-18
4.33991e-20
-3.73074e-23
4.93203e-22
-1.21604e-21
1.7472e-20
-1.63519e-20
2.89234e-19
-1.05892e-19
2.45413e-18
-3.84654e-19
1.32889e-17
0
6.84942e-17
0
1.24799e-15
0
3.30328e-14
0
7.42102e-13
0
3.39431e-11
-8.73824e-11
3.79299e-10
-2.13223e-12
5.43569e-10
-4.64247e-14
5.1864e-13
-5.7452e-14
3.78691e-14
-9.24822e-14
5.75991e-14
-1.63526e-12
3.22083e-13
-3.53261e-12
0
-1.68042e-12
0
-9.54216e-15
-2.61892e-14
-3.80557e-15
-7.32175e-15
-4.10311e-16
-4.12362e-15
-1.59189e-16
-1.12692e-15
-6.05173e-17
-7.60137e-16
-2.44602e-18
-5.21951e-16
3.0814e-17
-3.2256e-16
4.09419e-17
-1.58096e-16
3.03603e-17
-3.11766e-17
2.45862e-18
6.29595e-17
-4.80458e-17
1.51273e-16
-2.32889e-15
3.12103e-15
0
4.22546e-13
-1.15932e-11
2.01864e-12
-4.71864e-11
3.32021e-11
-2.45321e-14
4.10487e-11
-2.44875e-14
7.94958e-15
-4.19406e-14
3.2222e-14
-2.39655e-15
6.53452e-14
-4.96142e-16
9.15913e-16
-2.43519e-16
5.78213e-16
-2.40788e-16
4.71592e-16
-2.45494e-16
4.77947e-16
-2.48972e-16
4.63006e-16
-2.41459e-16
4.35413e-16
-1.85861e-16
3.40959e-16
-1.22207e-16
2.1283e-16
-6.48313e-17
1.18361e-16
-2.23521e-17
4.90375e-17
-3.45112e-18
1.2112e-17
-3.9761e-20
1.26578e-18
1.01306e-20
-3.46137e-23
5.74814e-22
-9.89477e-22
1.85376e-20
-1.26993e-20
2.90683e-19
-8.2612e-20
2.4896e-18
-3.06517e-19
1.43788e-17
-5.45081e-20
7.68053e-17
0
1.17096e-15
0
2.23132e-14
0
6.39494e-13
-8.47036e-13
1.79784e-11
-7.65781e-11
4.83683e-10
-2.37131e-13
5.92332e-10
-2.5338e-14
9.54977e-14
-4.79341e-14
4.36093e-14
-6.54705e-14
7.74298e-14
-1.65402e-12
5.61682e-13
-5.08905e-12
0
-1.61443e-14
-4.98311e-12
-4.28435e-15
-3.76294e-14
-2.02459e-15
-6.8526e-15
-5.17333e-16
-1.4031e-15
-1.94896e-16
-1.59186e-15
-7.04168e-17
-1.10261e-15
-1.72381e-17
-5.81979e-16
1.15431e-17
-3.51277e-16
1.96303e-17
-1.66124e-16
9.2736e-18
-2.06784e-17
-1.26016e-17
9.02775e-17
-3.33226e-17
2.38537e-16
-1.89708e-14
6.94547e-15
0
6.7014e-13
-2.2864e-12
1.97331e-12
-2.12563e-11
2.99922e-11
-1.40103e-14
4.51357e-11
-1.32793e-14
5.31395e-15
-1.49144e-14
3.83645e-15
-2.53002e-15
0
-3.40204e-16
7.76206e-16
-2.5493e-16
4.98614e-16
-2.57435e-16
4.71496e-16
-2.62439e-16
4.80587e-16
-2.64713e-16
4.62047e-16
-2.43661e-16
4.21069e-16
-1.6917e-16
2.94452e-16
-9.95872e-17
1.66801e-16
-4.41433e-17
8.11313e-17
-1.16604e-17
2.72588e-17
-1.29602e-18
5.13444e-18
-8.05086e-21
3.95205e-19
2.08053e-21
-2.87858e-23
6.55443e-22
-7.21195e-22
1.86694e-20
-8.45222e-21
2.86259e-19
-5.48655e-20
2.48213e-18
-2.11699e-19
1.50755e-17
-6.78089e-19
8.51432e-17
0
1.07562e-15
0
1.19747e-14
0
2.22821e-13
-1.61207e-11
2.69027e-11
-2.42899e-11
5.16405e-10
-4.16246e-14
1.99369e-11
-2.83285e-14
6.25432e-14
-5.8147e-14
5.99356e-14
-1.86447e-13
1.89205e-13
-1.10166e-11
4.75146e-12
-1.16729e-10
-3.22611e-11
-2.98415e-13
-1.46279e-10
-9.51829e-15
-3.35765e-13
-4.19784e-15
-1.20259e-14
-1.44976e-15
-7.49905e-15
-4.23668e-16
-3.80129e-15
-9.94042e-17
-2.485e-15
-3.45556e-17
-6.1777e-16
-1.05251e-17
-3.75315e-16
-4.3882e-18
-1.72267e-16
-1.42895e-17
-1.05234e-17
-3.54755e-17
1.20539e-16
-3.76085e-17
5.80779e-16
-3.65912e-15
2.19971e-14
0
7.69787e-13
-1.02537e-11
6.79706e-12
-4.82459e-11
5.07852e-11
-6.79003e-15
3.30721e-11
-5.51005e-15
3.80291e-15
-5.44699e-15
3.27663e-15
-2.67346e-15
4.12692e-15
-3.01304e-16
1.82874e-15
-2.76159e-16
4.77418e-16
-2.75145e-16
4.65985e-16
-2.79094e-16
4.82759e-16
-2.7804e-16
4.595e-16
-2.31566e-16
3.9269e-16
-1.42226e-16
2.36689e-16
-7.25623e-17
1.19359e-16
-2.59283e-17
4.91618e-17
-5.17259e-18
1.305e-17
-4.18465e-19
1.86191e-18
-1.65539e-21
1.06084e-19
4.24561e-22
-2.05305e-23
6.95622e-22
-4.3903e-22
1.82583e-20
-4.50476e-21
2.74266e-19
-2.51072e-20
2.42082e-18
-7.99548e-20
1.51154e-17
-3.02409e-19
8.64482e-17
0
9.78158e-16
1.02001e-16
7.14249e-15
0
8.60342e-14
-6.91528e-12
2.15183e-11
-3.5853e-12
5.23015e-10
-1.49088e-14
3.78058e-11
-3.88322e-14
9.71903e-14
-9.55918e-14
1.41201e-13
-1.26315e-12
1.21585e-12
-1.48296e-10
4.56218e-11
-3.41586e-10
-1.48326e-10
-2.4848e-12
-3.91502e-10
-4.91261e-14
-2.82511e-12
-2.05519e-14
-4.97006e-14
-1.22624e-14
-3.74811e-14
-1.9731e-15
-1.29501e-13
-9.66012e-17
-1.41758e-15
-5.38098e-17
-6.54419e-16
-3.40321e-17
-3.94808e-16
-2.97897e-17
-1.76478e-16
-3.92646e-17
-5.16365e-19
-8.67554e-17
1.69717e-16
-4.67996e-15
5.09464e-15
0
2.61269e-13
0
7.42289e-13
-2.40183e-11
1.8677e-11
-1.97316e-11
6.10992e-11
-4.93303e-15
3.88535e-11
-4.7039e-15
3.39783e-15
-5.02846e-15
5.71296e-15
-3.88932e-15
9.53805e-15
-2.99372e-16
2.05932e-15
-2.93853e-16
4.7444e-16
-2.92317e-16
4.64558e-16
-2.95169e-16
4.83862e-16
-2.87814e-16
4.52802e-16
-2.02364e-16
3.39328e-16
-1.07738e-16
1.7317e-16
-4.62235e-17
7.62342e-17
-1.29595e-17
2.5813e-17
-1.93661e-18
5.30408e-18
-1.14283e-19
5.67788e-19
-3.38257e-22
2.32775e-20
8.60293e-23
-1.12405e-23
7.01275e-22
-1.68395e-22
1.7198e-20
-7.98765e-22
2.5409e-19
4.08067e-21
2.28465e-18
8.86132e-20
1.48622e-17
1.08445e-18
8.57885e-17
2.15817e-17
7.98086e-16
4.37835e-16
7.23051e-15
5.73802e-14
3.1804e-14
4.70128e-13
7.58159e-12
-6.93409e-12
4.81475e-10
-1.50883e-11
3.53907e-10
-1.38964e-12
2.3317e-10
-1.30536e-12
3.28943e-13
-2.37168e-12
3.04937e-12
-2.66873e-10
1.06735e-10
-3.07549e-10
-1.14496e-10
-2.01936e-11
-6.05954e-10
-3.03678e-13
-2.30157e-11
-1.285e-13
-2.77358e-13
-5.71103e-14
-1.04104e-12
-6.12079e-15
-2.16697e-13
-1.11326e-16
-1.00352e-15
-7.56002e-17
-6.83777e-16
-5.8703e-17
-4.0932e-16
-5.52082e-17
-1.7866e-16
-6.78666e-17
1.31685e-17
-1.01974e-15
1.09894e-15
-2.9549e-14
8.39339e-14
0
6.66584e-13
0
1.21649e-12
-2.81192e-11
3.70828e-11
-2.11102e-11
6.86909e-11
-5.56283e-15
4.62904e-11
-5.08827e-15
3.34234e-15
-5.33346e-15
5.83935e-15
-3.28987e-15
7.15249e-15
-3.06392e-16
1.17997e-15
-3.09257e-16
4.76633e-16
-3.09508e-16
4.6805e-16
-3.08946e-16
4.83226e-16
-2.77343e-16
4.31491e-16
-1.58023e-16
2.60479e-16
-7.18761e-17
1.12769e-16
-2.52414e-17
4.25459e-17
-5.43414e-18
1.15045e-17
-6.02795e-19
1.79247e-18
-2.42916e-20
1.40918e-19
-6.86629e-23
5.24042e-21
1.72784e-23
-2.06874e-24
6.78756e-22
5.30589e-23
1.56238e-20
2.0649e-21
2.25596e-19
2.99142e-20
2.08144e-18
2.74461e-19
1.41977e-17
2.42431e-18
8.23869e-17
3.30685e-17
4.43735e-16
5.78084e-16
1.19911e-14
2.49952e-14
1.43039e-14
2.04482e-12
3.52709e-12
-2.27185e-12
4.33204e-10
-3.89701e-11
4.01831e-10
-5.84556e-12
2.91767e-10
-1.57615e-12
7.40662e-13
-7.07767e-13
3.88404e-12
-2.2276e-10
1.12453e-10
-2.25769e-10
-1.16022e-10
-1.11043e-10
-7.05058e-10
-1.26735e-12
-1.86341e-11
-7.7062e-13
-9.82885e-13
-2.33502e-13
-3.10732e-12
-3.26764e-16
-8.77548e-14
-1.26431e-16
-1.03023e-15
-9.61515e-17
-7.07553e-16
-8.51331e-17
-4.17989e-16
-7.31732e-17
-1.78391e-16
-1.40555e-16
9.32607e-17
-1.78971e-14
1.91314e-14
-2.01173e-14
3.40773e-13
0
6.66511e-13
-2.21028e-12
2.74549e-12
-3.17246e-11
4.58946e-11
-2.37705e-11
7.53374e-11
-6.05921e-15
4.19387e-11
-4.95859e-15
3.18583e-15
-3.29352e-15
3.35433e-15
-1.14012e-15
1.82857e-15
-3.04628e-16
6.22867e-16
-3.11997e-16
4.79231e-16
-3.26623e-16
4.8554e-16
-3.19268e-16
4.77061e-16
-2.33103e-16
3.74989e-16
-1.07689e-16
1.73144e-16
-4.13941e-17
6.40933e-17
-1.15829e-17
2.02912e-17
-1.87037e-18
4.24904e-18
-1.4833e-19
4.8974e-19
-4.81588e-21
2.94664e-20
-1.38258e-23
1.17148e-21
3.42843e-24
4.76968e-24
6.26056e-22
1.98818e-22
1.34939e-20
4.12568e-21
1.91096e-19
5.01839e-20
1.8171e-18
4.34295e-19
1.31312e-17
3.2326e-18
7.6483e-17
5.18672e-17
1.43733e-16
7.60803e-16
1.82053e-14
1.2219e-14
1.2928e-14
2.40389e-12
9.5391e-13
1.9032e-12
1.59722e-10
-1.95064e-11
3.58967e-10
-1.03332e-11
2.50341e-10
-4.344e-13
1.96505e-12
-5.09552e-12
7.08965e-12
-2.16728e-10
1.4525e-10
-1.89291e-10
-1.43739e-10
-8.95958e-11
-6.72999e-10
-3.40049e-12
-1.48524e-11
-1.34341e-12
-2.72667e-11
-2.75504e-13
-3.61618e-12
-2.75154e-16
-1.52385e-15
-1.65492e-16
-1.08047e-15
-1.21904e-16
-7.2965e-16
-8.71949e-17
-4.50951e-16
0
-3.92706e-16
-2.75233e-16
2.90361e-15
-3.43136e-14
1.72529e-13
-3.1546e-17
2.71386e-13
0
5.74175e-13
-2.54111e-11
8.68533e-12
-3.34875e-11
6.70574e-11
-2.01919e-11
7.65278e-11
-4.96176e-15
2.0838e-11
-3.57462e-15
2.84915e-15
-1.65484e-15
2.60996e-15
-4.45236e-16
1.16818e-15
-3.26939e-16
5.19418e-16
-3.32194e-16
4.79806e-16
-3.37081e-16
4.92303e-16
-3.07927e-16
4.56383e-16
-1.6546e-16
2.7477e-16
-6.2954e-17
9.79629e-17
-2.01886e-17
3.13129e-17
-4.36266e-18
8.06871e-18
-5.17007e-19
1.26798e-18
-2.94411e-20
1.05524e-19
-9.56156e-22
6.82805e-21
-2.75077e-24
2.3673e-22
6.71606e-25
9.91006e-24
5.5279e-22
2.93e-22
1.10188e-20
5.32608e-21
1.53727e-19
6.29174e-20
1.51329e-18
5.49335e-19
1.15203e-17
3.30207e-18
6.76346e-17
5.02386e-17
1.14259e-16
1.31322e-15
1.95719e-14
8.22093e-15
8.13724e-15
6.96482e-13
2.75614e-13
4.99677e-12
4.844e-12
-1.00785e-11
3.4179e-10
-9.14977e-12
2.43401e-10
-2.10752e-12
3.66571e-12
-9.66902e-11
5.73133e-11
-2.39282e-10
2.10384e-10
-1.89365e-10
-1.90102e-10
-8.54735e-11
-6.56885e-10
-6.82381e-12
-4.72486e-12
-2.81902e-13
-2.36899e-11
-1.04667e-15
-1.11123e-13
-2.78604e-16
-1.86049e-15
-1.62476e-16
-1.1729e-15
-1.3577e-16
-7.29185e-16
-8.61456e-17
-4.92924e-16
-4.13776e-17
-8.61654e-16
-2.4737e-14
2.48095e-14
-1.72918e-14
2.05235e-13
0
1.58297e-13
-3.13137e-13
6.97926e-13
-3.52617e-11
1.08459e-11
-4.0228e-11
7.43708e-11
-1.61541e-11
5.76886e-11
-6.00548e-15
4.09367e-12
-3.6003e-15
2.34662e-15
-1.45041e-15
2.89526e-15
-3.95233e-16
1.15015e-15
-3.45297e-16
4.82604e-16
-3.52278e-16
4.76326e-16
-3.41608e-16
4.86401e-16
-2.51078e-16
3.88814e-16
-9.71863e-17
1.59124e-16
-3.12395e-17
4.70605e-17
-8.16293e-18
1.29439e-17
-1.32219e-18
2.60639e-18
-1.0918e-19
2.99392e-19
-5.98827e-21
2.37803e-20
-1.91297e-22
1.44786e-21
-5.4028e-25
4.68377e-23
1.29886e-25
1.30415e-23
4.52251e-22
3.31004e-22
8.49149e-21
5.68557e-21
1.17846e-19
6.76431e-20
1.20393e-18
6.07588e-19
9.63217e-18
4.23018e-18
5.74666e-17
8.70138e-18
1.42424e-16
1.32348e-15
2.03287e-14
2.96529e-15
6.12405e-15
1.14112e-13
1.69724e-13
4.88666e-12
5.86342e-12
3.59582e-13