/*--------------------------------*- C++ -*----------------------------------*\
  =========                 |
  \\      /  F ield         | OpenFOAM: The Open Source CFD Toolbox
   \\    /   O peration     | Website:  https://openfoam.org
    \\  /    A nd           | Version:  9
     \\/     M anipulation  |
\*---------------------------------------------------------------------------*/
FoamFile
{
    format      ascii;
    class       volScalarField;
    location    "0.03";
    object      alpha.water;
}
// * * * * * * * * * * * * * * * * * * * * * * * * * * * * * * * * * * * * * //

dimensions      [0 0 0 0 0 0 0];

internalField   nonuniform List<scalar> 
5000
(
3.14949e-19
3.99931e-17
1.3686e-15
2.05984e-14
2.3147e-13
2.5155e-12
4.5561e-11
8.72944e-10
1.33623e-08
3.51583e-07
1.46425e-05
0.000233573
0.00133952
0.600232
1
1
1
1
1
1
1
1
1
1
1
1
1
0.999985
0.999968
0.796799
0.0686333
0.00017543
0.000220536
4.57283e-05
5.30476e-06
1.01664e-06
2.37614e-07
5.32435e-08
1.21291e-08
2.83659e-09
6.9244e-10
2.61476e-10
1.83146e-10
1.44052e-10
1.07851e-10
7.23789e-11
4.44382e-11
2.52782e-11
1.43429e-11
5.20256e-12
4.72836e-19
5.92524e-17
3.25145e-15
3.26798e-14
2.26764e-13
2.75317e-12
4.40386e-11
7.04793e-10
1.21038e-08
4.29386e-07
2.00811e-05
0.00013611
0.000174036
0.525984
1
1
1
1
1
1
1
1
1
1
1
1
0.999998
0.999981
0.999932
0.690717
0.0160342
0.000208019
0.000242026
5.71039e-05
8.42773e-06
1.18486e-06
2.69935e-07
6.77129e-08
1.70291e-08
4.10014e-09
9.2e-10
2.7191e-10
1.98716e-10
1.72825e-10
1.37983e-10
9.81124e-11
6.44833e-11
3.95321e-11
2.40484e-11
9.69803e-12
6.83295e-19
1.59832e-16
8.0222e-15
7.19309e-14
2.57139e-13
2.34011e-12
3.235e-11
5.01712e-10
1.45975e-08
5.81985e-07
2.8665e-05
0.000143765
0.000147684
0.394497
0.998834
1
1
1
1
1
1
1
1
1
1
1
0.999995
0.999964
0.995595
0.444765
0.000198847
0.000201989
0.000208502
6.33476e-05
1.00523e-05
1.71697e-06
3.01378e-07
7.16146e-08
1.95436e-08
5.25393e-09
1.25716e-09
2.82511e-10
2.04781e-10
1.97115e-10
1.67457e-10
1.25313e-10
8.64403e-11
5.57408e-11
3.55476e-11
1.54024e-11
1.2697e-18
4.09447e-16
1.42145e-14
1.23555e-13
4.08977e-13
2.07834e-12
3.1021e-11
5.47422e-10
2.03381e-08
1.01304e-06
3.26526e-05
0.000230838
0.000150208
0.21816
0.945269
1
1
1
1
1
1
1
1
1
1
0.999999
0.99999
0.999945
0.868758
0.188408
0.0001844
0.000185756
0.000129746
6.14737e-05
9.39537e-06
2.65525e-06
4.03361e-07
7.83864e-08
2.06082e-08
5.8054e-09
1.52995e-09
2.90263e-10
2.16987e-10
2.16424e-10
1.93127e-10
1.52265e-10
1.09033e-10
7.25715e-11
4.75723e-11
2.15852e-11
3.07594e-18
8.22844e-16
2.1256e-14
1.72167e-13
6.59173e-13
2.45185e-12
3.50064e-11
7.52481e-10
3.78879e-08
1.46338e-06
3.45169e-05
0.000230603
0.000150586
0.0737784
0.788265
0.99994
0.999999
1
1
1
1
1
1
1
1
0.999998
0.999991
0.998147
0.505367
0.0209524
0.000465036
0.000486306
0.000149474
5.10303e-05
7.84112e-06
2.84681e-06
6.0781e-07
1.02649e-07
2.30759e-08
6.24524e-09
1.73804e-09
2.97348e-10
2.30356e-10
2.30157e-10
2.12299e-10
1.75275e-10
1.29907e-10
8.84318e-11
5.87612e-11
2.71896e-11
9.64042e-18
1.43095e-15
2.95818e-14
2.16275e-13
8.57416e-13
2.96262e-12
4.56176e-11
1.31975e-09
6.94876e-08
1.36493e-06
5.17895e-05
0.000216574
0.000140058
0.0101864
0.486099
0.987757
0.999991
1
1
1
1
1
1
1
0.999999
0.999993
0.999886
0.742439
0.0773045
3.11424e-05
0.000430823
0.000486843
0.000103923
2.76232e-05
7.23179e-06
2.51228e-06
7.0166e-07
1.48185e-07
3.01828e-08
7.23601e-09
1.97218e-09
3.016e-10
2.35671e-10
2.35709e-10
2.2266e-10
1.905e-10
1.45225e-10
1.00629e-10
6.74452e-11
3.06848e-11
2.9049e-17
2.13325e-15
3.69592e-14
2.58298e-13
1.0092e-12
3.52009e-12
7.10442e-11
2.70249e-09
8.01949e-08
3.61746e-06
5.69124e-05
3.70089e-05
0.000114174
0.000813034
0.154862
0.796504
0.999956
0.999998
0.999999
1
1
0.999999
0.999998
0.999996
0.999986
0.999886
0.82651
0.126707
8.94704e-07
3.0438e-05
8.85217e-05
8.09119e-05
0.000118062
3.79244e-05
4.98402e-06
1.95567e-06
6.57063e-07
1.74748e-07
4.05021e-08
9.43766e-09
2.37062e-09
3.28622e-10
2.38008e-10
2.36031e-10
2.28158e-10
2.01817e-10
1.573e-10
1.09738e-10
7.24016e-11
3.30307e-11
6.06159e-17
2.54166e-15
3.94801e-14
2.94269e-13
1.22031e-12
4.70208e-12
1.33401e-10
4.47084e-09
8.6907e-08
4.07858e-06
3.9583e-05
3.60625e-05
0.000289626
0.00176574
0.000110345
0.301512
0.941746
0.999967
0.999995
0.999998
0.999998
0.999996
0.999975
0.99989
0.994306
0.730562
0.121936
6.89476e-07
7.93966e-07
2.54381e-06
1.1047e-06
2.4801e-05
0.000118062
5.92929e-05
1.52719e-06
2.0112e-06
5.11515e-07
1.64111e-07
4.18024e-08
1.08182e-08
2.74973e-09
4.16818e-10
2.3987e-10
2.36457e-10
2.32236e-10
2.04356e-10
1.57356e-10
1.09573e-10
7.29063e-11
3.23251e-11
8.49846e-17
2.53778e-15
3.87369e-14
3.14363e-13
1.56166e-12
7.35927e-12
2.2788e-10
5.58706e-09
9.08229e-08
3.31165e-06
1.95789e-05
0.00016172
0.000591265
0.00117678
3.98281e-05
4.45277e-05
0.329529
0.893523
0.999062
0.9999
0.99992
0.999901
0.989816
0.846444
0.483821
0.0778494
6.89476e-07
6.15275e-07
7.92325e-07
6.08742e-07
6.19187e-07
3.59536e-05
0.000118062
4.66478e-05
9.11771e-07
1.4377e-06
3.82924e-07
1.22121e-07
3.84189e-08
1.01058e-08
2.59298e-09
4.46948e-10
2.38377e-10
2.38155e-10
2.32661e-10
2.02172e-10
1.54281e-10
1.07444e-10
7.12252e-11
2.89642e-11
9.23702e-17
2.44548e-15
3.66561e-14
3.15845e-13
1.87501e-12
1.14153e-11
2.92987e-10
5.73276e-09
9.13302e-08
2.33305e-06
3.27316e-05
0.000580196
0.000585179
7.0443e-05
2.62506e-05
2.73121e-05
4.45277e-05
0.191222
0.551049
0.723943
0.731238
0.633375
0.396201
0.164591
0.021038
1.34818e-05
1.32931e-05
2.23193e-07
1.44415e-07
5.05113e-07
5.52747e-07
2.99114e-05
9.53749e-05
1.02427e-05
7.92643e-07
4.43289e-07
2.52477e-07
7.40892e-08
2.85879e-08
8.32752e-09
2.15479e-09
4.07827e-10
2.3367e-10
2.40864e-10
2.31435e-10
1.96425e-10
1.47661e-10
1.02793e-10
6.69463e-11
2.3887e-11
9.08553e-17
2.21116e-15
3.36298e-14
3.1137e-13
2.0713e-12
1.43673e-11
3.08877e-10
5.33646e-09
8.95339e-08
1.34308e-06
2.23774e-05
0.000348481
0.000566649
6.02099e-08
1.35643e-05
0.000270223
0.000246947
2.55618e-05
2.18979e-06
0.0231112
0.0178941
1.99612e-06
1.74759e-05
3.35308e-05
4.93254e-05
0.000137048
2.47298e-05
6.16911e-08
5.0709e-08
7.24387e-07
2.10328e-06
3.05275e-05
2.62444e-05
4.10632e-07
1.4813e-06
5.88996e-07
5.72794e-08
6.11138e-08
1.42526e-08
5.7553e-09
1.46172e-09
3.18522e-10
2.29875e-10
2.40891e-10
2.28059e-10
1.8688e-10
1.38217e-10
9.57875e-11
5.98239e-11
1.76623e-11
8.17441e-17
1.87421e-15
3.07403e-14
3.01199e-13
2.07949e-12
1.50598e-11
2.84251e-10
4.46205e-09
7.12463e-08
1.44744e-06
1.62244e-05
9.14129e-05
0.000317787
2.54571e-08
1.02168e-06
1.77332e-07
3.07726e-05
4.57879e-05
2.03816e-06
1.93411e-06
1.82109e-06
1.66304e-06
3.20993e-05
5.71566e-05
4.09684e-05
1.63882e-05
7.05208e-06
4.78885e-07
1.6062e-08
7.39957e-07
2.37792e-06
3.67055e-05
2.89232e-05
1.60139e-07
1.42171e-06
8.3409e-07
3.31948e-08
3.05869e-08
5.18514e-09
3.04321e-09
7.82719e-10
2.36561e-10
2.26195e-10
2.4072e-10
2.19063e-10
1.74572e-10
1.27342e-10
8.69987e-11
5.00888e-11
1.11895e-11
6.48783e-17
1.64492e-15
2.93082e-14
2.86458e-13
1.98467e-12
1.42151e-11
2.25674e-10
2.96659e-09
2.13819e-08
4.52574e-06
7.58233e-05
8.78131e-05
9.75049e-05
2.23858e-08
1.08888e-07
1.27096e-07
6.6065e-08
1.62545e-08
2.55985e-06
2.4997e-06
1.81854e-06
1.60548e-06
7.22356e-07
2.96208e-06
2.28909e-06
1.11026e-06
6.21031e-08
1.26411e-07
1.19157e-08
5.03112e-07
8.38244e-07
3.70149e-05
4.78787e-05
9.97649e-08
5.83165e-07
9.27018e-07
4.41103e-08
5.47616e-09
4.61139e-09
5.99009e-10
3.68938e-10
2.15447e-10
2.22125e-10
2.3658e-10
2.06745e-10
1.61019e-10
1.15564e-10
7.61891e-11
3.81546e-11
5.71741e-12
5.09587e-17
1.56432e-15
2.91521e-14
2.73944e-13
1.78229e-12
1.18292e-11
1.51905e-10
1.61718e-09
1.11764e-09
8.58783e-06
0.000169905
0.000173126
5.81449e-07
2.09793e-08
7.22922e-08
2.10666e-07
1.57071e-07
1.02999e-08
3.45624e-09
5.8849e-10
5.28028e-10
4.81274e-10
4.48109e-10
3.40028e-08
1.31585e-07
9.13016e-08
4.14426e-08
7.61559e-10
1.53524e-09
2.53197e-08
1.73176e-07
3.37837e-05
5.19598e-05
9.57615e-08
8.45514e-08
9.27018e-07
1.45378e-08
2.89583e-09
5.50978e-09
2.54773e-10
2.15583e-10
2.13651e-10
2.19994e-10
2.28865e-10
1.93206e-10
1.46807e-10
1.02633e-10
6.29424e-11
2.5637e-11
2.27229e-12
4.39953e-17
1.57942e-15
2.96875e-14
2.70796e-13
1.58822e-12
9.22148e-12
1.17747e-10
1.01802e-09
2.30241e-09
8.0606e-06
0.000133137
0.000173374
9.49011e-07
2.09486e-08
2.09734e-08
2.43621e-08
1.89358e-08
1.60691e-08
4.67775e-09
1.76349e-09
1.27997e-09
4.69024e-10
4.45359e-10
4.45299e-10
4.30652e-09
5.53572e-09
2.6117e-09
7.47789e-10
6.73907e-10
1.50054e-09
8.83079e-09
2.68856e-05
5.3225e-05
5.02429e-06
9.93403e-09
3.44114e-07
2.56606e-08
1.6204e-09
4.85156e-09
2.17135e-10
2.13074e-10
2.13223e-10
2.1826e-10
2.20622e-10
1.78506e-10
1.31759e-10
8.79386e-11
4.77952e-11
1.49616e-11
7.00689e-13
4.32158e-17
1.6506e-15
3.08794e-14
2.73208e-13
1.49987e-12
7.50365e-12
1.07347e-10
9.85803e-10
3.10303e-09
1.03655e-05
5.54238e-05
0.000173588
4.19049e-07
2.09486e-08
2.09209e-08
2.09734e-08
2.53808e-08
4.43591e-08
1.42282e-07
1.80759e-09
1.80675e-09
4.45359e-10
4.453e-10
4.4527e-10
4.91633e-10
7.448e-10
5.66656e-10
4.84983e-10
5.05206e-10
9.69914e-10
4.67505e-09
1.88999e-05
5.33845e-05
2.89946e-05
5.43784e-09
1.69121e-08
7.02845e-08
1.16645e-09
1.0582e-09
2.07495e-10
2.10699e-10
2.13245e-10
2.17145e-10
2.10595e-10
1.62505e-10
1.15234e-10
7.11727e-11
3.25651e-11
7.5364e-12
1.56958e-13
4.54192e-17
1.79253e-15
3.26664e-14
2.80843e-13
1.50095e-12
6.75214e-12
1.0931e-10
1.72371e-09
8.4153e-09
1.16789e-05
3.19601e-05
0.000174098
1.56991e-07
2.09213e-08
2.09404e-08
1.54199e-07
5.7575e-07
9.16125e-07
7.00036e-07
1.88237e-09
2.25054e-09
4.4563e-10
4.4527e-10
4.45258e-10
4.45251e-10
4.47416e-10
4.47282e-10
4.49171e-10
4.48979e-10
4.73631e-10
7.63842e-08
1.18989e-05
5.33725e-05
3.78475e-05
3.62454e-09
2.39795e-08
7.24631e-08
1.30291e-09
2.06081e-10
2.04367e-10
2.09873e-10
2.13375e-10
2.1577e-10
1.98181e-10
1.44524e-10
9.65314e-11
5.30157e-11
1.95133e-11
3.27649e-12
1.88536e-14
5.08383e-17
1.99308e-15
3.50038e-14
2.94986e-13
1.55639e-12
7.07749e-12
1.1849e-10
3.00858e-09
2.31944e-08
7.36039e-06
3.72815e-05
0.000174524
1.62976e-07
2.11457e-08
2.18935e-08
7.02719e-07
2.2953e-06
1.90432e-06
2.09689e-07
1.95502e-09
2.20884e-09
4.47499e-10
4.45296e-10
4.45251e-10
4.45243e-10
4.45241e-10
4.4532e-10
4.46017e-10
4.46051e-10
4.87091e-10
3.94441e-07
4.59542e-06
5.25152e-05
3.14802e-05
2.34951e-09
2.29472e-08
6.93317e-08
2.35317e-10
2.01481e-10
2.02996e-10
2.10877e-10
2.12973e-10
2.12984e-10
1.82458e-10
1.23693e-10
7.56704e-11
3.54147e-11
1.01394e-11
1.22651e-12
7.63816e-16
6.0364e-17
2.2094e-15
3.6042e-14
3.07355e-13
1.67887e-12
8.11336e-12
1.25999e-10
2.63369e-09
6.12399e-08
1.70217e-06
9.39371e-05
0.000174213
3.23262e-08
2.21385e-08
2.29113e-08
6.00428e-07
1.38739e-06
7.13109e-09
2.32632e-09
2.15751e-09
1.62942e-09
4.67481e-10
4.63447e-10
4.46218e-10
4.45242e-10
4.45239e-10
4.45267e-10
4.45663e-10
4.47233e-10
1.77494e-09
8.05162e-07
1.23527e-06
2.28358e-05
3.25084e-05
1.89065e-09
9.59704e-09
1.35951e-08
2.0467e-10
1.95586e-10
2.01535e-10
2.11289e-10
2.12521e-10
2.07882e-10
1.61107e-10
9.98406e-11
5.4113e-11
2.07729e-11
4.53087e-12
3.92539e-13
-2.86807e-18
7.31563e-17
2.31099e-15
3.58496e-14
3.0748e-13
1.81038e-12
9.54618e-12
1.25371e-10
1.81543e-09
3.6156e-08
3.19229e-06
9.33219e-05
7.02405e-05
2.41947e-08
2.29279e-08
2.43063e-08
4.23338e-07
3.73858e-05
9.72433e-05
3.04248e-09
2.3263e-09
1.88199e-09
6.40453e-10
8.82636e-10
4.52155e-10
4.45239e-10
4.45239e-10
4.45257e-10
4.45448e-10
4.49202e-10
9.59022e-10
7.98394e-07
3.10474e-06
3.8114e-05
2.33285e-05
1.52746e-09
1.73918e-09
2.79229e-09
5.98609e-10
1.9249e-10
1.9725e-10
2.11045e-10
2.11501e-10
1.97746e-10
1.33473e-10
7.42462e-11
3.44802e-11
1.05315e-11
1.72542e-12
1.06014e-13
-5.89427e-19
8.37253e-17
2.3039e-15
3.51219e-14
3.04147e-13
1.85817e-12
1.03924e-11
1.2067e-10
1.0769e-09
7.39806e-09
3.23503e-06
9.24065e-05
5.91737e-07
2.50726e-08
2.43099e-08
4.31127e-08
2.12139e-05
0.000317526
0.000354339
7.35639e-09
3.03597e-09
4.56127e-09
1.95018e-08
1.22802e-09
4.45256e-10
4.45239e-10
4.4524e-10
4.45253e-10
4.45358e-10
4.57612e-10
9.43583e-08
5.43723e-07
8.58052e-06
3.90483e-05
1.92542e-05
1.3925e-09
2.05336e-09
4.49495e-09
7.31062e-10
1.91055e-10
1.93407e-10
2.10773e-10
2.0987e-10
1.77036e-10
1.0154e-10
4.97065e-11
1.91714e-11
4.54178e-12
5.47921e-13
2.28073e-14
-1.18891e-19
8.85784e-17
2.24908e-15
3.34161e-14
2.94185e-13
1.84491e-12
1.03974e-11
1.06838e-10
6.91255e-10
7.72546e-10
1.77283e-06
9.22108e-05
1.97588e-05
2.07177e-05
4.04998e-08
1.18979e-07
0.00011867
0.000427916
0.00042392
3.38088e-08
7.26363e-09
1.10545e-07
8.15425e-08
4.45661e-10
4.45383e-10
4.45276e-10
4.45246e-10
4.45361e-10
4.49351e-10
3.33689e-08
4.23403e-07
5.00642e-07
1.45888e-05
3.90483e-05
2.39109e-05
1.21916e-09
2.60225e-09
4.59932e-09
5.13615e-10
1.90324e-10
1.91684e-10
2.10136e-10
2.04262e-10
1.43026e-10
6.93375e-11
2.93156e-11
9.1041e-12
1.62711e-12
1.38505e-13
2.88199e-15
-2.35059e-20
8.8472e-17
2.10994e-15
3.05087e-14
2.74057e-13
1.79356e-12
1.01583e-11
7.33277e-11
8.78464e-10
9.47196e-10
2.78515e-07
9.14387e-05
8.62266e-05
7.36378e-05
9.87815e-08
3.79481e-07
0.000152055
0.000428247
0.000425959
2.20169e-06
3.47748e-08
1.13089e-06
5.78879e-08
4.46064e-10
4.45665e-10
4.45638e-10
4.46114e-10
4.49353e-10
4.9552e-10
2.31895e-07
6.19024e-07
8.41805e-07
2.58943e-05
3.90483e-05
2.45218e-05
1.0663e-09
2.00358e-09
2.05208e-09
2.02246e-10
1.8919e-10
1.9791e-10
2.08901e-10
1.85834e-10
1.00777e-10
4.16347e-11
1.48921e-11
3.59312e-12
4.62145e-13
2.46128e-14
1.74678e-16
-4.56585e-21
8.51494e-17
1.88043e-15
2.65552e-14
2.45168e-13
1.69427e-12
9.65669e-12
2.67819e-11
1.73947e-09
1.31247e-09
1.69436e-09
7.50085e-05
8.508e-05
8.13638e-05
3.88073e-07
7.01195e-07
0.000142962
0.000428661
0.000401688
4.23533e-06
2.1296e-06
1.32572e-06
9.46956e-09
4.47334e-10
4.46068e-10
4.45984e-10
4.56167e-10
4.24186e-09
1.6929e-07
4.02586e-07
4.10501e-07
3.739e-06
3.84391e-05
3.9023e-05
1.25644e-05
9.27508e-10
9.90472e-10
5.30539e-10
1.83095e-10
1.88201e-10
2.02527e-10
2.04497e-10
1.46682e-10
6.0788e-11
2.16068e-11
6.34079e-12
1.13312e-12
9.77363e-14
2.31149e-15
4.38049e-18
-8.73562e-22
7.72633e-17
1.5847e-15
2.20027e-14
2.09911e-13
1.5313e-12
8.80224e-12
1.06042e-11
2.39908e-09
1.14279e-09
1.09135e-09
1.62873e-05
8.13638e-05
7.53721e-05
6.94845e-07
1.3871e-05
0.000398038
0.000428899
0.000399061
1.99027e-06
6.79535e-06
4.7515e-07
4.58427e-10
4.50482e-10
4.48697e-10
4.50063e-10
4.85182e-10
8.83912e-08
2.87039e-07
3.57384e-07
3.49599e-07
6.87191e-06
3.77746e-05
3.82451e-05
5.99239e-08
7.4468e-10
9.81819e-10
4.34462e-10
1.75948e-10
1.86921e-10
2.0079e-10
1.85738e-10
9.41594e-11
3.11026e-11
9.52184e-12
2.185e-12
2.69912e-13
1.24464e-14
1.4847e-16
2.84366e-19
-1.64964e-22
6.58915e-17
1.2624e-15
1.73492e-14
1.71644e-13
1.31845e-12
7.64716e-12
1.59428e-11
2.39543e-09
4.41943e-10
6.13187e-10
2.65945e-07
8.05891e-05
7.61152e-05
1.16959e-06
5.72688e-05
0.000429239
0.000429091
0.00042089
3.08227e-07
6.00817e-06
5.55682e-10
4.83218e-10
5.01999e-10
4.52287e-10
4.84261e-10
1.41857e-09
1.6441e-07
2.88739e-07
7.0994e-08
2.4942e-07
6.02415e-06
2.27525e-05
1.28321e-05
3.00059e-10
6.50971e-10
1.01743e-09
3.91261e-10
1.71896e-10
1.85247e-10
1.96999e-10
1.3658e-10
4.78064e-11
1.3479e-11
3.46542e-12
5.76602e-13
4.3676e-14
1.01956e-15
2.37533e-17
6.86023e-20
-3.08054e-23
5.24018e-17
9.52719e-16
1.308e-14
1.34309e-13
1.08655e-12
6.50878e-12
9.00091e-12
2.3026e-09
2.00105e-10
2.95982e-07
4.27911e-07
4.53063e-05
7.55309e-05
1.96363e-06
0.000102522
0.000429239
0.000429232
0.000425259
7.53165e-08
2.01692e-08
8.77661e-10
8.18646e-10
8.75741e-10
4.77042e-10
6.40444e-10
6.21705e-09
1.75363e-07
2.8301e-07
2.46602e-08
5.49571e-07
3.05865e-06
6.67585e-07
5.2341e-08
3.96518e-10
5.54201e-10
1.00398e-09
2.99412e-10
1.68807e-10
1.82504e-10
1.7032e-10
7.52181e-11
1.99233e-11
4.9228e-12
9.99628e-13
1.12009e-13
4.41713e-15
1.45656e-16
5.30583e-18
1.39454e-20
-5.69949e-24
3.90495e-17
6.86819e-16
9.50172e-15
1.0097e-13
8.55196e-13
5.22425e-12
1.01055e-11
1.33175e-09
1.42409e-10
8.5793e-07
9.97814e-07
1.7896e-06
7.1252e-05
2.70801e-05
0.000102716
0.000429235
0.000429222
0.000319679
2.43421e-07
5.68837e-08
1.74416e-09
1.60861e-09
1.29148e-09
3.17468e-09
1.25229e-09
2.02074e-08
1.95772e-07
2.03452e-07
1.80975e-08
2.68038e-07
1.46139e-07
1.06043e-07
7.18762e-09
3.13874e-10
2.7927e-10
7.08771e-10
2.15802e-10
1.68214e-10
1.72666e-10
1.10444e-10
3.12463e-11
6.96333e-12
1.48295e-12
2.19075e-13
1.41767e-14
5.45061e-16
3.18436e-17
1.0669e-18
2.87614e-21
-1.04679e-24
2.75524e-17
4.78141e-16
6.71317e-15
7.33763e-14
6.43488e-13
4.00215e-12
1.52539e-11
4.02227e-10
1.12899e-10
2.87386e-07
2.29386e-07
2.26886e-07
2.01633e-05
7.69553e-05
0.000120429
0.000429223
0.000428948
9.85124e-05
4.3339e-07
2.2051e-06
1.21325e-06
1.53487e-09
1.36724e-09
1.99708e-08
4.68595e-08
1.09218e-07
1.93605e-07
8.27662e-08
1.8035e-09
1.56143e-08
2.98049e-08
2.30535e-08
1.68855e-09
2.27118e-10
1.98037e-10
2.94959e-10
1.87063e-10
1.60222e-10
1.30819e-10
5.07277e-11
1.04574e-11
2.07866e-12
3.55256e-13
3.54528e-14
1.68164e-15
1.16211e-16
6.8355e-18
2.15264e-19
6.02287e-22
-1.91221e-25
1.86769e-17
3.25446e-16
4.65638e-15
5.19545e-14
4.67147e-13
2.98611e-12
1.75782e-11
2.19362e-10
1.06754e-10
-1.51058e-10
1.30876e-08
6.20674e-08
1.71175e-05
5.04507e-05
0.000148624
0.000429097
0.00042882
5.80328e-05
6.83045e-07
5.26425e-06
5.06765e-06
1.86788e-09
1.84334e-09
3.93274e-08
1.38534e-07
1.98529e-07
1.98529e-07
8.05681e-08
6.82974e-10
1.78414e-09
6.66762e-09
5.25646e-09
5.19657e-10
1.91898e-10
1.81895e-10
1.94302e-10
1.72816e-10
1.33242e-10
7.06178e-11
1.72955e-11
2.99956e-12
5.25466e-13
6.81711e-14
4.65257e-15
3.32414e-16
2.61251e-17
1.4204e-18
4.37817e-20
1.27389e-22
-3.48067e-26
1.23695e-17
2.19068e-16
3.19597e-15
3.61626e-14
3.30844e-13
2.19639e-12
1.71093e-11
1.6093e-10
9.06689e-11
-3.54216e-10
3.80423e-09
1.72504e-08
5.41511e-05
2.14572e-05
0.00010223
0.000428815
0.000425926
3.41188e-05
1.28597e-06
5.26322e-06
5.24608e-06
1.9383e-09
2.70229e-09
6.48273e-08
1.85368e-07
1.9853e-07
1.98523e-07
7.58253e-08
3.9189e-10
6.63183e-10
1.29894e-09
1.30747e-09
2.77028e-10
1.73936e-10
1.7484e-10
1.87177e-10
1.43658e-10
8.24845e-11
2.74067e-11
4.80051e-12
7.70626e-13
1.13108e-13
1.08666e-14
8.18475e-16
7.42623e-17
5.57825e-18
2.97312e-19
8.99146e-21
2.71866e-23
-6.32395e-27
8.12901e-18
1.4708e-16
2.18278e-15
2.49552e-14
2.3124e-13
1.60427e-12
1.53435e-11
1.10541e-10
9.04516e-11
5.77281e-11
1.13369e-09
1.07922e-07
5.91148e-05
2.14572e-05
2.25122e-05
0.000267193
0.00022452
9.61227e-06
3.80143e-06
5.2672e-06
4.7282e-06
2.20438e-09
4.12935e-09
7.96588e-08
1.53324e-07
1.66678e-07
1.13658e-07
2.36358e-08
3.10989e-10
3.89774e-10
5.10156e-10
4.58942e-10
1.9419e-10
1.67631e-10
1.67258e-10
1.696e-10
9.45664e-11
3.68668e-11
8.27567e-12
1.20895e-12
1.80671e-13
2.18418e-14
1.85458e-15
1.84086e-16
1.65867e-17
1.20036e-18
6.28343e-20
1.87752e-21
5.91504e-24
-1.14866e-27
5.36366e-18
9.89486e-17
1.48736e-15
1.71728e-14
1.61357e-13
1.17353e-12
1.28016e-11
6.44221e-11
8.66804e-11
8.84504e-11
3.87275e-10
4.16181e-05
5.91792e-05
2.71039e-05
8.0354e-06
1.09237e-05
3.045e-06
1.30504e-07
5.21863e-06
5.25638e-06
1.14843e-06
2.55109e-09
7.40875e-09
8.28257e-08
1.21197e-07
8.9153e-09
2.18516e-09
3.05012e-10
2.95809e-10
3.4212e-10
3.57623e-10
2.56873e-10
1.66655e-10
1.60209e-10
1.58184e-10
1.20506e-10
4.68844e-11
1.26632e-11
2.17578e-12
2.96389e-13
4.02029e-14
4.14539e-15
4.0813e-16
4.16225e-17
3.66121e-18
2.60795e-19
1.34354e-20
3.9716e-22
1.30887e-24
-2.08868e-28
3.57188e-18
6.67614e-17
1.01143e-15
1.18226e-14
1.13196e-13
8.6298e-13
1.05176e-11
3.31274e-11
1.14303e-10
1.07457e-10
1.96767e-10
3.84246e-05
5.91792e-05
2.44924e-05
3.38684e-06
1.59885e-06
2.05924e-07
1.23629e-07
2.92587e-06
5.21771e-06
2.12731e-07
3.02655e-09
1.738e-08
9.02853e-08
8.7812e-08
1.6553e-10
1.91963e-10
2.22083e-10
2.77999e-10
3.06275e-10
3.07761e-10
2.01149e-10
1.55114e-10
1.48511e-10
1.2688e-10
6.44987e-11
1.82937e-11
3.7719e-12
5.53379e-13
7.33819e-14
9.04293e-15
8.92669e-16
9.80579e-17
9.58449e-18
8.17731e-19
5.729e-20
2.91018e-21
8.51651e-23
2.94581e-25
-3.80675e-29
2.394e-18
4.51487e-17
6.85748e-16
8.14301e-15
7.99072e-14
6.36518e-13
8.7432e-12
1.8003e-11
1.72119e-10
2.09525e-10
1.0015e-10
4.49554e-06
2.97778e-05
8.51336e-06
1.78944e-05
3.46409e-06
1.23629e-07
1.21506e-07
8.29051e-08
5.17736e-06
9.02655e-07
4.27995e-09
2.46849e-08
9.02991e-08
6.86088e-08
1.30695e-10
1.39821e-10
1.98903e-10
2.67924e-10
2.80196e-10
2.7589e-10
1.83759e-10
1.41843e-10
1.22432e-10
7.82488e-11
2.7277e-11
6.22326e-12
1.08324e-12
1.4558e-13
1.88341e-14
2.17884e-15
2.24391e-16
2.41276e-17
2.25681e-18
1.86122e-19
1.27446e-20
6.39331e-22
1.8519e-23
6.74121e-26
-6.96104e-30
1.59896e-18
3.10931e-17
4.7051e-16
5.60565e-15
5.65597e-14
4.67633e-13
6.95548e-12
1.1923e-11
1.80966e-10
2.40985e-10
8.51198e-11
-2.12519e-08
5.62867e-07
3.42699e-06
2.19116e-05
1.99911e-05
2.22419e-06
9.80756e-08
7.70432e-08
5.1481e-06
1.59033e-06
6.25056e-09
2.5076e-08
8.95236e-08
6.28254e-08
1.26127e-10
1.29832e-10
1.84551e-10
2.51527e-10
2.60979e-10
2.42576e-10
1.63413e-10
1.18328e-10
8.33933e-11
3.80848e-11
1.01395e-11
2.03482e-12
3.16984e-13
4.06097e-14
5.11644e-15
5.78197e-16
6.19247e-17
6.17224e-18
5.50164e-19
4.30003e-20
2.86874e-21
1.42679e-22
4.08394e-24
1.56836e-26
-1.27816e-30
1.07325e-18
2.36055e-17
3.51596e-16
3.92406e-15
3.99975e-14
3.39104e-13
5.00865e-12
9.39096e-12
1.58053e-10
2.32664e-10
4.44202e-11
-6.28853e-09
1.90612e-07
1.20546e-05
2.23396e-05
2.24118e-05
6.58163e-06
6.7362e-08
3.85912e-08
5.00064e-06
1.57847e-06
8.29996e-09
2.31949e-08
8.83775e-08
6.12836e-08
1.26038e-10
1.25836e-10
1.72458e-10
2.36088e-10
2.43663e-10
2.08629e-10
1.33204e-10
8.49345e-11
4.68108e-11
1.61201e-11
3.67036e-12
6.74466e-13
9.64103e-14
1.203e-14
1.48323e-15
1.68359e-16
1.82468e-17
1.70145e-18
1.41515e-19
1.05141e-20
6.66402e-22
3.23182e-23
9.13293e-25
3.6703e-27
-2.35816e-31
7.98329e-19
2.1801e-17
3.16352e-16
3.00697e-15
2.83593e-14
2.40992e-13
3.22684e-12
8.01431e-12
1.11789e-10
1.74328e-10
3.43029e-11
-7.83319e-10
4.21306e-08
2.22568e-05
2.24321e-05
2.24118e-05
6.30801e-06
4.0641e-08
3.01783e-08
2.94131e-06
1.47091e-06
9.84308e-09
1.97775e-08
8.84679e-08
6.59872e-08
1.25836e-10
1.23947e-10
1.57457e-10
2.21677e-10
2.24536e-10
1.69927e-10
9.7546e-11
5.29703e-11
2.31235e-11
6.5822e-12
1.36788e-12
2.30623e-13
3.0738e-14
3.76575e-15
4.55779e-16
5.22313e-17
5.70291e-18
5.13352e-19
3.98127e-20
2.78619e-21
1.60707e-22
7.45963e-24
2.07018e-25
8.69628e-28
-4.37365e-32
7.5406e-19
2.24755e-17
3.22702e-16
2.76193e-15
2.08701e-14
1.68265e-13
1.92656e-12
6.93789e-12
6.91351e-11
1.10159e-10
3.02009e-11
3.41779e-12
9.32291e-09
2.19273e-05
2.23396e-05
2.22228e-05
2.49593e-06
3.01779e-08
2.89665e-08
2.79234e-06
1.92385e-06
1.16494e-08
1.3401e-08
8.84641e-08
8.49388e-08
5.27963e-09
1.229e-10
1.2719e-10
2.06161e-10
2.00909e-10
1.28745e-10
6.4504e-11
2.98053e-11
1.08788e-11
2.74937e-12
5.29749e-13
8.16852e-14
1.03101e-14
1.23802e-15
1.46396e-16
1.67353e-17
1.83102e-18
1.65376e-19
1.25243e-20
7.92315e-22
4.34188e-23
1.80924e-24
4.79473e-26
2.08391e-28
-8.1577e-33
7.96525e-19
2.5295e-17
3.52969e-16
2.82282e-15
1.7587e-14
1.17967e-13
1.11957e-12
5.92132e-12
4.6325e-11
7.29163e-11
2.88499e-11
1.8522e-11
2.06477e-09
9.46705e-06
2.22448e-05
8.9166e-06
2.65841e-07
2.46856e-08
2.74507e-08
3.25786e-06
2.80992e-06
8.04491e-09
6.8904e-09
8.1128e-08
8.40784e-08
4.50596e-08
1.22293e-10
1.229e-10
1.9065e-10
1.7216e-10
9.15761e-11
3.99831e-11
1.60484e-11
5.14054e-12
1.18965e-12
2.11495e-13
3.00122e-14
3.63224e-15
4.24642e-16
4.86399e-17
5.46804e-18
5.92989e-19
5.48866e-20
4.2526e-21
2.56063e-22
1.30654e-23
4.96938e-25
1.15025e-26
5.04524e-29
-1.53071e-33
9.58938e-19
3.17146e-17
4.2431e-16
3.07019e-15
1.74035e-14
8.77799e-14
6.6183e-13
4.89643e-12
3.3847e-11
5.42035e-11
2.75838e-11
2.74931e-11
8.92048e-10
1.9988e-09
4.60017e-06
9.10699e-07
1.11361e-07
1.73571e-08
1.71279e-08
3.26481e-06
2.97191e-06
1.62428e-08
3.3659e-09
5.32658e-08
8.24486e-08
3.89126e-08
1.21993e-10
1.22317e-10
1.74966e-10
1.41463e-10
6.2694e-11
2.42937e-11
8.64043e-12
2.48811e-12
5.29838e-13
8.65809e-14
1.14476e-14
1.33667e-15
1.50998e-16
1.66581e-17
1.82339e-18
1.93737e-19
1.81714e-20
1.45606e-21
9.22541e-23
4.24557e-24
1.50778e-25
2.96861e-27
1.2263e-29
-2.89044e-34
1.33318e-18
4.21391e-17
5.40809e-16
3.60029e-15
1.80619e-14
7.61997e-14
4.19224e-13
3.84411e-12
2.47285e-11
4.19279e-11
2.52354e-11
2.5201e-11
1.46192e-10
1.46974e-09
1.14924e-07
1.13954e-07
2.39687e-08
1.71279e-08
1.70357e-08
3.28908e-06
2.5194e-06
2.69776e-08
2.26086e-09
2.03959e-08
7.50291e-08
5.18155e-09
1.21852e-10
1.21993e-10
1.5963e-10
1.119e-10
4.2248e-11
1.48484e-11
4.7374e-12
1.23424e-12
2.41361e-13
3.63565e-14
4.52997e-15
5.10199e-16
5.5365e-17
5.87601e-18
6.21943e-19
6.38785e-20
6.00797e-21
4.91906e-22
3.28649e-23
1.57696e-24
5.15845e-26
9.77531e-28
2.94162e-30
-5.49272e-35
1.95752e-18
5.47842e-17
6.72731e-16
4.37359e-15
1.975e-14
7.60026e-14
3.03973e-13
2.84163e-12
1.73214e-11
3.24518e-11
2.37848e-11
2.3442e-11
4.89627e-11
8.83385e-11
1.85029e-08
1.88685e-08
1.73323e-08
1.70411e-08
1.71022e-08
3.36075e-06
2.1682e-06
1.62867e-08
1.83279e-09
1.78675e-09
8.63034e-09
1.21852e-10
1.21738e-10
1.2471e-10
1.4453e-10
8.56238e-11
2.83704e-11
9.18484e-12
2.64614e-12
6.24376e-13
1.12185e-13
1.56829e-14
1.85339e-15
2.00554e-16
2.08433e-17
2.13089e-18
2.17072e-19
2.13478e-20
1.98892e-21
1.63397e-22
1.13209e-23
5.86705e-25
2.11685e-26
3.65921e-28
7.18114e-31
-1.04801e-35
2.78042e-18
6.72344e-17
7.84456e-16
5.08969e-15
2.22916e-14
7.79884e-14
2.61442e-13
2.11503e-12
1.20116e-11
2.53626e-11
2.22261e-11
2.18259e-11
2.59007e-11
-7.15246e-11
2.76986e-09
1.28673e-08
1.14576e-07
3.08326e-08
1.70325e-08
3.4558e-06
1.91263e-06
8.87783e-09
8.37508e-10
5.38345e-10
2.75173e-10
1.21738e-10
1.21551e-10
1.2622e-10
1.29882e-10
6.36824e-11
1.90722e-11
5.73654e-12
1.49882e-12
3.20743e-13
5.31405e-14
6.94098e-15
7.79279e-16
8.06624e-17
8.02734e-18
7.91717e-19
7.74618e-20
7.27427e-21
6.57986e-22
5.38673e-23
3.76241e-24
2.10957e-25
8.11531e-27
1.57306e-28
2.29277e-31
-2.394e-36
3.68441e-18
7.70131e-17
8.48223e-16
5.49386e-15
2.4471e-14
8.16132e-14
2.54854e-13
1.84815e-12
9.20936e-12
2.0992e-11
2.08078e-11
2.0833e-11
2.03475e-11
2.5867e-11
7.16066e-10
2.68643e-08
2.52034e-07
1.05705e-07
1.95503e-08
3.61594e-06
1.97115e-06
9.78652e-09
7.76749e-10
4.93887e-10
1.40066e-10
1.23104e-10
1.21629e-10
1.25422e-10
1.12752e-10
4.63833e-11
1.28469e-11
3.60462e-12
8.5752e-13
1.6683e-13
2.55915e-14
3.13727e-15
3.34274e-16
3.30034e-17
3.15012e-18
2.99948e-19
2.81731e-20
2.52649e-21
2.17789e-22
1.76769e-23
1.23287e-24
7.08568e-26
3.05665e-27
7.04082e-29
1.98906e-31
-7.81789e-37
4.5106e-18
8.23521e-17
8.62482e-16
5.56575e-15
2.52431e-14
8.45307e-14
2.56869e-13
1.85046e-12
8.40732e-12
1.87783e-11
1.98477e-11
2.34662e-11
2.35243e-11
2.50354e-11
1.90131e-10
2.28678e-07
2.48881e-07
1.33597e-07
3.30328e-07
3.80357e-06
2.39868e-06
3.38468e-08
1.43497e-09
5.17495e-10
1.19475e-10
1.24859e-10
1.21382e-10
1.23437e-10
9.40675e-11
3.32812e-11
8.65942e-12
2.2706e-12
4.93875e-13
8.75965e-14
1.24752e-14
1.43855e-15
1.45235e-16
1.3665e-17
1.25347e-18
1.15203e-19
1.03845e-20
8.89447e-22
7.26306e-23
5.77054e-24
4.0007e-25
2.2998e-26
1.0273e-27
2.96647e-29
2.1631e-31
-3.12048e-37
5.10743e-18
8.34829e-17
8.55377e-16
5.511e-15
2.5117e-14
8.47763e-14
2.60216e-13
1.88622e-12
8.42903e-12
1.77377e-11
1.91145e-11
4.01712e-11
3.27386e-11
3.15392e-11
2.33186e-08
2.32762e-07
1.90236e-07
1.30245e-07
2.7036e-06
3.82079e-06
2.5691e-06
3.81535e-08
3.12068e-09
7.5955e-10
1.10557e-10
1.24256e-10
1.20766e-10
1.1858e-10
7.59167e-11
2.35904e-11
5.82331e-12
1.42768e-12
2.85055e-13
4.62274e-14
6.12011e-15
6.64402e-16
6.35e-17
5.69609e-18
5.02864e-19
4.45737e-20
3.85463e-21
3.15574e-22
2.45205e-23
1.8713e-24
1.28332e-25
7.33733e-27
3.28543e-28
1.05214e-29
1.65744e-31
-2.48526e-38
5.40102e-18
8.27234e-17
8.2548e-16
5.29716e-15
2.44069e-14
8.35779e-14
2.60991e-13
1.90377e-12
8.54158e-12
1.68686e-11
1.8861e-11
7.71102e-11
7.21041e-11
5.76514e-11
1.87004e-08
1.95342e-07
5.69651e-09
9.62402e-07
3.81971e-06
3.81747e-06
1.82206e-06
1.73474e-08
4.01072e-09
1.64955e-09
1.01391e-10
1.19428e-10
1.20262e-10
1.10252e-10
5.94857e-11
1.65184e-11
3.89027e-12
8.91347e-13
1.63906e-13
2.43779e-14
3.00221e-15
3.06976e-16
2.7774e-17
2.37765e-18
2.02162e-19
1.7267e-20
1.4325e-21
1.12249e-22
8.33721e-24
6.02121e-25
4.06721e-26
2.30685e-27
1.0298e-28
3.33967e-30
6.56337e-32
-1.9077e-39
5.42753e-18
7.95595e-17
7.61041e-16
4.85698e-15
2.27369e-14
7.97244e-14
2.58774e-13
1.87372e-12
8.59999e-12
1.57561e-11
1.91436e-11
1.08925e-10
1.12801e-10
7.65705e-11
5.71458e-09
1.32872e-08
2.32585e-09
1.08961e-06
3.72261e-06
3.36684e-06
5.06054e-07
1.67737e-08
3.80002e-09
2.5563e-09
8.82138e-11
1.12493e-10
1.19186e-10
9.86636e-11
4.53094e-11
1.14085e-11
2.5686e-12
5.49362e-13
9.32554e-14
1.27624e-14
1.46332e-15
1.41007e-16
1.20854e-17
9.8848e-19
8.09634e-20
6.659e-21
5.30167e-22
3.98034e-23
2.82687e-24
1.9263e-25
1.27341e-26
7.13919e-28
3.17062e-29
1.01241e-30
1.76954e-32
-2.4944e-40
5.34238e-18
7.3277e-17
6.80089e-16
4.35759e-15
2.07343e-14
7.37166e-14
2.55897e-13
1.74983e-12
8.45885e-12
1.4382e-11
1.97479e-11
1.09668e-10
1.15915e-10
8.95625e-11
9.39936e-11
6.24032e-10
1.58032e-09
2.83592e-07
1.51351e-06
5.60354e-07
4.47194e-08
1.13386e-08
3.72439e-09
2.47317e-09
7.54137e-11
1.04522e-10
1.16629e-10
8.46921e-11
3.34861e-11
7.75319e-12
1.66695e-12
3.32296e-13
5.21517e-14
6.58983e-15
7.04518e-16
6.40318e-17
5.2043e-18
4.07134e-19
3.21252e-20
2.54346e-21
1.94436e-22
1.39952e-23
9.49812e-25
6.14968e-26
3.93359e-27
2.17143e-28
9.55985e-30
3.01093e-31
4.78475e-33
-1.02956e-39
5.11928e-18
6.86583e-17
6.47759e-16
4.21285e-15
2.02388e-14
7.10306e-14
2.57669e-13
1.60395e-12
7.90834e-12
1.29687e-11
1.95424e-11
9.00679e-11
8.65839e-11
8.65431e-11
1.49548e-09
1.6235e-09
1.86735e-09
1.86238e-09
1.4772e-08
2.05708e-08
7.77623e-09
4.82491e-09
4.8533e-09
2.19193e-09
5.14775e-11
9.46754e-11
1.11682e-10
6.96728e-11
2.39311e-11
5.16869e-12
1.05738e-12
1.96175e-13
2.84962e-14
3.33611e-15
3.33267e-16
2.85996e-17
2.20713e-18
1.65322e-19
1.25679e-20