/*--------------------------------*- C++ -*----------------------------------*\
  =========                 |
  \\      /  F ield         | OpenFOAM: The Open Source CFD Toolbox
   \\    /   O peration     | Website:  https://openfoam.org
    \\  /    A nd           | Version:  9
     \\/     M anipulation  |
\*---------------------------------------------------------------------------*/
FoamFile
{
    format      ascii;
    class       volScalarField;
    location    "0.03";
    object      p;
}
// * * * * * * * * * * * * * * * * * * * * * * * * * * * * * * * * * * * * * //

dimensions      [1 -1 -2 0 0 0 0];

internalField   nonuniform List<scalar> 
5000
(
0.399728
0.384956
0.367679
0.347134
0.32232
0.292004
0.254568
0.207158
0.143687
0.0532933
-0.0662164
-0.192494
-0.39332
18.3624
29.6763
29.0389
29.0402
29.1714
29.1943
29.1721
29.1363
29.0798
29.0027
28.9122
28.8123
28.6818
28.4727
28.216
27.9878
22.8964
0.695947
0.19789
0.211545
0.21167
0.22652
0.245951
0.269321
0.294961
0.321053
0.346356
0.370244
0.392507
0.413173
0.432365
0.450224
0.466883
0.482453
0.497019
0.51061
0.523405
0.38982
0.374493
0.356657
0.335633
0.310649
0.28069
0.244144
0.198443
0.13898
0.0564543
-0.0526653
-0.178006
-0.344971
13.8779
29.163
28.4734
28.7471
29.0788
29.1901
29.1905
29.1625
29.1055
29.0216
28.9197
28.8133
28.6816
28.4334
28.1331
28.0347
15.9706
0.262882
0.235696
0.246283
0.235373
0.24292
0.255777
0.273838
0.295662
0.319362
0.343379
0.366697
0.388806
0.409537
0.428901
0.44698
0.463876
0.479689
0.494495
0.50832
0.521366
0.380635
0.364946
0.346825
0.325693
0.300962
0.271873
0.237142
0.194642
0.141552
0.0726766
-0.0159049
-0.116671
-0.217566
7.01517
28.3036
27.2101
28.1474
28.9109
29.1816
29.2274
29.2105
29.1518
29.0569
28.9427
28.8422
28.7564
28.6261
28.7808
29.2208
5.89898
0.27243
0.26403
0.264711
0.253481
0.254601
0.262271
0.276066
0.294778
0.316544
0.339566
0.36252
0.384633
0.405552
0.425182
0.44355
0.460733
0.476822
0.491888
0.505962
0.519293
0.372186
0.356268
0.338078
0.317154
0.293033
0.265211
0.232934
0.194653
0.148608
0.0944505
0.0302187
-0.0255383
-0.0804855
1.19345
23.7134
25.8088
27.7403
28.8697
29.2344
29.3018
29.2878
29.221
29.1099
28.9732
28.7952
28.5556
28.2181
28.9579
22.5689
2.29197
0.284322
0.269389
0.261084
0.255117
0.254137
0.260048
0.272242
0.2898
0.310945
0.333818
0.356958
0.379447
0.400823
0.420923
0.439739
0.457337
0.4738
0.489189
0.503505
0.517085
0.364467
0.348431
0.330308
0.309774
0.286509
0.26025
0.230714
0.197139
0.158703
0.118419
0.0828536
0.0833182
0.0476674
-0.0263364
14.0804
26.5419
28.0466
29.0278
29.3947
29.4256
29.4005
29.3239
29.1928
28.9728
28.4847
27.7554
26.7188
27.5086
8.78099
0.669536
0.283868
0.29311
0.231998
0.2331
0.238554
0.24767
0.261675
0.280391
0.302422
0.3261
0.350026
0.373278
0.395365
0.416103
0.435481
0.453568
0.470467
0.486263
0.500964
0.514938
0.357407
0.341347
0.323398
0.303355
0.281057
0.256464
0.229638
0.200654
0.170313
0.143016
0.135578
0.150318
0.129291
0.288193
5.92732
27.3503
28.3589
29.0134
29.538
29.5688
29.5479
29.4673
29.2832
28.8766
27.8919
26.6949
25.8177
16.902
1.68188
0.320644
0.27666
0.322997
0.198327
0.20906
0.219736
0.232558
0.249216
0.26974
0.293116
0.317901
0.3428
0.366922
0.389783
0.411198
0.431162
0.449756
0.4671
0.48331
0.498447
0.512878
0.350939
0.334923
0.317212
0.2977
0.276361
0.25336
0.22897
0.20368
0.179868
0.161743
0.168837
0.204791
0.166155
0.211515
2.37246
16.8612
27.8115
28.4092
29.4656
29.6534
29.6848
29.5616
29.2928
29.1541
28.1151
26.0322
21.8896
3.08968
0.242122
0.248145
0.238775
0.202084
0.226224
0.210332
0.215295
0.226177
0.24221
0.262701
0.286333
0.311527
0.336921
0.361573
0.384956
0.406859
0.427258
0.446228
0.463886
0.480339
0.495664
0.510505
0.345014
0.329077
0.311621
0.29262
0.272144
0.250499
0.228069
0.205213
0.184725
0.171109
0.165075
0.189128
0.162621
0.347215
0.114582
5.40669
23.8052
27.6774
29.6343
29.8099
29.7793
29.6021
29.522
30.9909
29.6524
17.3806
3.03023
0.176496
0.216372
0.22497
0.225224
0.209464
0.248003
0.210346
0.213787
0.224199
0.239624
0.259681
0.282968
0.307948
0.33326
0.357941
0.381429
0.403474
0.424023
0.443127
0.460885
0.477385
0.492679
0.507311
0.33958
0.323735
0.306518
0.287962
0.268195
0.24758
0.226534
0.205049
0.185138
0.170674
0.157884
0.162252
0.191024
0.214237
0.204696
0.292774
6.92899
24.1358
31.0482
30.6681
30.1158
30.3371
30.7409
23.4112
9.57961
2.02569
0.195122
0.205545
0.212359
0.217368
0.217331
0.20742
0.252134
0.208098
0.212041
0.223264
0.239244
0.259288
0.282271
0.30685
0.331746
0.356092
0.379345
0.40125
0.421747
0.440889
0.458787
0.475566
0.491342
0.5066
0.334589
0.318828
0.301812
0.283606
0.264377
0.244473
0.224314
0.203721
0.183821
0.169501
0.159118
0.306551
0.244585
0.186663
0.216601
0.27366
0.205927
3.66655
12.5729
21.8768
22.9484
16.8837
6.6898
2.57612
0.659055
0.208748
0.203557
0.210288
0.213747
0.215702
0.214789
0.212988
0.238603
0.207814
0.214552
0.226199
0.242193
0.261884
0.284242
0.308041
0.332185
0.355854
0.378537
0.399989
0.420142
0.439033
0.456759
0.473423
0.489159
0.504532
0.330003
0.314305
0.297438
0.279475
0.260615
0.241177
0.221571
0.201839
0.183116
0.172193
0.173146
0.230366
0.269167
0.207668
0.216276
0.293882
0.226946
0.261124
0.245339
0.282462
0.308839
0.209801
0.198644
0.225573
0.230852
0.23814
0.213103
0.213983
0.216811
0.218073
0.217131
0.221875
0.219293
0.218593
0.224293
0.234715
0.249614
0.268089
0.289126
0.311594
0.334481
0.357034
0.378756
0.399399
0.418873
0.437195
0.45444
0.470694
0.486096
0.501264
0.325795
0.310132
0.293354
0.275527
0.256869
0.237673
0.218298
0.199046
0.181437
0.172932
0.183312
0.190908
0.209877
0.198805
0.207588
0.190761
0.209792
0.230483
0.222445
0.210477
0.222354
0.2135
0.211475
0.223553
0.223575
0.219598
0.216347
0.218275
0.221911
0.224038
0.224057
0.235773
0.231361
0.232187
0.236993
0.246428
0.259911
0.276777
0.296085
0.316829
0.338104
0.359195
0.379652
0.399216
0.417777
0.435325
0.451911
0.467592
0.482479
0.497138
0.321947
0.306288
0.289531
0.271732
0.253096
0.233878
0.214295
0.194516
0.176103
0.165165
0.174974
0.189259
0.181519
0.189703
0.194657
0.188685
0.19621
0.209212
0.21541
0.217061
0.221243
0.217539
0.215826
0.217126
0.22044
0.219422
0.219024
0.222513
0.227423
0.231994
0.235541
0.245463
0.253678
0.242516
0.248883
0.258381
0.270567
0.285961
0.303525
0.322467
0.342011
0.361529
0.380587
0.39892
0.416401
0.433
0.44874
0.463636
0.477833
0.492068
0.318449
0.302762
0.285957
0.268079
0.249286
0.229766
0.209554
0.188461
0.167808
0.154101
0.192962
0.187499
0.175947
0.177693
0.178084
0.174776
0.179367
0.191915
0.204675
0.214018
0.218961
0.218324
0.217341
0.217631
0.218298
0.2182
0.219799
0.224366
0.230673
0.237547
0.244604
0.252948
0.270631
0.25372
0.26092
0.269721
0.280509
0.294312
0.310164
0.327389
0.345297
0.363307
0.381003
0.398123
0.414532
0.430188
0.445096
0.459233
0.472734
0.48644
0.3153
0.299552
0.282638
0.264586
0.245487
0.225448
0.204338
0.181775
0.158822
0.143719
0.160295
0.177401
0.156641
0.15863
0.157212
0.154107
0.15838
0.172261
0.190382
0.205541
0.213149
0.214804
0.21436
0.213839
0.213683
0.214272
0.217093
0.222569
0.229762
0.237716
0.245943
0.254739
0.276771
0.263339
0.27004
0.277735
0.287791
0.300251
0.314726
0.330579
0.347159
0.363923
0.380475
0.396563
0.412051
0.426893
0.441076
0.454529
0.467362
0.480484
0.312507
0.296673
0.279608
0.261307
0.24179
0.221079
0.198877
0.174685
0.149255
0.131213
0.128802
0.158821
0.133986
0.134957
0.132712
0.129466
0.134072
0.149885
0.17243
0.192501
0.203318
0.20694
0.207057
0.206204
0.205917
0.207184
0.210911
0.217045
0.224668
0.23279
0.240801
0.248448
0.273417
0.266885
0.272188
0.280067
0.290011
0.302115
0.316041
0.331185
0.346964
0.362894
0.378623
0.393928
0.408688
0.422862
0.436429
0.449294
0.46156
0.474205
0.310086
0.294149
0.27691
0.258311
0.238302
0.216806
0.193331
0.167178
0.138662
0.115534
0.10896
0.137777
0.109043
0.109648
0.106556
0.10261
0.107321
0.125003
0.15174
0.176025
0.190052
0.195461
0.196235
0.19545
0.195383
0.197294
0.201765
0.208458
0.216399
0.224477
0.231882
0.237744
0.266188
0.262082
0.267467
0.276287
0.287182
0.299878
0.314052
0.329135
0.344628
0.36013
0.37536
0.39014
0.40438
0.418057
0.431151
0.44356
0.455389
0.467629
0.308056
0.292012
0.274592
0.255675
0.235137
0.2128
0.187977
0.1597
0.12811
0.0980935
0.0859795
0.120924
0.08443
0.0851721
0.0807548
0.0754426
0.0797234
0.0982217
0.129106
0.157275
0.174294
0.181341
0.182876
0.182425
0.182769
0.185284
0.190408
0.197687
0.20616
0.214705
0.22272
0.229031
0.256742
0.25268
0.258452
0.269012
0.281353
0.295076
0.30985
0.325186
0.340673
0.355995
0.370939
0.385378
0.399255
0.412566
0.425296
0.437347
0.448826
0.460706
0.306437
0.290299
0.272704
0.253475
0.232421
0.209251
0.183139
0.152826
0.118989
0.0824935
0.0729754
0.097001
0.0662481
0.0638645
0.0572104
0.0496844
0.0521896
0.0713382
0.106157
0.137279
0.157121
0.165686
0.168012
0.168017
0.168826
0.17186
0.177518
0.185362
0.194586
0.204262
0.213577
0.222335
0.233201
0.247448
0.248764
0.261341
0.274914
0.289493
0.304754
0.320307
0.33581
0.351007
0.365738
0.379913
0.393502
0.406512
0.418934
0.430676
0.441851
0.453398
0.305251
0.289049
0.2713
0.25179
0.230263
0.206327
0.179073
0.14682
0.109642
0.0712025
0.0608101
0.0517959
0.050832
0.0462909
0.0376157
0.0273898
0.0288968
0.05001
0.0828626
0.117564
0.139857
0.149718
0.152696
0.153075
0.154245
0.157611
0.16357
0.171754
0.181493
0.191977
0.202283
0.211588
0.23467
0.236553
0.245673
0.256629
0.269798
0.284323
0.299592
0.31511
0.330506
0.345531
0.36004
0.373963
0.387281
0.400009
0.412141
0.423594
0.434484
0.445701
0.304519
0.288295
0.270436
0.2507
0.228778
0.204195
0.176009
0.142464
0.103022
0.0633169
0.0520117
0.0467981
0.0380741
0.0325448
0.0237152
0.013122
0.0469567
0.0752461
0.0635716
0.101404
0.124458
0.134776
0.137942
0.138337
0.139621
0.143015
0.148947
0.157139
0.167049
0.177965
0.18907
0.199409
0.226076
0.226639
0.23803
0.250094
0.263741
0.278515
0.293912
0.309449
0.324767
0.339638
0.353942
0.367625
0.380681
0.393128
0.40497
0.416138
0.426745
0.437615
0.304257
0.288063
0.270156
0.250277
0.228072
0.203023
0.174193
0.140092
0.0998134
0.0598984
0.0430455
0.0315363
0.0224466
0.0229553
0.0165094
0.0107607
0.0722409
0.0797247
0.0562973
0.0927319
0.112931
0.121978
0.124441
0.124547
0.12547
0.128501
0.134022
0.141855
0.151594
0.162655
0.174518
0.186356
0.210404
0.214729
0.2269
0.240678
0.255649
0.271352
0.287327
0.303156
0.318559
0.333371
0.347521
0.360987
0.373784
0.385943
0.397479
0.408346
0.418651
0.429135
0.30448
0.288369
0.270491
0.250567
0.228213
0.202915
0.173733
0.139468
0.0990354
0.0589537
0.0365184
0.0247424
0.0177298
0.0190192
0.0156762
0.0118014
0.0679105
0.0723898
0.0652258
0.0907518
0.105692
0.111793
0.112858
0.112191
0.112277
0.114558
0.119289
0.126405
0.13562
0.146495
0.158671
0.172767
0.193516
0.200338
0.214401
0.230256
0.246859
0.263745
0.280471
0.296706
0.312256
0.327036
0.341031
0.354262
0.366767
0.378595
0.389778
0.400295
0.410249
0.420282
0.305202
0.289229
0.27146
0.251595
0.229231
0.203873
0.174571
0.140299
0.0998726
0.0589447
0.0298112
0.0187811
0.0127216
0.0175303
0.0148147
0.0193745
0.0683219
0.0727532
0.0761302
0.0915007
0.101387
0.104406
0.103669
0.101748
0.10078
0.101907
0.105529
0.111654
0.120148
0.13058
0.142606
0.163108
0.179241
0.185485
0.202927
0.220872
0.239073
0.257037
0.274393
0.290911
0.306496
0.321139
0.334882
0.347782
0.359902
0.371308
0.382049
0.392129
0.401646
0.411144
0.306432
0.290661
0.273083
0.253379
0.231139
0.205883
0.176662
0.142542
0.102372
0.0610011
0.0270896
0.0165723
0.0079097
0.0164605
0.00954514
0.0293645
0.0661143
0.0759933
0.0836121
0.0940536
0.0993323
0.100005
0.0974729
0.0941286
0.091812
0.0915705
0.0939116
0.0989187
0.106502
0.116387
0.127815
0.15426
0.168473
0.177428
0.195647
0.214793
0.233954
0.252496
0.270081
0.286561
0.301919
0.316208
0.329512
0.341917
0.353505
0.364355
0.374529
0.384051
0.393015
0.401883
0.308174
0.292679
0.275374
0.255934
0.233948
0.208944
0.180004
0.146233
0.106674
0.0650308
0.0309121
0.0176578
0.00683509
0.0153159
0.0054181
0.0381997
0.0657507
0.0824241
0.0849085
0.094309
0.099845
0.0990737
0.0950863
0.0903701
0.0866389
0.0850041
0.0861039
0.0901585
0.0971351
0.10685
0.119554
0.140091
0.153888
0.171822
0.192259
0.212577
0.232234
0.250832
0.268172
0.284214
0.299013
0.312671
0.325301
0.337006
0.347883
0.358017
0.36748
0.376307
0.384588
0.392732
0.310421
0.295279
0.278335
0.259267
0.237665
0.213056
0.184572
0.151295
0.11242
0.070623
0.0348222
0.0132473
0.00815161
0.00856092
0.0052004
0.0379944
0.0654193
0.0878338
0.0837966
0.0975518
0.103614
0.102388
0.0974923
0.0917032
0.0867745
0.0839935
0.0841545
0.0876089
0.0945072
0.104673
0.118675
0.13425
0.153154
0.173648
0.194532
0.215004
0.234401
0.252431
0.269012
0.284193
0.298085
0.310821
0.322529
0.333323
0.343304
0.352561
0.361167
0.369162
0.376636
0.38397
0.313159
0.298445
0.281951
0.263365
0.242275
0.218201
0.190327
0.157686
0.119498
0.0779588
0.0409365
0.0166598
0.00166478
-0.00218653
-0.00144476
0.037827
0.0656347
0.0755945
0.0869834
0.104562
0.11166
0.11076
0.105703
0.0994174
0.0938017
0.0903658
0.0900678
0.0933917
0.100586
0.111513
0.125727
0.142828
0.16218
0.182595
0.202932
0.222466
0.240709
0.257476
0.272759
0.286656
0.299301
0.310834
0.321387
0.33107
0.339985
0.348218
0.355838
0.362878
0.369431
0.375891
0.316369
0.30215
0.286196
0.268201
0.247748
0.224353
0.197243
0.165414
0.127986
0.086436
0.0479391
0.0202802
0.00555225
-0.00256851
-0.0198986
0.0465452
0.0633227
0.0820816
0.0962532
0.11488
0.124398
0.124845
0.12062
0.11466
0.10909
0.105641
0.105382
0.108928
0.116557
0.127951
0.142615
0.159826
0.178608
0.197877
0.216698
0.234462
0.250852
0.265788
0.279324
0.291575
0.302681
0.312773
0.32197
0.330376
0.338083
0.345172
0.3517
0.357687
0.363236
0.368774
0.32003
0.306369
0.291041
0.273738
0.254045
0.231481
0.205299
0.174465
0.137905
0.0963528
0.0557205
0.0229111
0.00456795
-0.0148422
-0.0205612
0.0541947
0.0834864
0.0858003
0.105855
0.128872
0.142653
0.145173
0.14286
0.138175
0.133485
0.130647
0.130796
0.134697
0.142507
0.153836
0.168023
0.18419
0.201316
0.21846
0.234908
0.250228
0.264241
0.276938
0.288402
0.298748
0.308101
0.316575
0.324271
0.331278
0.337675
0.343535
0.3489
0.35377
0.358258
0.36285
0.324115
0.311075
0.296451
0.279937
0.261126
0.239547
0.214472
0.184842
0.149389
0.108127
0.0655689
0.0282406
0.00217742
-0.0136412
-0.00987513
0.0744419
0.106145
0.0868651
0.1159
0.146139
0.165209
0.17187
0.172529
0.170035
0.16696
0.165157
0.165911
0.169961
0.177393
0.187775
0.20039
0.21437
0.228832
0.243035
0.256475
0.268883
0.280173
0.290375
0.299568
0.307851
0.315323
0.322076
0.328186
0.333725
0.338757
0.343343
0.347508
0.351231
0.354634
0.358275
0.328593
0.316237
0.302389
0.286753
0.268942
0.248504
0.224731
0.196571
0.162648
0.122412
0.0790001
0.0393513
0.0171944
0.00225803
0.00108787
0.0467718
0.0715925
0.0936953
0.130706
0.168003
0.192936
0.204683
0.20913
0.209519
0.208518
0.20795
0.209166
0.212869
0.219129
0.227569
0.237571
0.248425
0.259465
0.270177
0.280236
0.289487
0.297896
0.305491
0.312334
0.318493
0.324033
0.329034
0.333535
0.337587
0.341242
0.344548
0.347514
0.350093
0.352419
0.355122
0.333423
0.321809
0.308804
0.294129
0.277431
0.258282
0.236014
0.209622
0.17774
0.139457
0.0967463
0.0632397
0.0406191
0.0190328
0.0230262
0.0407479
0.0696233
0.107915
0.152265
0.195115
0.225644
0.242843
0.251535
0.255166
0.256351
0.256901
0.258145
0.260793
0.265015
0.270619
0.277207
0.284314
0.291518
0.298501
0.30507
0.311131
0.31666
0.32167
0.32619
0.330258
0.333912
0.337171
0.340083
0.342674
0.344979
0.347035
0.348832
0.350301
0.351586
0.353378
0.338561
0.327736
0.31563
0.301992
0.286506
0.268779
0.248203
0.223859
0.194512
0.159135
0.119204
0.0887207
0.0643169
0.0437718
0.046934
0.0634995
0.0918083
0.131254
0.178026
0.226777
0.262798
0.285061
0.298086
0.304944
0.308075
0.309318
0.309953
0.310799
0.312248
0.314386
0.31711
0.32022
0.32351
0.326806
0.329991
0.332993
0.335775
0.338319
0.340622
0.342687
0.344521
0.346134
0.347536
0.348736
0.349756
0.350622
0.35131
0.35173
0.352033
0.352957
0.343958
0.333958
0.322796
0.310256
0.296063
0.27986
0.261124
0.239052
0.212593
0.180755
0.144624
0.109658
0.0851803
0.0688698
0.0702093
0.0884047
0.118649
0.159958
0.209172
0.262218
0.302627
0.329806
0.346887
0.356559
0.361135
0.362431
0.361767
0.360176
0.358362
0.356745
0.355515
0.354709
0.354277
0.354136
0.354198
0.354387
0.354641
0.354915
0.35517
0.355382
0.355532
0.355609
0.355604
0.355509
0.355334
0.355093
0.354751
0.354204
0.353603
0.353712
0.349566
0.340412
0.330227
0.318829
0.305982
0.291375
0.274576
0.254915
0.231527
0.203524
0.171608
0.139734
0.116033
0.102646
0.103084
0.120801
0.149915
0.192985
0.244074
0.299883
0.344236
0.37554
0.396002
0.407774
0.413107
0.41375
0.411183
0.406739
0.401477
0.396137
0.391164
0.386765
0.382986
0.379784
0.377074
0.374764
0.372767
0.371007
0.369423
0.367963
0.366589
0.365273
0.363989
0.362717
0.361454
0.360206
0.358931
0.357512
0.356097
0.355452
0.355333
0.347038
0.337849
0.327616
0.316142
0.303167
0.288351
0.271162
0.250906
0.226836
0.199334
0.171244
0.149187
0.135633
0.139097
0.156738
0.185933
0.229291
0.281573
0.338487
0.38628
0.420661
0.443571
0.456604
0.461948
0.461299
0.456411
0.44896
0.440343
0.431571
0.42327
0.415746
0.40909
0.403266
0.398178
0.393714
0.389765
0.386232
0.383034
0.380101
0.37738
0.374828
0.372408
0.37009
0.367859
0.365718
0.363614
0.361429
0.359299
0.357967
0.361208
0.353776
0.345588
0.336523
0.326422
0.315082
0.302253
0.287534
0.270386
0.250247
0.227283
0.203517
0.184136
0.175586
0.177817
0.195246
0.224528
0.26781
0.320106
0.376676
0.427363
0.463627
0.487999
0.501489
0.506134
0.503713
0.496308
0.485935
0.474276
0.46253
0.451425
0.441308
0.432276
0.424283
0.417216
0.410947
0.405348
0.400307
0.395727
0.391527
0.387641
0.384018
0.380612
0.377384
0.374313
0.371394
0.368572
0.365728
0.362985
0.361039
0.367139
0.360564
0.353368
0.345454
0.336704
0.326974
0.316093
0.303792
0.289713
0.273342
0.254877
0.235762
0.220198
0.214799
0.21827
0.235692
0.264502
0.307263
0.358662
0.414947
0.465692
0.503101
0.528078
0.541311
0.544679
0.540201
0.530299
0.51728
0.503028
0.488847
0.475498
0.463324
0.452405
0.442678
0.434015
0.426275
0.419321
0.413029
0.407295
0.40203
0.397162
0.392633
0.38839
0.38439
0.380605
0.377025
0.373595
0.3702
0.366945
0.364456
0.373074
0.36734
0.36111
0.354314
0.346873
0.338699
0.329694
0.319689
0.308458
0.295694
0.281554
0.267144
0.255744
0.25152
0.258839
0.275109
0.304562
0.346115
0.395991
0.451159
0.500809
0.538377
0.563059
0.575379
0.577077
0.570455
0.558246
0.54298
0.526652
0.510593
0.495544
0.481817
0.469464
0.458403
0.448497
0.439597
0.431561
0.424263
0.417592
0.411457
0.405783
0.400506
0.395572
0.390934
0.38656
0.382432
0.378499
0.374655
0.370982
0.368025
0.378962
0.374041
0.36874
0.363014
0.356823
0.350128
0.342889
0.335026
0.326431
0.316964
0.306805
0.296847
0.289595
0.28801
0.295908
0.313841
0.343246
0.383293
0.431071
0.484059
0.531645
0.569092
0.592534
0.603407
0.603214
0.594522
0.58032
0.563269
0.545393
0.527988
0.511738
0.496909
0.483526
0.47149
0.460659
0.450881
0.442015
0.433934
0.426528
0.419707
0.413392
0.40752
0.402034
0.396885
0.392038
0.387472
0.383138
0.37894
0.374941
0.371584
0.384757
0.380611
0.37619
0.371475
0.366459
0.361143
0.355535
0.349626
0.343409
0.336876
0.330254
0.324306
0.32091
0.322517
0.331977
0.350668
0.379461
0.41772
0.463004
0.513246
0.558622
0.593986
0.616223
0.625385
0.623247
0.612692
0.59688
0.578523
0.559602
0.541332
0.524321
0.508787
0.494725
0.482028
0.470551
0.460147
0.450677
0.442019
0.434065
0.426726
0.419925
0.413598
0.40769
0.402149
0.396939
0.392035
0.387392
0.382931
0.378686
0.374993
0.390417
0.387
0.383402
0.379629
0.3757
0.371646
0.367511
0.363344
0.359218
0.355231
0.351659
0.349175
0.349206
0.3537
0.364908
0.384168
0.412228
0.448516
0.491041
0.538214
0.580825
0.613774
0.634349
0.641573
0.637536
0.625407
0.608394
0.589192
0.569682
0.550967
0.533575
0.517673
0.503234
0.490146
0.478269
0.46746
0.457588
0.448535
0.440201
0.432498
0.425352
0.4187
0.412487
0.406663
0.401191
0.39604
0.391174
0.386528
0.382114
0.378143
0.395907
0.393167
0.39033
0.387421
0.384479
0.381555
0.378722
0.376072
0.373741
0.371905
0.370884
0.371287
0.374228
0.381222
0.393981
0.41365
0.440834
0.475067
0.514716
0.558664
0.598248
0.628565
0.647231
0.652367
0.646579
0.63318
0.615373
0.595752
0.576052
0.557252
0.539797
0.52381
0.50925
0.496003
0.483936
0.472915
0.462818
0.453534
0.444969
0.43704
0.429675
0.422814
0.416403
0.410395
0.40475
0.399436
0.394422
0.389663
0.385144
0.380951
0.401192
0.399076
0.396934
0.394805
0.392741
0.390806
0.389096
0.387736
0.386904
0.386833
0.387872
0.390584
0.395856
0.404851
0.418832
0.438707
0.464938
0.497031
0.53385
0.574547
0.611104
0.63883
0.655001
0.658188
0.650883
0.636553
0.61834
0.598677
0.579129
0.560544
0.543291
0.527455
0.512986
0.499776
0.487699
0.476632
0.466464
0.457092
0.448428
0.440393
0.432921
0.425954
0.41944
0.413334
0.407596
0.402193
0.397099
0.392288
0.387723
0.383357
0.406246
0.404698
0.403182
0.401744
0.400442
0.399354
0.398586
0.39829
0.398671
0.399998
0.402635
0.407104
0.414129
0.424593
0.439409
0.459258
0.484372
0.514333
0.5484
0.586009
0.619649
0.644641
0.658358
0.659594
0.651005
0.636075
0.617807
0.598428
0.579315
0.561192
0.544355
0.528864
0.514663
0.501653
0.489718
0.478748
0.46864
0.459302
0.450652
0.442618
0.435136
0.428153
0.421618
0.41549
0.409729
0.404301
0.399186
0.394378
0.389819
0.385324
0.411044
0.410008
0.409045
0.408206
0.407551
0.407164
0.407164
0.407715
0.409039
0.411421
0.415232
0.420954
0.42919
0.44061
0.455853
0.475388
0.499238
0.527089
0.558649
0.593293
0.624159
0.646423
0.657727
0.657094
0.647488
0.63227
0.614261
0.59544
0.576995
0.55953
0.543283
0.528293
0.514505
0.501829
0.490163
0.479408
0.469472
0.460271
0.451732
0.443787
0.436379
0.429455
0.422971
0.416886
0.411163
0.405766
0.400681
0.395924
0.391413
0.386832
0.415568
0.414984
0.414501
0.414166
0.414043
0.414219
0.414819
0.416012
0.418027
0.421155
0.425758
0.432286
0.441245
0.45315
0.468436
0.487348
0.509905
0.535723
0.565272
0.596871
0.624939
0.644619
0.653526
0.651186
0.640843
0.625635
0.608155
0.59012
0.572529
0.555878
0.540357
0.525992
0.512733
0.5005
0.489205
0.478762
0.469089
0.460112
0.451763
0.443983
0.436717
0.429917
0.423543
0.417557
0.411923
0.406605
0.401595
0.396929
0.392505
0.387875
0.419805
0.419613
0.419532
0.41961
0.419908
0.420515
0.421556
0.423202
0.425678
0.429271
0.434332
0.441275
0.450534
0.462506
0.477476
0.495556
0.516651
0.540626
0.567969
0.596953
0.622503
0.639608
0.64614
0.642372
0.631554
0.616628
0.599912
0.582845
0.566253
0.550536
0.535845
0.522201
0.50956
0.497857
0.487017
0.476963
0.467627
0.458942
0.450848
0.443292
0.436225
0.429603
0.423387
0.417546
0.412045
0.406846
0.401948
0.397407
0.393103
0.388455
0.423748
0.423884
0.424132
0.424533
0.425147
0.426061
0.427397
0.429319
0.432048
0.435858
0.441086
0.448112
0.457311
0.468993
0.48334
0.500375
0.519986
0.542053
0.566938
0.593836
0.617211
0.63175
0.636005
0.631073
0.620056
0.605671
0.589918
0.573966
0.55848
0.543784
0.53
0.517148
0.505194
0.494086
0.483762
0.474158
0.465215
0.456876
0.449088
0.441805
0.434981
0.428578
0.422562
0.416904
0.41157
0.406523
0.401768
0.397381
0.393223
0.388587
0.427391
0.427797
0.428301
0.428941
0.429774
0.43088
0.432374
0.434414
0.437206
0.441016
0.44616
0.452988
0.461828
0.472929
0.486403
0.502232
0.520333
0.54067
0.563671
0.588537
0.609448
0.621402
0.623538
0.617678
0.606755
0.593155
0.57853
0.563801
0.549499
0.535884
0.523059
0.511048
0.499829
0.489362
0.479599
0.470489
0.461981
0.454028
0.446585
0.43961
0.433065
0.426914
0.421128
0.415681
0.410543
0.405675
0.401088
0.396877
0.392886
0.388287
0.430735
0.431352
0.432046
0.432849
0.433809
0.435002
0.436531
0.438542
0.441231
0.444849
0.449695
0.456091
0.464328
0.47461
0.487015
0.501512
0.518077
0.536822
0.558204
0.581067
0.59944
0.60884
0.609098
0.602572
0.592041
0.579442
0.566075
0.552647
0.539576
0.527075
0.51524
0.504098
0.493643
0.483848
0.474677
0.46609
0.458046
0.450507
0.443435
0.436795
0.430554
0.42468
0.419147
0.413934
0.409013
0.404344
0.399944
0.395926
0.392117
0.387577
0.433783
0.43456
0.435383
0.436277
0.437283
0.438465
0.439915
0.441767
0.444203
0.447462
0.451827
0.457597
0.465032
0.474308
0.48549
0.498572
0.513619
0.530904
0.550797
0.571636
0.587374
0.594282
0.592965
0.586178
0.576295
0.564874
0.552857
0.540773
0.528952
0.517577
0.506742
0.496482
0.486805
0.477696
0.469132
0.461085
0.453523
0.446416
0.439732
0.433444
0.427524
0.421943
0.416681
0.411717
0.407027
0.402573
0.398373
0.394559
0.390944
0.386478
0.436539
0.437429
0.438327
0.43925
0.440227
0.44131
0.442578
0.444152
0.446203
0.448959
0.452688
0.457668
0.464139
0.47226
0.482103
0.493723
0.507308
0.523243
0.5417
0.560405
0.573417
0.577969
0.575538
0.568832
0.559872
0.549761
0.539149
0.528421
0.517845
0.507589
0.497746
0.488364
0.479463
0.471043
0.463091
0.45559
0.448517
0.44185
0.435564
0.429638
0.424048
0.418771
0.413788
0.409084
0.404635
0.400403
0.396412
0.39281
0.389394
0.385017
0.439012
0.439975
0.4409
0.441795
0.442675
0.443578
0.44457
0.445761
0.447311
0.449437
0.452396
0.456448
0.461819
0.468664
0.477085
0.487225
0.499424
0.514326
0.531506
0.547521
0.55773
0.560205
0.557131
0.550909
0.543098
0.534388
0.525197
0.515808
0.506452
0.497286
0.488412
0.479892
0.471755
0.464014
0.456669
0.44971
0.443125
0.436898
0.431013
0.425452
0.420196
0.415226
0.410527
0.406086
0.401882
0.397877
0.394099
0.39071
0.387496
0.383218
0.441209
0.44221
0.443122
0.443937
0.444658
0.445309
0.445943
0.446656
0.447602
0.448988
0.45106
0.454064
0.458217
0.463683
0.470618
0.479282
0.490139
0.503856
0.519363
0.532948
0.540479
0.541353
0.538099
0.532753
0.526267
0.519008
0.511221
0.50313
0.494945
0.486828
0.478887
0.471197
0.463801
0.456722
0.449968
0.443541
0.437436
0.431644
0.426154
0.420955
0.416031
0.411368
0.406951
0.402774
0.398815
0.395036
0.391471
0.388294
0.385279
0.381107
0.443145
0.444153
0.445012
0.445702
0.44621
0.446545
0.446745
0.446899
0.44715
0.447697
0.448775
0.450622
0.453447
0.457438
0.462834
0.470018
0.479638
0.491944
0.505509
0.516747
0.521854
0.521782
0.518891
0.514714
0.509655
0.503845
0.497409
0.49055
0.483475
0.476349
0.469295
0.462397
0.455708
0.449263
0.443081
0.437169
0.431529
0.426161
0.421057
0.416212
0.411614
0.407251
0.403113
0.399194
0.395475
0.391919
0.388562
0.385592
0.382771
0.37871
0.444831
0.445819
0.446593
0.447117
0.447363
0.447324
0.447027
0.446548
0.446023
0.445642
0.445626
0.446203
0.447586
0.45001
0.453813
0.459544
0.46786
0.478687
0.490247
0.499019
0.502222
0.501917
0.499882
0.497096
0.49351
0.489093
0.483926
0.478213
0.472169
0.465969
0.459745
0.453591
0.447571
0.441729
0.43609
0.43067
0.425478
0.420516
0.415786
0.411283
0.407
0.402928
0.399059
0.395391
0.391905
0.388565
0.385409
0.382637
0.380002
0.376053
0.446282
0.447226
0.447886
0.448208
0.448151
0.447689
0.446839
0.445663
0.444289
0.44289
0.441676
0.440862
0.440678
0.441431
0.443578
0.447887
0.454801
0.463969
0.473443
0.479944
0.482131
0.482196
0.481467
0.480179
0.478035
0.474912
0.470906
0.466239
0.461138
0.455789
0.450332
0.444869
0.439474
0.434196
0.429069
0.424115
0.419346
0.414772
0.410397
0.406221
0.40224
0.398446
0.394835
0.391406
0.388143
0.385008
0.382044
0.379459
0.376999
0.373164
0.447515
0.448392
0.448912
0.449004
0.448607
0.447683
0.446231
0.444302
0.442006
0.439499
0.436966
0.434616
0.432718
0.431671
0.432165
0.434966
0.440361
0.44781
0.455174
0.459947
0.462118
0.463171
0.463994
0.464208
0.463396
0.461432
0.458459
0.454726
0.450473
0.445893
0.441135
0.436307
0.431487
0.426733
0.422083
0.417564
0.413193
0.408984
0.404944
0.401077
0.39738
0.39385
0.390482
0.387279
0.384225
0.381283
0.3785
0.37609
0.373792
0.37007
0.448543
0.449336
0.449696
0.449533
0.448769
0.447349
0.445256
0.44252
0.439229
0.435503
0.431502
0.427442
0.423648
0.420703
0.419454
0.420681
0.424536
0.430222
0.435791
0.439786
0.442781
0.445322
0.447756
0.449368
0.449717
0.44875
0.44667
0.443752
0.440246
0.436353
0.432223
0.427968
0.423673
0.419398
0.415187
0.411071
0.40707
0.4032
0.399472
0.395893
0.392463
0.389178
0.386038
0.383045
0.380187
0.377425
0.374809
0.37256
0.370411
0.366801
0.449381
0.450075
0.450258
0.449823
0.448673
0.446733
0.443962
0.440364
0.43599
0.430906
0.425252
0.419264
0.413402
0.408474
0.405447
0.405085
0.407437
0.411575
0.415944
0.420266
0.424796
0.429024
0.432976
0.435776
0.437078
0.436932
0.435599
0.433375
0.430516
0.427223
0.423648
0.419906
0.416083
0.412242
0.408431
0.404683
0.401021
0.397463
0.394024
0.39071
0.387526
0.384468
0.381538
0.37874
0.37606
0.373464
0.371002
0.368899
0.366886
0.363385
0.45004
0.450626
0.450622
0.449904
0.448354
0.445876
0.442394
0.437869
0.432296
0.425673
0.418139
0.410004
0.401958
0.395011
0.390248
0.38843
0.389445
0.392518
0.396611
0.402191
0.408695
0.414547
0.419777
0.423493
0.425521
0.426015
0.425285
0.423637
0.421325
0.418548
0.415456
0.412164
0.408759
0.405307
0.401856
0.39844
0.395085
0.391812
0.388635
0.385564
0.382604
0.379754
0.377015
0.374393
0.371878
0.369433
0.36711
0.365139
0.363246
0.359853
0.450528
0.451002
0.450808
0.449802
0.447846
0.444814
0.440581
0.435041
0.428119
0.419729
0.410086
0.399654
0.389388
0.380508
0.374205
0.371169
0.371307
0.374019
0.37882
0.386315
0.39481
0.402028
0.408187
0.412524
0.415052
0.416014
0.415748
0.414561
0.4127
0.410357
0.407678
0.404776
0.401737
0.398628
0.395495
0.392376
0.389297
0.386278
0.383338
0.380487
0.377729
0.375065
0.372499
0.370037
0.367669
0.365359
0.363163
0.361308
0.359521
0.356235
0.450853
0.451215
0.450833
0.449543
0.447179
0.443573
0.438531
0.431851
0.423378
0.413031
0.401087
0.388337
0.375984
0.36544
0.357936
0.354126
0.354024
0.357257
0.363532
0.373122
0.383291
0.39146
0.398159
0.402828
0.405649
0.40692
0.406991
0.406158
0.404657
0.40267
0.400337
0.397766
0.395043
0.39223
0.389377
0.386519
0.383683
0.380891
0.378161
0.375504
0.372927
0.37043
0.368018
0.365699
0.363461
0.361274
0.35919
0.357436
0.355743
0.352562
0.451017
0.451273
0.450711
0.449147
0.446376
0.442163
0.436221
0.42824
0.418048
0.405566
0.39132
0.376438
0.362346
0.350582
0.342391
0.338437
0.338798
0.343286
0.351329
0.362802
0.374087
0.382725
0.38959
0.394336
0.397266
0.398707
0.399
0.398425
0.3972
0.395497
0.393446
0.391152
0.388694
0.386135
0.383523
0.380891
0.378267