/*--------------------------------*- C++ -*----------------------------------*\
  =========                 |
  \\      /  F ield         | OpenFOAM: The Open Source CFD Toolbox
   \\    /   O peration     | Website:  https://openfoam.org
    \\  /    A nd           | Version:  9
     \\/     M anipulation  |
\*---------------------------------------------------------------------------*/
FoamFile
{
    format      ascii;
    class       volScalarField;
    location    "0.03";
    object      p_rgh;
}
// * * * * * * * * * * * * * * * * * * * * * * * * * * * * * * * * * * * * * //

dimensions      [1 -1 -2 0 0 0 0];

internalField   nonuniform List<scalar> 
5000
(
-0.130686
-0.145458
-0.162735
-0.183279
-0.208093
-0.238409
-0.275846
-0.323256
-0.386733
-0.477307
-0.604389
-0.846674
-1.63352
-300.221
-500.737
-501.375
-501.373
-501.242
-501.219
-501.241
-501.277
-501.334
-501.411
-501.501
-501.601
-501.732
-501.941
-502.19
-502.409
-399.845
-36.2021
-0.425481
-0.435726
-0.342974
-0.306705
-0.285002
-0.261218
-0.235481
-0.209367
-0.184059
-0.16017
-0.137907
-0.11724
-0.0980486
-0.0801892
-0.063531
-0.0479604
-0.0333942
-0.0198031
-0.00700829
-0.138631
-0.153958
-0.171795
-0.192818
-0.217802
-0.247762
-0.284307
-0.330009
-0.389478
-0.472224
-0.591718
-0.778313
-0.9653
-264.33
-499.288
-499.978
-499.704
-499.373
-499.261
-499.261
-499.289
-499.346
-499.43
-499.532
-499.638
-499.77
-500.017
-500.308
-500.381
-349.203
-8.7304
-0.402574
-0.40994
-0.323225
-0.289981
-0.2733
-0.254756
-0.232825
-0.209099
-0.185075
-0.161755
-0.139646
-0.118915
-0.0995509
-0.0814713
-0.0645751
-0.0487626
-0.0339568
-0.0201317
-0.00708593
-0.145854
-0.161543
-0.179664
-0.200796
-0.225528
-0.254616
-0.289348
-0.331848
-0.384946
-0.454119
-0.557471
-0.718775
-0.821732
-201.002
-497.573
-499.279
-498.342
-497.579
-497.308
-497.262
-497.279
-497.338
-497.433
-497.547
-497.647
-497.733
-497.861
-497.69
-494.952
-228.557
-0.358645
-0.368699
-0.371442
-0.306327
-0.277176
-0.265122
-0.250582
-0.231749
-0.209955
-0.186926
-0.16397
-0.141857
-0.120938
-0.101308
-0.08294
-0.0657563
-0.0496677
-0.0346018
-0.0205276
-0.00719621
-0.152342
-0.168259
-0.18645
-0.207374
-0.231495
-0.259316
-0.291594
-0.329875
-0.37593
-0.430608
-0.511419
-0.671025
-0.683723
-113.648
-472.135
-498.719
-496.787
-495.658
-495.293
-495.226
-495.24
-495.307
-495.418
-495.554
-495.732
-495.972
-496.304
-495.541
-433.187
-96.9589
-0.336831
-0.352475
-0.331431
-0.301623
-0.275314
-0.26587
-0.252497
-0.234769
-0.213593
-0.190713
-0.167571
-0.145081
-0.123704
-0.103605
-0.0847887
-0.0671911
-0.0507272
-0.0353388
-0.0210226
-0.0074428
-0.158098
-0.174134
-0.192258
-0.212792
-0.236056
-0.262316
-0.291851
-0.325427
-0.363883
-0.404911
-0.457731
-0.559632
-0.553511
-39.0644
-397.951
-495.992
-494.518
-493.538
-493.171
-493.14
-493.165
-493.242
-493.373
-493.593
-494.081
-494.809
-495.842
-494.089
-255.565
-10.7911
-0.481466
-0.483328
-0.368599
-0.316105
-0.288105
-0.276382
-0.261208
-0.242228
-0.220156
-0.196469
-0.17254
-0.149288
-0.127201
-0.106463
-0.0870848
-0.0689977
-0.0520981
-0.0363029
-0.0216018
-0.00762756
-0.163197
-0.179257
-0.197206
-0.217248
-0.239546
-0.264139
-0.290966
-0.31995
-0.350327
-0.378297
-0.41196
-0.482922
-0.464154
-5.53019
-247.405
-486.886
-492.24
-491.59
-491.065
-491.035
-491.056
-491.136
-491.32
-491.727
-492.711
-493.905
-494.726
-369.748
-39.0435
-0.216156
-0.468008
-0.450805
-0.376325
-0.32591
-0.304629
-0.289352
-0.271752
-0.250941
-0.227503
-0.202707
-0.177805
-0.153682
-0.130821
-0.109405
-0.0894416
-0.0708479
-0.053504
-0.0372932
-0.0221564
-0.0077258
-0.167703
-0.183719
-0.20143
-0.220942
-0.242281
-0.265282
-0.289672
-0.314963
-0.338815
-0.358773
-0.379292
-0.333026
-0.411642
-0.728378
-78.3839
-396.344
-490.807
-490.231
-489.176
-488.988
-488.957
-489.08
-489.348
-489.486
-490.519
-492.55
-406.863
-63.0787
-0.276983
-0.286267
-0.325732
-0.35848
-0.353588
-0.327959
-0.305929
-0.293477
-0.276772
-0.256031
-0.232329
-0.20712
-0.181721
-0.157069
-0.133685
-0.111782
-0.0913834
-0.0724132
-0.0547554
-0.0383027
-0.0229778
-0.00813634
-0.171665
-0.187602
-0.205058
-0.224059
-0.244536
-0.26618
-0.288611
-0.311469
-0.331999
-0.347676
-0.372036
-0.346165
-0.503553
-1.08087
-0.459054
-150.739
-462.806
-488.985
-487.043
-486.868
-486.899
-487.076
-487.145
-485.632
-484.088
-360.225
-60.4251
-0.34054
-0.300717
-0.293022
-0.292025
-0.320017
-0.329616
-0.336938
-0.30368
-0.293519
-0.277319
-0.257083
-0.233733
-0.208737
-0.183421
-0.158739
-0.13525
-0.113205
-0.092657
-0.0735529
-0.0557945
-0.0392947
-0.0240003
-0.00936825
-0.175137
-0.190983
-0.2082
-0.226756
-0.246523
-0.267138
-0.288184
-0.309671
-0.329627
-0.345747
-0.366901
-0.435623
-0.627724
-0.905586
-0.330502
-0.24484
-163.03
-435.831
-483.187
-483.998
-484.56
-484.33
-478.74
-412.347
-239.717
-38.5194
-0.31995
-0.309489
-0.302766
-0.297663
-0.297705
-0.325785
-0.323292
-0.330606
-0.303145
-0.292193
-0.275671
-0.255492
-0.232466
-0.207873
-0.182973
-0.158625
-0.135373
-0.113468
-0.0929708
-0.0738291
-0.0559302
-0.039152
-0.023376
-0.0081172
-0.178167
-0.193928
-0.210944
-0.22915
-0.248379
-0.268283
-0.288442
-0.309038
-0.328981
-0.34445
-0.370404
-0.503406
-0.567925
-0.362177
-0.309602
-0.253086
-0.329638
-94.7984
-270.211
-349.471
-352.136
-308.071
-196.774
-82.247
-10.6303
-0.310913
-0.316007
-0.302582
-0.299083
-0.297312
-0.29825
-0.315089
-0.323008
-0.310189
-0.298609
-0.286783
-0.270692
-0.250909
-0.228528
-0.204719
-0.180572
-0.156902
-0.134219
-0.112767
-0.092614
-0.0737227
-0.055997
-0.039333
-0.0235962
-0.00822325
-0.180791
-0.196488
-0.213355
-0.231318
-0.250178
-0.269617
-0.289223
-0.308957
-0.327723
-0.339286
-0.349067
-0.458251
-0.530778
-0.303157
-0.30144
-0.354801
-0.40986
-0.262713
-0.266572
-12.0216
-9.33302
-0.302011
-0.321068
-0.302331
-0.305112
-0.342587
-0.31031
-0.296842
-0.294009
-0.29309
-0.294736
-0.304496
-0.304893
-0.29241
-0.287256
-0.276379
-0.261209
-0.242735
-0.221675
-0.199203
-0.176314
-0.15376
-0.132037
-0.111395
-0.0919206
-0.0735985
-0.0563536
-0.0400997
-0.024698
-0.00952929
-0.183037
-0.198699
-0.215478
-0.233305
-0.251963
-0.271158
-0.290534
-0.309788
-0.32743
-0.336635
-0.333766
-0.364391
-0.460493
-0.31004
-0.301763
-0.318161
-0.314682
-0.301624
-0.287423
-0.299338
-0.287403
-0.296177
-0.313673
-0.314333
-0.306081
-0.297564
-0.296069
-0.2908
-0.286929
-0.285169
-0.285983
-0.291717
-0.292173
-0.276726
-0.272561
-0.262828
-0.248937
-0.23207
-0.212749
-0.192004
-0.170728
-0.149637
-0.12918
-0.109616
-0.0910551
-0.0735067
-0.0569202
-0.0412394
-0.0263523
-0.0116936
-0.184923
-0.200581
-0.217338
-0.235137
-0.253774
-0.272992
-0.292575
-0.312355
-0.330778
-0.343996
-0.37029
-0.362076
-0.374723
-0.317178
-0.312267
-0.318248
-0.310693
-0.297665
-0.292756
-0.291074
-0.286547
-0.290144
-0.291409
-0.291243
-0.287588
-0.28801
-0.287877
-0.28442
-0.279453
-0.275131
-0.271753
-0.280149
-0.277435
-0.264404
-0.258282
-0.248958
-0.236325
-0.220912
-0.203347
-0.184403
-0.164859
-0.14534
-0.126283
-0.10795
-0.0904683
-0.0738692
-0.0581301
-0.0432335
-0.0290366
-0.0148014
-0.186459
-0.202146
-0.218951
-0.236828
-0.255622
-0.275141
-0.295354
-0.316448
-0.3371
-0.355138
-0.397646
-0.404733
-0.329254
-0.327226
-0.32686
-0.330238
-0.32562
-0.312998
-0.300235
-0.290889
-0.285946
-0.286583
-0.287567
-0.287293
-0.286676
-0.286754
-0.28513
-0.280542
-0.274235
-0.267373
-0.260391
-0.269
-0.260485
-0.251236
-0.244031
-0.235654
-0.224406
-0.210597
-0.194747
-0.177518
-0.159611
-0.141601
-0.123905
-0.106785
-0.0903758
-0.0747193
-0.0598118
-0.0456746
-0.032174
-0.0184677
-0.187646
-0.203394
-0.220308
-0.238359
-0.257458
-0.277497
-0.298607
-0.321171
-0.344125
-0.363276
-0.409544
-0.412655
-0.346782
-0.344326
-0.345744
-0.348851
-0.344575
-0.330693
-0.312566
-0.297406
-0.289797
-0.288142
-0.288586
-0.289106
-0.289265
-0.288677
-0.285853
-0.280377
-0.273184
-0.265231
-0.257007
-0.261715
-0.252917
-0.242131
-0.23291
-0.225383
-0.215168
-0.202695
-0.188222
-0.172367
-0.155787
-0.139023
-0.12247
-0.106383
-0.0908949
-0.0760523
-0.0618695
-0.0484162
-0.0355839
-0.0224611
-0.188476
-0.204311
-0.221376
-0.239677
-0.259193
-0.279904
-0.302107
-0.326299
-0.35173
-0.374959
-0.39992
-0.42904
-0.367208
-0.366037
-0.368282
-0.371528
-0.366924
-0.351121
-0.328625
-0.308484
-0.297666
-0.294044
-0.293927
-0.29478
-0.295067
-0.2938
-0.290073
-0.283939
-0.276316
-0.268194
-0.260185
-0.261994
-0.254284
-0.24861
-0.228799
-0.220925
-0.211008
-0.198869
-0.184943
-0.169798
-0.154019
-0.13809
-0.12236
-0.107055
-0.0922957
-0.0781212
-0.0645543
-0.0516896
-0.0394233
-0.0267788
-0.188935
-0.204872
-0.222112
-0.24071
-0.260719
-0.282216
-0.30569
-0.331844
-0.360364
-0.38931
-0.405995
-0.448036
-0.390057
-0.389384
-0.392476
-0.396488
-0.391987
-0.374476
-0.34763
-0.322998
-0.308971
-0.30356
-0.302786
-0.303571
-0.303639
-0.301728
-0.297257
-0.290564
-0.282623
-0.274545
-0.267178
-0.26721
-0.259441
-0.255807
-0.231556
-0.222746
-0.211876
-0.199145
-0.184969
-0.169887
-0.154394
-0.138891
-0.123661
-0.108881
-0.0946413
-0.0809646
-0.0678707
-0.0554617
-0.0436325
-0.0313923
-0.189004
-0.205047
-0.222467
-0.241385
-0.261923
-0.28426
-0.309082
-0.337361
-0.368961
-0.402621
-0.429593
-0.462798
-0.41271
-0.411898
-0.416316
-0.421966
-0.418476
-0.399784
-0.368058
-0.339785
-0.322767
-0.315719
-0.314184
-0.314635
-0.31429
-0.311776
-0.306652
-0.299373
-0.2909
-0.282355
-0.274535
-0.27031
-0.266394
-0.260012
-0.238609
-0.228059
-0.215741
-0.201984
-0.187209
-0.171874
-0.156387
-0.141065
-0.126121
-0.111682
-0.0978044
-0.0844936
-0.0717633
-0.059713
-0.0482334
-0.0363538
-0.188661
-0.204799
-0.222394
-0.241622
-0.262677
-0.285847
-0.311959
-0.342273
-0.376139
-0.413446
-0.468584
-0.484263
-0.428865
-0.431244
-0.437898
-0.44571
-0.443594
-0.423763
-0.388942
-0.35782
-0.337977
-0.329412
-0.327085
-0.327081
-0.326272
-0.323238
-0.31758
-0.309736
-0.300512
-0.290837
-0.281919
-0.273373
-0.273191
-0.263729
-0.246334
-0.233761
-0.22019
-0.205604
-0.190343
-0.17479
-0.159288
-0.14409
-0.12936
-0.115184
-0.101595
-0.0885855
-0.0761633
-0.0644215
-0.0532462
-0.0417
-0.187885
-0.204087
-0.221835
-0.241345
-0.262873
-0.286808
-0.314062
-0.346317
-0.383511
-0.423506
-0.4783
-0.475943
-0.442315
-0.446856
-0.455532
-0.465954
-0.482657
-0.491032
-0.410274
-0.375573
-0.353279
-0.343418
-0.34044
-0.340061
-0.338891
-0.335525
-0.329565
-0.321382
-0.311643
-0.301159
-0.291246
-0.283077
-0.277242
-0.268075
-0.247464
-0.236507
-0.223339
-0.208813
-0.193544
-0.178025
-0.162629
-0.147605
-0.133096
-0.119173
-0.105854
-0.0931269
-0.0809949
-0.0695418
-0.058652
-0.0474343
-0.186655
-0.202879
-0.220737
-0.240473
-0.262395
-0.286979
-0.315165
-0.34871
-0.388155
-0.429444
-0.484504
-0.444666
-0.453112
-0.458641
-0.46748
-0.488461
-0.600021
-0.589795
-0.427606
-0.389771
-0.366718
-0.356407
-0.353232
-0.352837
-0.351553
-0.348159
-0.342227
-0.334034
-0.324125
-0.313254
-0.30237
-0.295975
-0.284258
-0.273982
-0.253144
-0.241081
-0.227434
-0.212659
-0.197262
-0.181725
-0.166407
-0.151536
-0.137232
-0.123548
-0.110493
-0.0980454
-0.0862033
-0.0750355
-0.064429
-0.0535581
-0.184954
-0.201149
-0.219055
-0.238934
-0.26114
-0.286188
-0.315019
-0.34912
-0.389399
-0.43018
-0.491231
-0.467332
-0.47689
-0.466276
-0.47276
-0.536447
-0.626103
-0.616666
-0.432931
-0.396483
-0.376335
-0.367274
-0.364771
-0.364665
-0.363742
-0.360711
-0.35519
-0.347357
-0.337633
-0.326764
-0.314938
-0.309985
-0.297892
-0.286169
-0.262312
-0.248535
-0.233565
-0.21786
-0.201885
-0.186055
-0.170653
-0.155841
-0.141691
-0.128224
-0.115427
-0.103269
-0.0917322
-0.0808658
-0.0705606
-0.060077
-0.182769
-0.198881
-0.216759
-0.236682
-0.259037
-0.284335
-0.313517
-0.347782
-0.388215
-0.428431
-0.49524
-0.504479
-0.505364
-0.468278
-0.471758
-0.549463
-0.627794
-0.622201
-0.423095
-0.396515
-0.382108
-0.375485
-0.374392
-0.375059
-0.374973
-0.372692
-0.367961
-0.360844
-0.351743
-0.341056
-0.328988
-0.327087
-0.312741
-0.298847
-0.272849
-0.256995
-0.240391
-0.223505
-0.206779
-0.190543
-0.174994
-0.160214
-0.146219
-0.132988
-0.120483
-0.108655
-0.0974713
-0.0869542
-0.0770002
-0.0669674
-0.180086
-0.196059
-0.213827
-0.233692
-0.256057
-0.281414
-0.310717
-0.344989
-0.385416
-0.426344
-0.491841
-0.507753
-0.512011
-0.467945
-0.470813
-0.535222
-0.624782
-0.607273
-0.411211
-0.394819
-0.384544
-0.380887
-0.381619
-0.38354
-0.384508
-0.383381
-0.37976
-0.373716
-0.365335
-0.354906
-0.344494
-0.340815
-0.324965
-0.305894
-0.282361
-0.264416
-0.246215
-0.228251
-0.210895
-0.194376
-0.178792
-0.164149
-0.150406
-0.137506
-0.125386
-0.113979
-0.103238
-0.0931581
-0.0836418
-0.0741435
-0.176893
-0.192664
-0.210242
-0.229947
-0.252187
-0.277443
-0.306663
-0.340785
-0.380955
-0.422325
-0.4641
-0.506039
-0.511809
-0.467201
-0.480478
-0.646151
-0.624302
-0.600016
-0.400674
-0.392553
-0.384223
-0.383321
-0.385853
-0.389197
-0.391514
-0.391755
-0.389457
-0.384545
-0.376996
-0.367108
-0.358828
-0.347305
-0.333319
-0.305927
-0.287679
-0.268533
-0.249372
-0.230829
-0.213245
-0.196765
-0.181407
-0.167117
-0.153814
-0.141409
-0.129821
-0.118971
-0.108797
-0.0992743
-0.090311
-0.0814426
-0.173189
-0.188685
-0.205989
-0.22543
-0.247416
-0.272419
-0.30136
-0.335132
-0.37469
-0.416333
-0.450579
-0.50246
-0.511131
-0.46661
-0.503485
-0.649577
-0.621955
-0.601338
-0.396603
-0.389944
-0.381519
-0.38229
-0.386277
-0.390994
-0.394725
-0.39636
-0.395339
-0.391344
-0.384263
-0.374634
-0.364707
-0.352214
-0.333646
-0.309541
-0.289104
-0.268787
-0.24913
-0.230532
-0.213191
-0.19715
-0.182351
-0.168692
-0.156063
-0.144357
-0.133481
-0.123346
-0.113884
-0.105057
-0.0967752
-0.0886319
-0.16898
-0.184123
-0.201067
-0.220135
-0.241737
-0.266346
-0.29483
-0.328107
-0.366982
-0.40892
-0.444784
-0.487852
-0.507423
-0.471781
-0.523301
-0.646979
-0.619551
-0.595234
-0.395641
-0.381859
-0.375788
-0.377014
-0.38191
-0.387699
-0.392627
-0.395411
-0.395331
-0.391928
-0.384906
-0.374992
-0.362191
-0.345471
-0.326273
-0.305753
-0.28487
-0.264398
-0.245001
-0.226971
-0.21039
-0.195209
-0.181317
-0.168581
-0.156873
-0.146079
-0.136098
-0.12684
-0.118234
-0.110239
-0.102766
-0.095432
-0.164281
-0.178995
-0.195488
-0.214074
-0.235165
-0.259239
-0.287112
-0.319754
-0.357942
-0.39989
-0.436979
-0.461633
-0.509759
-0.492542
-0.527876
-0.644341
-0.616528
-0.55432
-0.390572
-0.372904
-0.36578
-0.36668
-0.371737
-0.378024
-0.383638
-0.387083
-0.387465
-0.384145
-0.376862
-0.366054
-0.351782
-0.334662
-0.315263
-0.294845
-0.274508
-0.254974
-0.23673
-0.219964
-0.20468
-0.190784
-0.178139
-0.166605
-0.156053
-0.146369
-0.137454
-0.129221
-0.121602
-0.114562
-0.108008
-0.101549
-0.159109
-0.173328
-0.189281
-0.207276
-0.22773
-0.251125
-0.278234
-0.310064
-0.347491
-0.389178
-0.427647
-0.455305
-0.479503
-0.5146
-0.55258
-0.632814
-0.615906
-0.44019
-0.37943
-0.361645
-0.351656
-0.350634
-0.354859
-0.360827
-0.36641
-0.369889
-0.370187
-0.366589
-0.358921
-0.347534
-0.332877
-0.315662
-0.29687
-0.2776
-0.25878
-0.241016
-0.224626
-0.209689
-0.196154
-0.183902
-0.172797
-0.162705
-0.153508
-0.145102
-0.137395
-0.130306
-0.123778
-0.11779
-0.112242
-0.106703
-0.153486
-0.167147
-0.182475
-0.199778
-0.219471
-0.242035
-0.268216
-0.29905
-0.335611
-0.377163
-0.417801
-0.450634
-0.477045
-0.512223
-0.564382
-0.622302
-0.592879
-0.415167
-0.367984
-0.347134
-0.333259
-0.328344
-0.330656
-0.335359
-0.340096
-0.342963
-0.342813
-0.338857
-0.331009
-0.319681
-0.305496
-0.289328
-0.2722
-0.255056
-0.238608
-0.223288
-0.209275
-0.196577
-0.185114
-0.174768
-0.165415
-0.156941
-0.149245
-0.142238
-0.13584
-0.12998
-0.124616
-0.119746
-0.115258
-0.110665
-0.147439
-0.160478
-0.175102
-0.191617
-0.210428
-0.232006
-0.257082
-0.286711
-0.322165
-0.363426
-0.405986
-0.443321
-0.494886
-0.495303
-0.529587
-0.599119
-0.566055
-0.400761
-0.356259
-0.327894
-0.308815
-0.299685
-0.299025
-0.301549
-0.304681
-0.30649
-0.305736
-0.301628
-0.294161
-0.283779
-0.271164
-0.257184
-0.242722
-0.228518
-0.215079
-0.202671
-0.19138
-0.181179
-0.171986
-0.163702
-0.15623
-0.149478
-0.143367
-0.137829
-0.132797
-0.128211
-0.124045
-0.120323
-0.11692
-0.113278
-0.140999
-0.153355
-0.167202
-0.182839
-0.200649
-0.221087
-0.244861
-0.273021
-0.306944
-0.34718
-0.390592
-0.430291
-0.480129
-0.4774
-0.479065
-0.548166
-0.503326
-0.380406
-0.340669
-0.30406
-0.278874
-0.26491
-0.260464
-0.26011
-0.261145
-0.261719
-0.260478
-0.256734
-0.250463
-0.242023
-0.232021
-0.221167
-0.210127
-0.199415
-0.189356
-0.180104
-0.171696
-0.1641
-0.157257
-0.151099
-0.145558
-0.140558
-0.136056
-0.132004
-0.12835
-0.125043
-0.122077
-0.119499
-0.117173
-0.11447
-0.134206
-0.145821
-0.158826
-0.173501
-0.190199
-0.209348
-0.231615
-0.258008
-0.289889
-0.328173
-0.370883
-0.423832
-0.454657
-0.461259
-0.448357
-0.431985
-0.399429
-0.359776
-0.317802
-0.27497
-0.242522
-0.224788
-0.216098
-0.212502
-0.211335
-0.210733
-0.209486
-0.206837
-0.202614
-0.197011
-0.190423
-0.183315
-0.176112
-0.169129
-0.16256
-0.156499
-0.15097
-0.14596
-0.141439
-0.137372
-0.133718
-0.130458
-0.127546
-0.124955
-0.12265
-0.120595
-0.118797
-0.117329
-0.116044
-0.114251
-0.127106
-0.137931
-0.150038
-0.163676
-0.179161
-0.196889
-0.217465
-0.241808
-0.271156
-0.306533
-0.346464
-0.394822
-0.428881
-0.43329
-0.420309
-0.402912
-0.373955
-0.334471
-0.289002
-0.241317
-0.202969
-0.180608
-0.16759
-0.160765
-0.157634
-0.15635
-0.155715
-0.154868
-0.15342
-0.151281
-0.148558
-0.145447
-0.142158
-0.138861
-0.135676
-0.132674
-0.129893
-0.127348
-0.125045
-0.122981
-0.121147
-0.119534
-0.118132
-0.116931
-0.115911
-0.115046
-0.114358
-0.113938
-0.113635
-0.11271
-0.119747
-0.129747
-0.140909
-0.15345
-0.167643
-0.183845
-0.202581
-0.224653
-0.251112
-0.282951
-0.319082
-0.35613
-0.39232
-0.398779
-0.401786
-0.376906
-0.345114
-0.303804
-0.254572
-0.203886
-0.161497
-0.133901
-0.11683
-0.107188
-0.102602
-0.101275
-0.101939
-0.10353
-0.105343
-0.106961
-0.108191
-0.108997
-0.109428
-0.109569
-0.109508
-0.109319
-0.109064
-0.108791
-0.108535
-0.108324
-0.108174
-0.108096
-0.108102
-0.108196
-0.108372
-0.108613
-0.108954
-0.109502
-0.110103
-0.109994
-0.112178
-0.121331
-0.131516
-0.142915
-0.155761
-0.170368
-0.187168
-0.206829
-0.230216
-0.258219
-0.290135
-0.322
-0.34597
-0.360678
-0.368767
-0.350164
-0.312855
-0.268804
-0.217705
-0.164236
-0.118241
-0.0862064
-0.0657534
-0.0540109
-0.0486652
-0.0479938
-0.0505608
-0.0550041
-0.0602668
-0.0656065
-0.0705795
-0.0749787
-0.0787574
-0.0819597
-0.0846694
-0.0869795
-0.0889766
-0.0907361
-0.0923208
-0.0937809
-0.0951544
-0.0964707
-0.0977548
-0.0990268
-0.10029
-0.101537
-0.102812
-0.104231
-0.105646
-0.106291
-0.104449
-0.112744
-0.121932
-0.132165
-0.143639
-0.156615
-0.171431
-0.18862
-0.208876
-0.232946
-0.260447
-0.288534
-0.310682
-0.329685
-0.330946
-0.313338
-0.276872
-0.230522
-0.178226
-0.123591
-0.0742266
-0.0391239
-0.0162213
-0.00321795
0.00213816
0.00151751
-0.00337099
-0.010822
-0.0194389
-0.0282102
-0.0365117
-0.0440354
-0.0506912
-0.0565154
-0.0616033
-0.0660674
-0.0700169
-0.0735493
-0.076748
-0.0796808
-0.0824018
-0.0849537
-0.0873734
-0.089692
-0.0919221
-0.094064
-0.0961673
-0.0983528
-0.100483
-0.101814
-0.0966113
-0.104044
-0.112231
-0.121297
-0.131398
-0.142737
-0.155567
-0.170286
-0.187434
-0.207573
-0.230536
-0.254302
-0.273703
-0.292413
-0.290262
-0.272823
-0.236176
-0.190028
-0.137727
-0.0824885
-0.0311289
0.00580308
0.03017
0.0436286
0.0482844
0.0458935
0.0384883
0.0281156
0.016456
0.00471046
-0.00639489
-0.0165114
-0.0255431
-0.0335366
-0.0406032
-0.0468727
-0.0524712
-0.0575121
-0.0620924
-0.0662929
-0.0701782
-0.0738012
-0.0772074
-0.0804355
-0.0835061
-0.086426
-0.0892476
-0.0920914
-0.0948342
-0.0967807
-0.0887182
-0.0952934
-0.10249
-0.110404
-0.119154
-0.128884
-0.139764
-0.152066
-0.166145
-0.182515
-0.200981
-0.220096
-0.235664
-0.251045
-0.247761
-0.230286
-0.192493
-0.148608
-0.0972089
-0.0421824
0.00895835
0.0472377
0.0722139
0.0854134
0.0887825
0.0843409
0.0744412
0.061422
0.0471699
0.0329894
0.0196399
0.00746631
-0.00345212
-0.0131796
-0.0218422
-0.0295824
-0.0365369
-0.0428284
-0.0485626
-0.0538276
-0.0586954
-0.063225
-0.0674678
-0.071468
-0.0752522
-0.0788329
-0.0822629
-0.0856579
-0.088913
-0.0914014
-0.0808218
-0.0865557
-0.0927857
-0.0995818
-0.107022
-0.115196
-0.124202
-0.134206
-0.145437
-0.158202
-0.172342
-0.186752
-0.198153
-0.206668
-0.205143
-0.18283
-0.149454
-0.107791
-0.0579174
-0.00421394
0.0456393
0.0844779
0.10916
0.121446
0.123144
0.116539
0.10435
0.0890843
0.0727564
0.0566978
0.0416484
0.0279212
0.0155684
0.00450766
-0.00539812
-0.0142981
-0.0223341
-0.0296329
-0.0363039
-0.0424387
-0.048113
-0.0533896
-0.0583232
-0.0629616
-0.0673359
-0.0714637
-0.0753962
-0.0792407
-0.0829131
-0.0858701
-0.072972
-0.0778924
-0.0831938
-0.0889196
-0.0951101
-0.101805
-0.109044
-0.116907
-0.125502
-0.13497
-0.145129
-0.155086
-0.162339
-0.163924
-0.158102
-0.138503
-0.108737
-0.068648
-0.0208705
0.0306516
0.0783695
0.117151
0.140599
0.15145
0.151243
0.142571
0.128386
0.111335
0.0934596
0.0760541
0.059804
0.0449758
0.0315925
0.0195567
0.00872524
-0.00105269
-0.00991892
-0.018
-0.0254051
-0.0322267
-0.0385414
-0.0444134
-0.0498993
-0.0550483
-0.0598952
-0.0644615
-0.0687958
-0.0729931
-0.0769927
-0.0803497
-0.065215
-0.0693603
-0.0737818
-0.0784967
-0.0835121
-0.0888281
-0.0944365
-0.100346
-0.106563
-0.113096
-0.119717
-0.125666
-0.129062
-0.127456
-0.118046
-0.0993549
-0.0705212
-0.0322588
0.0130246
0.0617962
0.107518
0.144003
0.16625
0.175404
0.173242
0.162718
0.146909
0.128552
0.109631
0.0913599
0.0743496
0.0588155
0.0447536
0.0320565
0.0205798
0.0101755
0.000705522
-0.00795305
-0.0159067
-0.023246
-0.0300468
-0.0363733
-0.042282
-0.0478226
-0.0530325
-0.0579367
-0.0625795
-0.067041
-0.0712851
-0.0749782
-0.0575924
-0.0610092
-0.0646073
-0.0683806
-0.0723093
-0.0763636
-0.0804986
-0.0846655
-0.0887914
-0.0927783
-0.0963503
-0.0988346
-0.0988032
-0.0943092
-0.0831102
-0.0638503
-0.0357897
0.000499176
0.0430235
0.0886998
0.131845
0.165757
0.186338
0.193563
0.189523
0.177397
0.160384
0.141183
0.121672
0.102958
0.0855656
0.0696631
0.0552243
0.0421368
0.0302594
0.0194503
0.00957802
0.000525652
-0.00780865
-0.0155119
-0.022658
-0.0293098
-0.0355228
-0.0413464
-0.0468191
-0.0519691
-0.0568356
-0.0614816
-0.0658959
-0.0698661
-0.050141
-0.0528806
-0.0557176
-0.0586265
-0.0615688
-0.0644929
-0.067326
-0.0699753
-0.0723068
-0.0741423
-0.0751639
-0.074761
-0.07182
-0.0648255
-0.0520683
-0.0324029
-0.00526473
0.029006
0.0686611
0.111076
0.151348
0.182514
0.201183
0.20632
0.200532
0.187132
0.169325
0.149704
0.130004
0.111205
0.0937499
0.0777628
0.0632023
0.0499556
0.0378884
0.0268675
0.0167702
0.00748687
-0.0010783
-0.00900791
-0.0163727
-0.0232336
-0.0296444
-0.0356527
-0.041298
-0.0466112
-0.0516253
-0.0563849
-0.0609035
-0.0650965
-0.0428935
-0.0450096
-0.0471514
-0.0492802
-0.051345
-0.0532791
-0.0549895
-0.0563494
-0.0571819
-0.0572526
-0.0562131
-0.0535014
-0.0482292
-0.0392346
-0.025254
-0.00539046
0.0207407
0.0528987
0.089756
0.128857
0.166144
0.19474
0.210915
0.214103
0.206797
0.192468
0.174254
0.154591
0.135043
0.116459
0.099205
0.0833692
0.0689004
0.0556901
0.0436131
0.0325469
0.0223784
0.0130065
0.00434199
-0.00369258
-0.0111643
-0.0181314
-0.0246452
-0.0307514
-0.0364895
-0.0418922
-0.0469866
-0.0517974
-0.0563621
-0.0607282
-0.035878
-0.0374256
-0.0389417
-0.0403796
-0.0416812
-0.0427698
-0.0435371
-0.0438332
-0.0434524
-0.0421259
-0.0394885
-0.0350193
-0.027995
-0.0175304
-0.00271433
0.0170333
0.0421384
0.0721506
0.106131
0.142205
0.176466
0.202503
0.216234
0.21747
0.208881
0.193951
0.175683
0.156304
0.137192
0.119068
0.102231
0.08674
0.0725398
0.0595292
0.0475943
0.0366243
0.0265166
0.0171786
0.00852844
0.000494086
-0.00698735
-0.0139711
-0.0205055
-0.0266337
-0.0323944
-0.0378222
-0.0429377
-0.0477451
-0.052305
-0.0567991
-0.0291179
-0.030154
-0.0311165
-0.031956
-0.0326107
-0.0329974
-0.0329974
-0.0324464
-0.0311228
-0.0287404
-0.0249297
-0.0192073
-0.010972
0.000448774
0.0156815
0.0351239
0.0589926
0.0868705
0.117299
0.151451
0.182868
0.206244
0.217564
0.216932
0.207326
0.192109
0.174099
0.155278
0.136834
0.119369
0.103121
0.0881311
0.0743437
0.0616675
0.0500012
0.039246
0.02931
0.0201096
0.0115701
0.00362533
-0.00378305
-0.0107068
-0.0171911
-0.0232758
-0.0289988
-0.0343956
-0.0394807
-0.0442375
-0.0487483
-0.0533292
-0.0226316
-0.0232153
-0.0236989
-0.0240336
-0.0241564
-0.0239803
-0.023381
-0.0221874
-0.0201724
-0.017045
-0.0124413
-0.00591385
0.00304546
0.0149501
0.0302287
0.0490626
0.0717031
0.0971018
0.125401
0.157
0.185942
0.206412
0.215324
0.212986
0.202643
0.187435
0.169955
0.15192
0.134329
0.117679
0.102157
0.087792
0.074533
0.0623004
0.0510059
0.0405628
0.0308899
0.0219127
0.0135638
0.00578311
-0.00148299
-0.0082824
-0.0146568
-0.0206427
-0.0262765
-0.0315945
-0.036605
-0.0412706
-0.0456943
-0.050325
-0.0164323
-0.0166248
-0.0167052
-0.0166275
-0.0163294
-0.0157226
-0.0146817
-0.0130359
-0.0105599
-0.00696688
-0.00190521
0.00503759
0.0142966
0.0262683
0.0412361
0.0593128
0.0804121
0.103914
0.130109
0.159248
0.186045
0.203363
0.209901
0.206133
0.195316
0.18039
0.163674
0.146608
0.130015
0.114298
0.0996075
0.085963
0.0733229
0.0616198
0.050779
0.0407258
0.0313894
0.0227043
0.0146106
0.00705455
-1.27133e-05
-0.00663497
-0.0128502
-0.0186912
-0.0241927
-0.0293916
-0.0342899
-0.0388302
-0.0431346
-0.0477821
-0.010528
-0.0103911
-0.0101432
-0.00974234
-0.0091282
-0.00821442
-0.00687896
-0.0049561
-0.0022279
0.00158261
0.00681086
0.0138363
0.0230351
0.0347179
0.0490647
0.066099
0.0857099
0.107654
0.132005
0.159318
0.182916
0.197469
0.201728
0.196796
0.18578
0.171396
0.155642
0.13969
0.124205
0.109508
0.0957249
0.0828724
0.0709189
0.0598108
0.0494862
0.0398827
0.0309397
0.0226005
0.0148128
0.00752909
0.000705659
-0.00569709
-0.0117133
-0.017372
-0.0227059
-0.0277524
-0.0325077
-0.0368944
-0.041053
-0.0456884
-0.0049225
-0.00451699
-0.00401265
-0.00337241
-0.00253994
-0.00143397
6.05996e-05
0.00210042
0.00489289
0.00870249
0.0138467
0.0206744
0.0295145
0.0406149
0.0540889
0.0699174
0.0880181
0.108356
0.131351
0.156215
0.177131
0.189087
0.191222
0.185363
0.174441
0.160841
0.146216
0.131488
0.117186
0.10357
0.0907457
0.0787341
0.0675151
0.0570485
0.0472856
0.0381755
0.0296679
0.0217147
0.0142712
0.00729617
0.000751147
-0.00539925
-0.0111853
-0.0166322
-0.0217706
-0.0266381
-0.0312255
-0.0354363
-0.039428
-0.0440263
0.000383838
0.00100084
0.00169475
0.00249704
0.00345775
0.00465018
0.00617944
0.00819079
0.0108797
0.0144973
0.0193433
0.0257392
0.0339764
0.0442575
0.0566604
0.0711586
0.0877244
0.10647
0.127852
0.150713
0.169086
0.178486
0.178744
0.172219
0.16169
0.14909
0.135724
0.122296
0.109224
0.0967234
0.0848882
0.0737469
0.0632919
0.0534967
0.0443254
0.0357382
0.0276947
0.0201555
0.0130835
0.00644337
0.000202021
-0.00567173
-0.0112043
-0.0164172
-0.0213389
-0.0260072
-0.0304076
-0.0344257
-0.0382347
-0.042775
0.00539363
0.00617006
0.00699299
0.00788708
0.00889364
0.0100755
0.0115258
0.0133773
0.0158135
0.0190726
0.0234379
0.0292072
0.036642
0.0459155
0.0570972
0.0701799
0.0852288
0.102514
0.122407
0.143245
0.158983
0.16589
0.164573
0.157787
0.147906
0.136484
0.124468
0.112383
0.100562
0.0891877
0.0783521
0.0680927
0.0584151
0.0493064
0.0407428
0.0326955
0.0251335
0.018026
0.0113427
0.00505494
-0.000865684
-0.00644611
-0.0117089
-0.0166722
-0.0213623
-0.025817
-0.0300169
-0.0338305
-0.037446
-0.0419111
0.0101119
0.0110017
0.0118998
0.0128224
0.0137998
0.0148826
0.0161505
0.0177241
0.0197755
0.0225313
0.0262602
0.0312402
0.0377084
0.0458288
0.0556724
0.0672942
0.08088
0.0967255
0.115199
0.133961
0.146987
0.15154
0.149108
0.142403
0.133444
0.123334
0.112721
0.101993
0.0914179
0.0811612
0.0713181
0.0619364
0.0530354
0.0446151
0.0366638
0.0291626
0.0220896
0.015422
0.00913678
0.00321088
-0.00237915
-0.00765631
-0.0126396
-0.0173436
-0.0217927
-0.0260248
-0.0300157
-0.0336179
-0.0370337
-0.0414102
0.0145461
0.015509
0.0164347
0.017329
0.0182092
0.0191124
0.0201048
0.0212951
0.0228451
0.0249714
0.0279301
0.0319828
0.0373513
0.0441954
0.0526172
0.0627589
0.0749576
0.0887715
0.105821
0.122866
0.133262
0.135738
0.132663
0.126441
0.118633
0.109923
0.100731
0.0913429
0.0819867
0.0728207
0.0639468
0.055426
0.0472891
0.0395484
0.0322032
0.0252448
0.0186598
0.0124329
0.00654757
0.00098641
-0.00426949
-0.00923937
-0.0139388
-0.0183793
-0.0225832
-0.0265885
-0.0303666
-0.0337552
-0.0369695
-0.0412472
0.0187059
0.0197068
0.0206181
0.021433
0.0221548
0.0228058
0.0234392
0.0241525
0.0250985
0.0264846
0.0285559
0.0315609
0.0357131
0.0411777
0.0481137
0.0567779
0.0669227
0.080094
0.0956177
0.110166
0.117974
0.118848
0.115592
0.110248
0.103763
0.0965041
0.0887172
0.0806261
0.0724419
0.064324
0.0563839
0.0486939
0.0412976
0.034218
0.0274645
0.0210377
0.0149325
0.00914039
0.0036508
-0.00154853
-0.00647222
-0.011136
-0.0155524
-0.0197297
-0.0236888
-0.0274674
-0.031033
-0.0342098
-0.0372246
-0.0413965
0.0226031
0.0236111
0.0244707
0.0251605
0.0256687
0.026003
0.0262035
0.0263572
0.0266083
0.0271556
0.0282339
0.0300802
0.032905
0.0368966
0.042292
0.0492104
0.0578298
0.0701465
0.0839451
0.0960646
0.101309
0.101238
0.0983463
0.0941714
0.0891138
0.0833036
0.0768678
0.0700086
0.0629329
0.0558074
0.0487536
0.0418552
0.0351668
0.0287219
0.0225392
0.0166272
0.0109879
0.00561908
0.000515883
-0.00432931
-0.00892725
-0.0132905
-0.0174287
-0.0213476
-0.0250661
-0.0286221
-0.0319792
-0.0349494
-0.0377703
-0.0418317
0.0262512
0.027239
0.0280134
0.0285375
0.0287836
0.0287445
0.0284474
0.0279686
0.0274438
0.0270619
0.0270462
0.0276234
0.0290068
0.0314299
0.0351678
0.0397331
0.0480121
0.0588468
0.0714389
0.0804183
0.0836366
0.0833338
0.0812991
0.078516
0.07493
0.0705135
0.0653461
0.0596337
0.0535893
0.0473893
0.0411655
0.0350116
0.0289918
0.023149
0.0175101
0.0120904
0.00689817
0.00193673
-0.00279376
-0.00729667
-0.0115793
-0.0156515
-0.0195202
-0.0231886
-0.0266744
-0.0300149
-0.0331705
-0.0359426
-0.0385779
-0.0425266
0.0296649
0.0306083
0.0312681
0.0315909
0.031533
0.0310717
0.030221
0.0290457
0.027671
0.0262724
0.025058
0.0242444
0.0240602
0.0248089
0.0258759
0.0300071
0.0369258
0.0466962
0.0568127
0.0633207
0.0655066
0.0655763
0.0648473
0.0635615
0.0614169
0.0582948
0.0542882
0.0496217