/*--------------------------------*- C++ -*----------------------------------*\
  =========                 |
  \\      /  F ield         | OpenFOAM: The Open Source CFD Toolbox
   \\    /   O peration     | Website:  https://openfoam.org
    \\  /    A nd           | Version:  9
     \\/     M anipulation  |
\*---------------------------------------------------------------------------*/
FoamFile
{
    format      ascii;
    class       volScalarField;
    location    "0.03";
    object      rAU;
}
// * * * * * * * * * * * * * * * * * * * * * * * * * * * * * * * * * * * * * //

dimensions      [-1 3 1 0 0 0 0];

internalField   nonuniform List<scalar> 
5000
(
3.8359e-05
3.82314e-05
3.80894e-05
3.79313e-05
3.77575e-05
3.75662e-05
3.73272e-05
3.69645e-05
3.65312e-05
3.6615e-05
3.79329e-05
3.55142e-05
2.02442e-05
8.95532e-08
5.28111e-08
5.2597e-08
5.25701e-08
5.26792e-08
5.28104e-08
5.28792e-08
5.27676e-08
5.27269e-08
5.26808e-08
5.26179e-08
5.25344e-08
5.24629e-08
5.24744e-08
5.26183e-08
5.28762e-08
6.64515e-08
7.03496e-07
3.56702e-05
3.73987e-05
4.01164e-05
3.8528e-05
3.6367e-05
3.47473e-05
3.36383e-05
3.28955e-05
3.23766e-05
3.19692e-05
3.15977e-05
3.12181e-05
3.0809e-05
3.03624e-05
2.98764e-05
2.93519e-05
2.87901e-05
2.8192e-05
3.10035e-05
3.83432e-05
3.82168e-05
3.80773e-05
3.79242e-05
3.7759e-05
3.75791e-05
3.73488e-05
3.69992e-05
3.66441e-05
3.6947e-05
3.83692e-05
3.90525e-05
3.70172e-05
1.02582e-07
5.30152e-08
5.25796e-08
5.24626e-08
5.25794e-08
5.27605e-08
5.28649e-08
5.27641e-08
5.27221e-08
5.26755e-08
5.26109e-08
5.25054e-08
5.23698e-08
5.22831e-08
5.23554e-08
5.26597e-08
7.61635e-08
2.33161e-06
3.81293e-05
3.76155e-05
4.09548e-05
3.96183e-05
3.73913e-05
3.55873e-05
3.43046e-05
3.34239e-05
3.28094e-05
3.23454e-05
3.1947e-05
3.15596e-05
3.11532e-05
3.07133e-05
3.02348e-05
2.97168e-05
2.91599e-05
2.85647e-05
3.14765e-05
3.83326e-05
3.82078e-05
3.80715e-05
3.79237e-05
3.77674e-05
3.75981e-05
3.73756e-05
3.70427e-05
3.67683e-05
3.72627e-05
3.86646e-05
3.91695e-05
3.9633e-05
1.36968e-07
5.34567e-08
5.26443e-08
5.24107e-08
5.25146e-08
5.27303e-08
5.28623e-08
5.27655e-08
5.27149e-08
5.26658e-08
5.26141e-08
5.25187e-08
5.23378e-08
5.21203e-08
5.20398e-08
5.25664e-08
1.15964e-07
1.56436e-05
4.05498e-05
3.92486e-05
4.1511e-05
4.04931e-05
3.82646e-05
3.63683e-05
3.49611e-05
3.39681e-05
3.32682e-05
3.27485e-05
3.23202e-05
3.19215e-05
3.1515e-05
3.10807e-05
3.06095e-05
3.00985e-05
2.95473e-05
2.89558e-05
3.19759e-05
3.83265e-05
3.82038e-05
3.80707e-05
3.79284e-05
3.77803e-05
3.76199e-05
3.74032e-05
3.70891e-05
3.68978e-05
3.75608e-05
3.9122e-05
3.7317e-05
4.05109e-05
2.46015e-07
5.7076e-08
5.29092e-08
5.2524e-08
5.25482e-08
5.27427e-08
5.2877e-08
5.27734e-08
5.27023e-08
5.26398e-08
5.26185e-08
5.26097e-08
5.24909e-08
5.22044e-08
5.19457e-08
5.96295e-08
2.65243e-07
3.08639e-05
4.18155e-05
4.17398e-05
4.17872e-05
4.10973e-05
3.8947e-05
3.70635e-05
3.55912e-05
3.4519e-05
3.37502e-05
3.31808e-05
3.27225e-05
3.231e-05
3.19007e-05
3.14698e-05
3.10045e-05
3.04997e-05
2.99536e-05
2.93653e-05
3.25017e-05
3.83247e-05
3.82042e-05
3.80742e-05
3.79369e-05
3.77959e-05
3.7642e-05
3.74286e-05
3.7133e-05
3.70236e-05
3.78488e-05
3.95631e-05
3.7899e-05
4.40887e-05
7.09317e-07
6.89531e-08
5.34226e-08
5.28597e-08
5.27293e-08
5.28161e-08
5.29139e-08
5.2794e-08
5.26878e-08
5.25824e-08
5.25752e-08
5.27145e-08
5.2802e-08
5.25798e-08
5.23248e-08
1.00222e-07
2.02567e-06
3.35024e-05
3.36715e-05
4.10648e-05
4.23054e-05
4.15788e-05
3.95442e-05
3.77039e-05
3.62092e-05
3.50847e-05
3.42622e-05
3.36494e-05
3.3162e-05
3.27336e-05
3.23182e-05
3.18872e-05
3.14246e-05
3.09228e-05
3.0378e-05
2.97871e-05
3.30267e-05
3.83269e-05
3.82083e-05
3.80811e-05
3.79482e-05
3.78126e-05
3.76623e-05
3.74492e-05
3.71685e-05
3.71303e-05
3.81031e-05
3.93868e-05
3.88691e-05
4.4755e-05
4.74426e-06
1.11018e-07
5.41315e-08
5.3148e-08
5.2997e-08
5.29275e-08
5.29715e-08
5.28418e-08
5.26922e-08
5.24974e-08
5.24262e-08
5.2678e-08
5.30264e-08
5.29472e-08
6.9806e-08
5.99462e-07
3.75971e-05
3.39586e-05
3.23944e-05
4.23896e-05
4.35782e-05
4.22278e-05
4.01985e-05
3.83591e-05
3.68448e-05
3.56802e-05
3.48131e-05
3.41617e-05
3.36459e-05
3.31999e-05
3.27759e-05
3.23428e-05
3.18821e-05
3.13838e-05
3.0843e-05
3.02544e-05
3.3619e-05
3.83327e-05
3.82158e-05
3.80911e-05
3.79615e-05
3.78294e-05
3.76796e-05
3.74633e-05
3.71922e-05
3.72102e-05
3.82098e-05
3.92634e-05
4.4315e-05
4.4973e-05
2.74022e-05
3.39218e-07
6.69061e-08
5.33552e-08
5.3153e-08
5.3002e-08
5.30426e-08
5.29401e-08
5.27596e-08
5.24492e-08
5.22101e-08
5.24281e-08
5.29122e-08
6.33176e-08
3.70274e-07
3.9116e-05
4.72917e-05
4.50891e-05
4.4214e-05
4.27756e-05
4.31916e-05
4.23884e-05
4.0644e-05
3.89813e-05
3.74807e-05
3.62947e-05
3.5396e-05
3.47134e-05
3.41721e-05
3.37084e-05
3.32739e-05
3.28361e-05
3.23747e-05
3.18781e-05
3.13394e-05
3.07517e-05
3.426e-05
3.83419e-05
3.82265e-05
3.81036e-05
3.79763e-05
3.78459e-05
3.76939e-05
3.74712e-05
3.72059e-05
3.72663e-05
3.8312e-05
4.00789e-05
4.44496e-05
3.91896e-05
1.91263e-05
1.96861e-05
1.70801e-07
5.63406e-08
5.30938e-08
5.29875e-08
5.31164e-08
5.3099e-08
5.29316e-08
5.25648e-08
5.21829e-08
5.25551e-08
7.10783e-08
3.85507e-07
4.05663e-05
4.74262e-05
4.78314e-05
4.81726e-05
4.70365e-05
4.28813e-05
4.24121e-05
4.22607e-05
4.03425e-05
3.87819e-05
3.74989e-05
3.65038e-05
3.57463e-05
3.51584e-05
3.46735e-05
3.42365e-05
3.38047e-05
3.336e-05
3.28867e-05
3.23673e-05
3.17976e-05
3.11692e-05
2.38228e-05
3.83544e-05
3.82402e-05
3.81187e-05
3.79927e-05
3.78624e-05
3.7706e-05
3.74759e-05
3.72167e-05
3.73181e-05
3.846e-05
4.08871e-05
3.97548e-05
3.2899e-05
2.43038e-05
4.65352e-05
1.29643e-05
1.55582e-07
5.92941e-08
5.3005e-08
5.31551e-08
5.32619e-08
5.31976e-08
5.34748e-08
6.17948e-08
1.05691e-07
5.95558e-07
4.24098e-05
4.72763e-05
4.71567e-05
4.74076e-05
4.76367e-05
4.63146e-05
4.24458e-05
4.25653e-05
4.1929e-05
3.99869e-05
3.84031e-05
3.71036e-05
3.60843e-05
3.53001e-05
3.46869e-05
3.41807e-05
3.37279e-05
3.32889e-05
3.28366e-05
3.23542e-05
3.18303e-05
3.12562e-05
3.06236e-05
2.32815e-05
3.83702e-05
3.8257e-05
3.81363e-05
3.80109e-05
3.78794e-05
3.77177e-05
3.74805e-05
3.72301e-05
3.73764e-05
3.86344e-05
4.07211e-05
3.04073e-05
3.26771e-05
4.71542e-05
4.92163e-05
4.74051e-05
1.90437e-05
2.62591e-07
9.4174e-08
7.25382e-08
7.21619e-08
8.29273e-08
1.29879e-07
3.0121e-07
2.06701e-06
4.20341e-05
4.81487e-05
4.78325e-05
4.73762e-05
4.7279e-05
4.73948e-05
4.64402e-05
4.28132e-05
4.33978e-05
4.15198e-05
3.96057e-05
3.80057e-05
3.67054e-05
3.56775e-05
3.48785e-05
3.42479e-05
3.37247e-05
3.32571e-05
3.28059e-05
3.2344e-05
3.18537e-05
3.13225e-05
3.07415e-05
3.01047e-05
2.27715e-05
3.83894e-05
3.82769e-05
3.81568e-05
3.80313e-05
3.78977e-05
3.77301e-05
3.74861e-05
3.72434e-05
3.74272e-05
3.87805e-05
4.13149e-05
3.59712e-05
3.28251e-05
4.99185e-05
4.91919e-05
3.88266e-05
3.83122e-05
4.02157e-05
1.13861e-05
1.67254e-06
2.03514e-06
1.20209e-05
3.89069e-05
4.37907e-05
4.32766e-05
4.41132e-05
4.77352e-05
4.81374e-05
4.75841e-05
4.72734e-05
4.71955e-05
4.62847e-05
4.47254e-05
4.33854e-05
4.11075e-05
3.92099e-05
3.76297e-05
3.63304e-05
3.53014e-05
3.44938e-05
3.385e-05
3.33119e-05
3.28294e-05
3.23647e-05
3.18906e-05
3.13889e-05
3.08469e-05
3.02563e-05
2.96138e-05
2.22897e-05
3.8412e-05
3.83002e-05
3.81805e-05
3.80543e-05
3.79181e-05
3.77439e-05
3.74927e-05
3.72541e-05
3.74638e-05
3.88462e-05
4.1312e-05
4.31301e-05
3.80523e-05
4.92762e-05
4.96542e-05
4.80024e-05
4.61812e-05
4.58573e-05
4.8192e-05
4.78845e-05
4.79899e-05
4.86475e-05
4.75642e-05
4.70128e-05
4.83749e-05
4.93215e-05
4.89866e-05
4.85635e-05
4.79667e-05
4.75021e-05
4.72754e-05
4.57721e-05
4.40779e-05
4.29535e-05
4.07318e-05
3.88468e-05
3.72859e-05
3.5994e-05
3.49661e-05
3.41529e-05
3.34982e-05
3.29458e-05
3.2448e-05
3.19678e-05
3.14786e-05
3.09618e-05
3.04048e-05
2.98006e-05
2.91491e-05
2.18338e-05
3.84382e-05
3.83272e-05
3.82076e-05
3.80807e-05
3.79412e-05
3.77603e-05
3.75019e-05
3.72656e-05
3.74978e-05
3.87904e-05
3.9089e-05
4.25956e-05
4.43828e-05
4.8879e-05
4.92792e-05
4.79632e-05
4.72805e-05
4.70604e-05
4.70463e-05
4.74085e-05
4.74306e-05
4.78838e-05
4.8499e-05
4.91426e-05
4.99458e-05
5.00924e-05
4.96949e-05
4.91827e-05
4.85464e-05
4.79917e-05
4.7683e-05
4.5293e-05
4.29311e-05
4.25422e-05
4.0419e-05
3.8532e-05
3.69826e-05
3.56991e-05
3.4673e-05
3.38559e-05
3.31913e-05
3.26254e-05
3.21122e-05
3.1616e-05
3.11109e-05
3.05789e-05
3.00088e-05
2.93962e-05
2.87445e-05
2.14512e-05
3.84682e-05
3.83581e-05
3.82388e-05
3.8111e-05
3.79684e-05
3.77811e-05
3.75161e-05
3.72812e-05
3.75287e-05
3.86987e-05
3.64649e-05
3.95689e-05
4.77107e-05
4.8382e-05
4.8775e-05
4.80776e-05
4.71403e-05
4.66146e-05
4.64957e-05
4.67618e-05
4.67805e-05
4.73942e-05
4.8181e-05
4.90568e-05
4.97329e-05
4.97974e-05
4.9563e-05
4.94759e-05
4.91893e-05
4.86619e-05
4.79799e-05
4.50802e-05
4.24722e-05
4.23065e-05
4.01896e-05
3.82775e-05
3.67268e-05
3.54431e-05
3.44169e-05
3.35957e-05
3.29223e-05
3.23439e-05
3.18159e-05
3.13038e-05
3.07828e-05
3.02358e-05
2.96536e-05
2.90341e-05
2.83822e-05
2.11042e-05
3.85023e-05
3.83933e-05
3.82745e-05
3.81461e-05
3.80006e-05
3.78079e-05
3.75371e-05
3.73011e-05
3.75498e-05
3.87036e-05
3.78778e-05
3.92382e-05
4.72274e-05
4.77816e-05
4.81711e-05
4.83486e-05
4.71574e-05
4.6332e-05
4.59785e-05
4.61193e-05
4.61524e-05
4.68785e-05
4.78185e-05
4.88157e-05
4.94191e-05
4.95099e-05
4.95295e-05
4.96321e-05
4.96153e-05
4.90058e-05
4.78342e-05
4.50922e-05
4.22258e-05
4.18742e-05
3.9978e-05
3.80646e-05
3.64861e-05
3.52041e-05
3.41798e-05
3.33571e-05
3.26776e-05
3.2089e-05
3.1548e-05
3.10214e-05
3.04855e-05
2.99252e-05
2.93332e-05
2.87094e-05
2.80588e-05
2.07962e-05
3.85406e-05
3.84332e-05
3.83153e-05
3.81868e-05
3.80392e-05
3.78423e-05
3.75671e-05
3.73285e-05
3.75683e-05
3.85847e-05
4.00467e-05
3.89286e-05
4.68e-05
4.72733e-05
4.77264e-05
4.84791e-05
4.72349e-05
4.61166e-05
4.55173e-05
4.55233e-05
4.55431e-05
4.63309e-05
4.73792e-05
4.84338e-05
4.90835e-05
4.93486e-05
4.95911e-05
4.9833e-05
4.96356e-05
4.87883e-05
4.74823e-05
4.51095e-05
4.19477e-05
4.07313e-05
3.96812e-05
3.77837e-05
3.62107e-05
3.49465e-05
3.39353e-05
3.31192e-05
3.24399e-05
3.1846e-05
3.12956e-05
3.07574e-05
3.02095e-05
2.96388e-05
2.90403e-05
2.84147e-05
2.77658e-05
2.05182e-05
3.85834e-05
3.8478e-05
3.83616e-05
3.82337e-05
3.80852e-05
3.78861e-05
3.76091e-05
3.73684e-05
3.75943e-05
3.85333e-05
4.04913e-05
3.86421e-05
4.64477e-05
4.68969e-05
4.74334e-05
4.84096e-05
4.73589e-05
4.59335e-05
4.51009e-05
4.49844e-05
4.49663e-05
4.5776e-05
4.68941e-05
4.80474e-05
4.88408e-05
4.92973e-05
4.97348e-05
4.98654e-05
4.92741e-05
4.83189e-05
4.70008e-05
4.49242e-05
4.14742e-05
3.99993e-05
3.92261e-05
3.7389e-05
3.58693e-05
3.46467e-05
3.36648e-05
3.28669e-05
3.21961e-05
3.16029e-05
3.10478e-05
3.05017e-05
2.99451e-05
2.93675e-05
2.87653e-05
2.81396e-05
2.74925e-05
2.02599e-05
3.86308e-05
3.8528e-05
3.84138e-05
3.82875e-05
3.81396e-05
3.79407e-05
3.7665e-05
3.74236e-05
3.76323e-05
3.86752e-05
4.00644e-05
3.83738e-05
4.6216e-05
4.66418e-05
4.72644e-05
4.83454e-05
4.75201e-05
4.5824e-05
4.47956e-05
4.45136e-05
4.44424e-05
4.52495e-05
4.64113e-05
4.7682e-05
4.86698e-05
4.93245e-05
4.99394e-05
4.97549e-05
4.89265e-05
4.77713e-05
4.63801e-05
4.45622e-05
4.09553e-05
3.95067e-05
3.86417e-05
3.69069e-05
3.54696e-05
3.43071e-05
3.33676e-05
3.25972e-05
3.19417e-05
3.13545e-05
3.07987e-05
3.02482e-05
2.96864e-05
2.91048e-05
2.85014e-05
2.78768e-05
2.72318e-05
2.00148e-05
3.8683e-05
3.85834e-05
3.84723e-05
3.83486e-05
3.82029e-05
3.80067e-05
3.77361e-05
3.74965e-05
3.76842e-05
3.88491e-05
3.82837e-05
3.81499e-05
4.60427e-05
4.64856e-05
4.72067e-05
4.83956e-05
4.78996e-05
4.59261e-05
4.45556e-05
4.41106e-05
4.39825e-05
4.47732e-05
4.59614e-05
4.72879e-05
4.84819e-05
4.94038e-05
5.01826e-05
4.95541e-05
4.84494e-05
4.71838e-05
4.56864e-05
4.39326e-05
4.12123e-05
3.88713e-05
3.80373e-05
3.64058e-05
3.50518e-05
3.3951e-05
3.30575e-05
3.2318e-05
3.16807e-05
3.1102e-05
3.05481e-05
2.99958e-05
2.94314e-05
2.88487e-05
2.82459e-05
2.76232e-05
2.69805e-05
1.97796e-05
3.874e-05
3.86443e-05
3.85372e-05
3.84172e-05
3.82754e-05
3.80847e-05
3.78226e-05
3.7589e-05
3.77609e-05
3.88332e-05
3.81459e-05
4.18252e-05
4.58385e-05
4.64059e-05
4.72681e-05
4.85532e-05
4.68726e-05
4.24488e-05
4.43632e-05
4.37855e-05
4.35974e-05
4.43607e-05
4.55614e-05
4.69278e-05
4.82578e-05
4.9411e-05
5.02999e-05
4.92413e-05
4.79619e-05
4.66029e-05
4.50359e-05
4.31886e-05
4.00631e-05
3.85088e-05
3.7539e-05
3.59477e-05
3.46485e-05
3.35994e-05
3.27474e-05
3.20372e-05
3.1418e-05
3.08484e-05
3.02976e-05
2.97454e-05
2.91808e-05
2.85988e-05
2.79979e-05
2.73776e-05
2.6737e-05
1.95526e-05
3.88018e-05
3.87108e-05
3.86085e-05
3.84935e-05
3.83572e-05
3.81744e-05
3.7924e-05
3.76864e-05
3.7844e-05
3.88764e-05
3.80673e-05
4.39812e-05
4.56172e-05
4.64055e-05
4.74416e-05
4.78631e-05
3.7997e-05
3.52439e-05
4.43027e-05
4.35692e-05
4.33017e-05
4.40204e-05
4.52192e-05
4.66091e-05
4.79828e-05
4.92014e-05
5.01823e-05
4.88597e-05
4.74804e-05
4.6026e-05
4.44087e-05
4.23196e-05
3.93497e-05
3.811e-05
3.70088e-05
3.54839e-05
3.42432e-05
3.32461e-05
3.24356e-05
3.17548e-05
3.1154e-05
3.05943e-05
3.00479e-05
2.94977e-05
2.89346e-05
2.83546e-05
2.77562e-05
2.71382e-05
2.64995e-05
1.9332e-05
3.88683e-05
3.87827e-05
3.86862e-05
3.85674e-05
3.84043e-05
3.81812e-05
3.7888e-05
3.76141e-05
3.77232e-05
3.88084e-05
3.79694e-05
4.2581e-05
4.42751e-05
4.64853e-05
4.76669e-05
4.4311e-05
3.54091e-05
3.38138e-05
4.43931e-05
4.35002e-05
4.30984e-05
4.37501e-05
4.49339e-05
4.63308e-05
4.77328e-05
4.89987e-05
4.99766e-05
4.84687e-05
4.69835e-05
4.54196e-05
4.37466e-05
4.13959e-05
3.86724e-05
3.73487e-05
3.64342e-05
3.49868e-05
3.38172e-05
3.28803e-05
3.21161e-05
3.14677e-05
3.08873e-05
3.03391e-05
2.9799e-05
2.92526e-05
2.86926e-05
2.81156e-05
2.75199e-05
2.6904e-05
2.62669e-05
1.91168e-05
3.89395e-05
3.88433e-05
3.87071e-05
3.85453e-05
3.83623e-05
3.81343e-05
3.78377e-05
3.75531e-05
3.76175e-05
3.8636e-05
3.77892e-05
4.02421e-05
4.22566e-05
4.65206e-05
4.77442e-05
4.33382e-05
3.56925e-05
3.3902e-05
4.4486e-05
4.35278e-05
4.29263e-05
4.35351e-05
4.46937e-05
4.60866e-05
4.74989e-05
4.8798e-05
4.96618e-05
4.80381e-05
4.64267e-05
4.47535e-05
4.29889e-05
4.02728e-05
3.79225e-05
3.66355e-05
3.57951e-05
3.44485e-05
3.3367e-05
3.25008e-05
3.17891e-05
3.11765e-05
3.06188e-05
3.00842e-05
2.95524e-05
2.90115e-05
2.84559e-05
2.78824e-05
2.72893e-05
2.66754e-05
2.60397e-05
1.89074e-05
3.89729e-05
3.88349e-05
3.86833e-05
3.85169e-05
3.83291e-05
3.80978e-05
3.77999e-05
3.75063e-05
3.75271e-05
3.8433e-05
3.82794e-05
4.0141e-05
4.20041e-05
4.64435e-05
4.76618e-05
4.37277e-05
3.56988e-05
3.4401e-05
4.4708e-05
4.34722e-05
4.27964e-05
4.33483e-05
4.44805e-05
4.58665e-05
4.72784e-05
4.8594e-05
4.92815e-05
4.75245e-05
4.57804e-05
4.39979e-05
4.20205e-05
3.89464e-05
3.70853e-05
3.62e-05
3.51079e-05
3.38836e-05
3.29048e-05
3.21175e-05
3.14623e-05
3.08878e-05
3.03543e-05
2.98347e-05
2.93124e-05
2.87782e-05
2.82275e-05
2.76577e-05
2.70672e-05
2.6455e-05
2.58204e-05
1.87058e-05
3.89619e-05
3.88213e-05
3.86666e-05
3.84966e-05
3.83049e-05
3.80717e-05
3.77742e-05
3.7473e-05
3.74519e-05
3.82398e-05
3.97194e-05
3.99431e-05
4.20863e-05
4.63311e-05
4.70336e-05
3.62108e-05
3.55162e-05
3.44484e-05
4.49196e-05
4.32334e-05
4.26981e-05
4.31742e-05
4.42842e-05
4.56555e-05
4.70591e-05
4.83805e-05
4.88028e-05
4.69054e-05
4.50296e-05
4.31329e-05
4.0991e-05
3.80266e-05
3.62745e-05
3.57411e-05
3.44244e-05
3.33292e-05
3.2457e-05
3.17497e-05
3.11507e-05
3.06132e-05
3.01033e-05
2.95985e-05
2.9086e-05
2.85586e-05
2.80127e-05
2.74462e-05
2.68577e-05
2.62467e-05
2.56128e-05
1.85154e-05
3.8957e-05
3.88145e-05
3.86574e-05
3.84846e-05
3.82901e-05
3.80559e-05
3.77601e-05
3.74527e-05
3.73908e-05
3.80599e-05
3.9811e-05
3.96851e-05
4.19036e-05
4.61331e-05
4.51718e-05
3.53291e-05
3.54092e-05
3.39479e-05
4.50887e-05
4.31923e-05
4.25888e-05
4.3012e-05
4.41029e-05
4.54538e-05
4.68392e-05
4.81555e-05
4.81988e-05
4.61561e-05
4.4156e-05
4.21528e-05
4.00026e-05
3.76541e-05
3.6124e-05
3.4984e-05
3.37807e-05
3.2818e-05
3.20497e-05
3.14176e-05
3.08699e-05
3.03656e-05
2.98765e-05
2.93849e-05
2.88811e-05
2.83595e-05
2.78175e-05
2.72533e-05
2.66661e-05
2.60555e-05
2.54217e-05
1.83403e-05
3.89582e-05
3.88145e-05
3.86557e-05
3.84809e-05
3.82846e-05
3.80502e-05
3.7757e-05
3.74446e-05
3.73419e-05
3.78792e-05
3.94527e-05
4.05993e-05
4.15472e-05
4.58501e-05
4.33356e-05
3.5217e-05
3.53642e-05
3.37481e-05
4.51023e-05
4.33664e-05
4.24777e-05
4.2872e-05
4.39417e-05
4.52661e-05
4.66254e-05
4.79269e-05
4.7456e-05
4.52681e-05
4.31509e-05
4.10654e-05
3.90152e-05
3.72376e-05
3.56229e-05
3.42834e-05
3.32189e-05
3.23791e-05
3.17041e-05
3.11376e-05
3.06329e-05
3.01557e-05
2.96832e-05
2.92021e-05
2.87047e-05
2.81873e-05
2.76475e-05
2.70842e-05
2.64971e-05
2.5886e-05
2.52517e-05
1.81844e-05
3.89659e-05
3.88215e-05
3.86619e-05
3.8486e-05
3.82886e-05
3.80548e-05
3.77647e-05
3.74482e-05
3.73059e-05
3.77198e-05
3.91197e-05
4.14806e-05
4.14598e-05
4.4322e-05
4.30975e-05
3.52331e-05
3.53945e-05
3.61014e-05
4.51188e-05
4.33451e-05
4.24038e-05
4.27638e-05
4.38092e-05
4.51031e-05
4.6432e-05
4.77126e-05
4.65812e-05
4.42721e-05
4.20718e-05
3.99762e-05
3.80482e-05
3.6326e-05
3.48656e-05
3.36874e-05
3.27613e-05
3.20299e-05
3.14333e-05
3.09196e-05
3.04482e-05
2.9991e-05
2.95302e-05
2.90557e-05
2.85621e-05
2.80464e-05
2.75069e-05
2.69431e-05
2.63547e-05
2.57423e-05
2.51066e-05
1.79817e-05
3.898e-05
3.88358e-05
3.86761e-05
3.84998e-05
3.83022e-05
3.80697e-05
3.77831e-05
3.74637e-05
3.72832e-05
3.76068e-05
3.88287e-05
4.10095e-05
4.27259e-05
4.2466e-05
4.22738e-05
3.53087e-05
3.54589e-05
4.29997e-05
4.52307e-05
4.33129e-05
4.23358e-05
4.26967e-05
4.37176e-05
4.49809e-05
4.62789e-05
4.75361e-05
4.56133e-05
4.32236e-05
4.0991e-05
3.89391e-05
3.71081e-05
3.5536e-05
3.4244e-05
3.32193e-05
3.24162e-05
3.17758e-05
3.12416e-05
3.07674e-05
3.03193e-05
2.98749e-05
2.94206e-05
2.89491e-05
2.84562e-05
2.79397e-05
2.73987e-05
2.68326e-05
2.6242e-05
2.56273e-05
2.49896e-05
1.78102e-05
3.90007e-05
3.88572e-05
3.86983e-05
3.85225e-05
3.83257e-05
3.80953e-05
3.78127e-05
3.74913e-05
3.72749e-05
3.74979e-05
3.85266e-05
4.04793e-05
4.19816e-05
4.32114e-05
4.16135e-05
3.55659e-05
3.58744e-05
4.53325e-05
4.54167e-05
4.32873e-05
4.22239e-05
4.26851e-05
4.36831e-05
4.49208e-05
4.61917e-05
4.71113e-05
4.46071e-05
4.21823e-05
3.99755e-05
3.80099e-05
3.63143e-05
3.4904e-05
3.37718e-05
3.28828e-05
3.21831e-05
3.16149e-05
3.1127e-05
3.06798e-05
3.02457e-05
2.98075e-05
2.93551e-05
2.88829e-05
2.83878e-05
2.78684e-05
2.73239e-05
2.67544e-05
2.61603e-05
2.55426e-05
2.49023e-05
1.76816e-05
3.90279e-05
3.88861e-05
3.87287e-05
3.85544e-05
3.83593e-05
3.81319e-05
3.7854e-05
3.75322e-05
3.72837e-05
3.74032e-05
3.82389e-05
3.99643e-05
4.01672e-05
4.35917e-05
4.30266e-05
3.53993e-05
3.61919e-05
4.65936e-05
4.56207e-05
4.34619e-05
4.2307e-05
4.27455e-05
4.37237e-05
4.49442e-05
4.61995e-05
4.6293e-05
4.36233e-05
4.1214e-05
3.90794e-05
3.72343e-05
3.56895e-05
3.4437e-05
3.34474e-05
3.26724e-05
3.20547e-05
3.154e-05
3.10833e-05
3.06518e-05
3.0224e-05
2.97865e-05
2.93318e-05
2.88557e-05
2.83561e-05
2.78318e-05
2.72825e-05
2.67084e-05
2.61102e-05
2.54888e-05
2.48454e-05
1.75963e-05
3.90618e-05
3.89222e-05
3.87673e-05
3.85955e-05
3.84032e-05
3.81799e-05
3.79081e-05
3.75881e-05
3.73135e-05
3.73385e-05
3.79882e-05
3.9407e-05
3.9454e-05
4.30081e-05
4.54989e-05
3.96957e-05
4.23602e-05
4.81396e-05
4.58372e-05
4.37211e-05
4.2506e-05
4.28899e-05
4.38542e-05
4.50702e-05
4.63253e-05
4.53798e-05
4.27167e-05
4.03657e-05
3.83355e-05
3.66292e-05
3.5236e-05
3.41277e-05
3.32592e-05
3.25749e-05
3.20182e-05
3.15398e-05
3.11014e-05
3.06766e-05
3.02486e-05
2.98073e-05
2.93471e-05
2.88648e-05
2.83588e-05
2.78282e-05
2.72731e-05
2.66937e-05
2.60908e-05
2.54654e-05
2.48185e-05
1.75531e-05
3.91022e-05
3.89657e-05
3.88141e-05
3.86458e-05
3.84575e-05
3.82397e-05
3.79757e-05
3.76608e-05
3.73679e-05
3.73125e-05
3.77964e-05
3.75982e-05
3.88725e-05
4.22343e-05
4.545e-05
4.8082e-05
5.13524e-05
4.91733e-05
4.62149e-05
4.40825e-05
4.2916e-05
4.31265e-05
4.40848e-05
4.53111e-05
4.65793e-05
4.45407e-05
4.19219e-05
3.96602e-05
3.77556e-05
3.61929e-05
3.49419e-05
3.39586e-05
3.31881e-05
3.25724e-05
3.20579e-05
3.16013e-05
3.1171e-05
3.07459e-05
3.0313e-05
2.98647e-05
2.93966e-05
2.89064e-05
2.83928e-05
2.78551e-05
2.72936e-05
2.67085e-05
2.61006e-05
2.54708e-05
2.48203e-05
1.75502e-05
3.9149e-05
3.90165e-05
3.88691e-05
3.87054e-05
3.85224e-05
3.83116e-05
3.80573e-05
3.77514e-05
3.74491e-05
3.7331e-05
3.76757e-05
3.7572e-05
3.83569e-05
4.17851e-05
4.48862e-05
4.77079e-05
5.07641e-05
4.95143e-05
4.68408e-05
4.45385e-05
4.33505e-05
4.34598e-05
4.44206e-05
4.56721e-05
4.65447e-05
4.3793e-05
4.12515e-05
3.91038e-05
3.7334e-05
3.59098e-05
3.47857e-05
3.39064e-05
3.32119e-05
3.2645e-05
3.21572e-05
3.17112e-05
3.12814e-05
3.0851e-05
3.041e-05
2.99526e-05
2.94753e-05
2.89762e-05
2.84543e-05
2.79092e-05
2.73409e-05
2.675e-05
2.61369e-05
2.55028e-05
2.48486e-05
1.75846e-05
3.92022e-05
3.90743e-05
3.8932e-05
3.87741e-05
3.85977e-05
3.83953e-05
3.81529e-05
3.78598e-05
3.75567e-05
3.73932e-05
3.76221e-05
3.83738e-05
3.91493e-05
4.17534e-05
4.36217e-05
4.68519e-05
4.99867e-05
4.97321e-05
4.74421e-05
4.50851e-05
4.38023e-05
4.38901e-05
4.48621e-05
4.61533e-05
4.602e-05
4.31539e-05
4.07119e-05
3.8689e-05
3.7053e-05
3.57562e-05
3.47411e-05
3.39452e-05
3.33072e-05
3.27732e-05
3.23001e-05
3.18567e-05
3.14222e-05
3.09835e-05
3.05327e-05
3.00651e-05
2.95779e-05
2.90696e-05
2.85393e-05
2.79867e-05
2.74119e-05
2.68151e-05
2.61971e-05
2.55587e-05
2.49009e-05
1.76532e-05
3.92616e-05
3.9139e-05
3.90027e-05
3.88515e-05
3.8683e-05
3.84906e-05
3.82618e-05
3.79849e-05
3.76884e-05
3.74946e-05
3.76275e-05
3.83405e-05
3.96391e-05
4.1352e-05
4.28515e-05
4.54478e-05
4.90925e-05
4.99134e-05
4.79122e-05
4.57266e-05
4.4347e-05
4.44172e-05
4.54068e-05
4.67488e-05
4.54087e-05
4.26231e-05
4.02932e-05
3.83977e-05
3.68885e-05
3.5705e-05
3.47808e-05
3.40501e-05
3.34527e-05
3.29394e-05
3.24726e-05
3.20265e-05
3.15844e-05
3.11358e-05
3.06744e-05
3.01963e-05
2.96993e-05
2.91821e-05
2.86437e-05
2.80839e-05
2.75028e-05
2.69006e-05
2.62779e-05
2.56354e-05
2.49742e-05
1.77522e-05
3.93269e-05
3.92103e-05
3.90808e-05
3.89373e-05
3.87778e-05
3.85967e-05
3.83831e-05
3.81251e-05
3.78413e-05
3.76302e-05
3.76858e-05
3.82396e-05
3.93543e-05
4.04994e-05
4.22461e-05
4.4646e-05
4.81083e-05
5.01446e-05
4.83416e-05
4.63631e-05
4.50198e-05
4.50397e-05
4.60491e-05
4.74257e-05
4.48817e-05
4.21905e-05
3.99782e-05
3.82069e-05
3.68143e-05
3.57291e-05
3.48796e-05
3.41987e-05
3.36298e-05
3.31284e-05
3.26625e-05
3.22109e-05
3.17598e-05
3.13009e-05
3.0829e-05
3.03409e-05
2.98347e-05
2.9309e-05
2.87632e-05
2.81969e-05
2.761e-05
2.70029e-05
2.63758e-05
2.57297e-05
2.50653e-05
1.78775e-05
3.93979e-05
3.92879e-05
3.91659e-05
3.90309e-05
3.88814e-05
3.87128e-05
3.85156e-05
3.82785e-05
3.80124e-05
3.77952e-05
3.77915e-05
3.82086e-05
3.91413e-05
3.98272e-05
4.16993e-05
4.39762e-05
4.73425e-05
5.02323e-05
4.87059e-05
4.70329e-05
4.57825e-05
4.57507e-05
4.67812e-05
4.75306e-05
4.44296e-05
4.18406e-05
3.97459e-05
3.80923e-05
3.68047e-05
3.5804e-05
3.50151e-05
3.43724e-05
3.38231e-05
3.3328e-05
3.28601e-05
3.24016e-05
3.19414e-05
3.14727e-05
3.09911e-05
3.0494e-05
2.99794e-05
2.94463e-05
2.88938e-05
2.83217e-05
2.77298e-05
2.71182e-05
2.64874e-05
2.58379e-05
2.51707e-05
1.8025e-05
3.94742e-05
3.93714e-05
3.92575e-05
3.91318e-05
3.89931e-05
3.88379e-05
3.86579e-05
3.8443e-05
3.81986e-05
3.79846e-05
3.79387e-05
3.82441e-05
3.90254e-05
3.95751e-05
4.12348e-05
4.34527e-05
4.67548e-05
4.97426e-05
4.91168e-05
4.77011e-05
4.6606e-05
4.65453e-05
4.75945e-05
4.70582e-05
4.40387e-05
4.1555e-05
3.95753e-05
3.80311e-05
3.68372e-05
3.59087e-05
3.51693e-05
3.4556e-05
3.40205e-05
3.35286e-05
3.30573e-05
3.2592e-05
3.21235e-05
3.16461e-05
3.1156e-05
3.0651e-05
3.01293e-05
2.95897e-05
2.90317e-05
2.84546e-05
2.78585e-05
2.72432e-05
2.66091e-05
2.59569e-05
2.52871e-05
1.81845e-05
3.95555e-05
3.94604e-05
3.93551e-05
3.92393e-05
3.91121e-05
3.89708e-05
3.88087e-05
3.86167e-05
3.83965e-05
3.81934e-05
3.81206e-05
3.83384e-05
3.89818e-05
3.9806e-05
4.09108e-05
4.34364e-05
4.61445e-05
4.88792e-05
4.95706e-05
4.8339e-05
4.74198e-05
4.74172e-05
4.84798e-05
4.66266e-05
4.3695e-05
4.13151e-05
3.94462e-05
3.8003e-05
3.68926e-05
3.60261e-05
3.53278e-05
3.47379e-05
3.42128e-05
3.37227e-05
3.32481e-05
3.27768e-05
3.23012e-05
3.18165e-05
3.13195e-05
3.0808e-05
3.02805e-05
2.97358e-05
2.91732e-05
2.85922e-05
2.79926e-05
2.73743e-05
2.67377e-05
2.60831e-05
2.54113e-05
1.82959e-05
3.96415e-05
3.95544e-05
3.94583e-05
3.93528e-05
3.92376e-05
3.91106e-05
3.89665e-05
3.87975e-05
3.86029e-05
3.84164e-05
3.83296e-05
3.84812e-05
3.90066e-05
3.99802e-05
4.12614e-05
4.32457e-05
4.5516e-05
4.80718e-05
5.00659e-05
4.88735e-05
4.81255e-05
4.83473e-05
4.91181e-05
4.62234e-05
4.33828e-05
4.11068e-05
3.93415e-05
3.79913e-05
3.69557e-05
3.61433e-05
3.54799e-05
3.49096e-05
3.43931e-05
3.39045e-05
3.34274e-05
3.29516e-05
3.24706e-05
3.19804e-05
3.1478e-05
3.09616e-05
3.04296e-05
2.9881e-05
2.9315e-05
2.87311e-05
2.81289e-05
2.75084e-05
2.68698e-05
2.62135e-05
2.55401e-05
1.8412e-05
3.97317e-05
3.9653e-05
3.95663e-05
3.94715e-05
3.93685e-05
3.9256e-05
3.91299e-05
3.89835e-05
3.8815e-05
3.86489e-05
3.85582e-05
3.8662e-05
3.90888e-05
3.99252e-05
4.11917e-05
4.28847e-05
4.49586e-05
4.73323e-05
4.98959e-05
4.94347e-05
4.88982e-05
4.93317e-05
4.90564e-05
4.58364e-05
4.30887e-05
4.09146e-05
3.92469e-05
3.79827e-05
3.70148e-05
3.62505e-05
3.56179e-05
3.50649e-05
3.45565e-05
3.40701e-05
3.35918e-05
3.31131e-05
3.26285e-05
3.21345e-05
3.16285e-05
3.11087e-05
3.05737e-05
3.00225e-05
2.94542e-05
2.88683e-05
2.82644e-05
2.76424e-05
2.70025e-05
2.63449e-05
2.56703e-05
1.85302e-05
3.98259e-05
3.97558e-05
3.96787e-05
3.95947e-05
3.95041e-05
3.9406e-05
3.92975e-05
3.9173e-05
3.90301e-05
3.88865e-05
3.87997e-05
3.88705e-05
3.92173e-05
3.99313e-05
4.10515e-05
4.25789e-05
4.4476e-05
4.66679e-05
4.90664e-05
5.00134e-05
4.9688e-05
5.03529e-05
4.85799e-05
4.54535e-05
4.2802e-05
4.07249e-05
3.9151e-05
3.79672e-05
3.70614e-05
3.6341e-05
3.57364e-05
3.51997e-05
3.46995e-05
3.42165e-05
3.37387e-05
3.32589e-05
3.27725e-05
3.22764e-05
3.17685e-05
3.12468e-05
3.07102e-05
3.01575e-05
2.9588e-05
2.90011e-05
2.83963e-05
2.77735e-05
2.71329e-05
2.64747e-05
2.57993e-05
1.86479e-05
3.99236e-05
3.98623e-05
3.9795e-05
3.97219e-05
3.96436e-05
3.95597e-05
3.94681e-05
3.93645e-05
3.92461e-05
3.91256e-05
3.90481e-05
3.90978e-05
3.93813e-05
3.999e-05
4.09743e-05
4.23443e-05
4.40656e-05
4.60811e-05
4.83002e-05
5.00874e-05
5.02673e-05
5.05336e-05
4.80936e-05
4.50644e-05
4.25085e-05
4.05288e-05
3.90454e-05
3.79376e-05
3.70899e-05
3.64102e-05
3.5832e-05
3.53113e-05
3.48201e-05
3.43417e-05
3.38661e-05
3.3387e-05
3.29007e-05
3.24043e-05
3.18959e-05
3.13738e-05
3.08369e-05
3.02839e-05
2.97142e-05
2.91271e-05
2.85222e-05
2.78994e-05
2.72586e-05
2.66001e-05
2.59244e-05
1.87627e-05
4.00245e-05
3.99721e-05
3.99145e-05
3.98524e-05
3.97862e-05
3.97161e-05
3.96407e-05
3.95565e-05
3.94611e-05
3.93633e-05
3.92983e-05
3.9336e-05
3.95706e-05
4.00906e-05
4.09528e-05
4.21746e-05
4.3727e-05
4.55694e-05
4.76185e-05
4.94571e-05
5.01911e-05
4.99163e-05
4.75913e-05
4.46608e-05
4.22022e-05
4.03197e-05
3.89244e-05
3.78893e-05
3.70967e-05
3.64556e-05
3.5903e-05
3.53984e-05
3.49172e-05
3.44448e-05
3.3973e-05
3.34964e-05
3.30117e-05
3.25167e-05
3.20093e-05
3.14881e-05
3.09519e-05
3.03997e-05
2.98307e-05
2.92443e-05
2.864e-05
2.80177e-05
2.73773e-05
2.6719e-05
2.60434e-05
1.88724e-05
4.01283e-05
4.00848e-05
4.0037e-05
3.99855e-05
3.99312e-05
3.98744e-05
3.98143e-05
3.97481e-05
3.96737e-05
3.95974e-05
3.95465e-05
3.95787e-05
3.97763e-05
4.02224e-05
4.0977e-05
4.20566e-05
4.34597e-05
4.51344e-05
4.70006e-05
4.86846e-05
4.93683e-05
4.91372e-05
4.70672e-05
4.4236e-05
4.18776e-05
4.00929e-05
3.87844e-05
3.78198e-05
3.708e-05
3.64762e-05
3.59486e-05
3.54606e-05
3.49903e-05
3.45255e-05
3.40589e-05
3.35864e-05
3.3105e-05
3.26125e-05
3.21075e-05
3.15883e-05
3.1054e-05
3.05035e-05
2.9936e-05
2.9351e-05
2.87479e-05
2.81267e-05
2.74871e-05
2.68295e-05
2.61542e-05
1.89752e-05
4.02345e-05
4.02e-05
4.01619e-05
4.0121e-05
4.00781e-05
4.0034e-05
3.99881e-05
3.99384e-05
3.98829e-05
3.98262e-05
3.97897e-05
3.98209e-05
3.99907e-05
4.03759e-05
4.10361e-05
4.19936e-05
4.32548e-05
4.47707e-05
4.63793e-05
4.79971e-05
4.8516e-05
4.83475e-05
4.64846e-05
4.3785e-05
4.15312e-05
3.98458e-05
3.86239e-05
3.77282e-05
3.70397e-05
3.6472e-05
3.59693e-05
3.54982e-05
3.50399e-05
3.45838e-05
3.4124e-05
3.36568e-05
3.31799e-05
3.26914e-05
3.21898e-05
3.16737e-05
3.11421e-05
3.05941e-05
3.00289e-05
2.94458e-05
2.88445e-05
2.82248e-05
2.75865e-05
2.69299e-05
2.62553e-05
1.90694e-05
4.03431e-05
4.03174e-05
4.02889e-05
4.02582e-05
4.02264e-05
4.01943e-05
4.01616e-05
4.01267e-05
4.0088e-05
4.00488e-05
4.0026e-05
4.00586e-05
4.02079e-05
4.05433e-05
4.11227e-05
4.19728e-05
4.31051e-05
4.44334e-05
4.58902e-05
4.73819e-05
4.77709e-05
4.74929e-05
4.57898e-05
4.3305e-05
4.11612e-05
3.95779e-05
3.84427e-05
3.7615e-05
3.69765e-05
3.64441e-05
3.59661e-05
3.55124e-05
3.50668e-05
3.46205e-05
3.41685e-05
3.3708e-05
3.32367e-05
3.27531e-05
3.22558e-05
3.17437e-05
3.12156e-05
3.06708e-05
3.01083e-05
2.95278e-05
2.89287e-05
2.83109e-05
2.76742e-05
2.70189e-05
2.63453e-05
1.91537e-05
4.04536e-05
4.04367e-05
4.04176e-05
4.0397e-05
4.03758e-05
4.03549e-05
4.03343e-05
4.03127e-05
4.02886e-05
4.02645e-05
4.0254e-05
4.02894e-05
4.04232e-05
4.07177e-05
4.12285e-05
4.19872e-05
4.29944e-05
4.41915e-05
4.55176e-05
4.68608e-05
4.71081e-05
4.66927e-05
4.51023e-05
4.27957e-05
4.07678e-05
3.92901e-05
3.82424e-05
3.74819e-05
3.68922e-05
3.63943e-05
3.59405e-05
3.55045e-05
3.50723e-05
3.46367e-05
3.41935e-05
3.37404e-05
3.32757e-05
3.27978e-05
3.23057e-05
3.17981e-05
3.12742e-05
3.0733e-05
3.01739e-05
2.95963e-05
2.89998e-05
2.83841e-05
2.77493e-05
2.70955e-05
2.64231e-05
1.92271e-05
4.05658e-05
4.05578e-05
4.05479e-05
4.0537e-05
4.05259e-05
4.05155e-05
4.05059e-05
4.0496e-05
4.04845e-05
4.04732e-05
4.04731e-05
4.05116e-05
4.06335e-05
4.08943e-05
4.13458e-05
4.20193e-05
4.2921e-05
4.40382e-05