/*--------------------------------*- C++ -*----------------------------------*\
  =========                 |
  \\      /  F ield         | OpenFOAM: The Open Source CFD Toolbox
   \\    /   O peration     | Website:  https://openfoam.org
    \\  /    A nd           | Version:  9
     \\/     M anipulation  |
\*---------------------------------------------------------------------------*/
FoamFile
{
    format      ascii;
    class       surfaceVectorField;
    location    "0.03";
    object      Uf;
}
// * * * * * * * * * * * * * * * * * * * * * * * * * * * * * * * * * * * * * //

dimensions      [0 1 -1 0 0 0 0];

internalField   nonuniform List<vector> 
9850
(
(-0.141043 0 0.0447956)
(-0.132171 0 0.0429917)
(-0.152219 0 0.0558923)
(-0.142545 0 0.0534704)
(-0.16404 0 0.0688401)
(-0.1535 0 0.0655772)
(-0.176327 0 0.0839369)
(-0.164932 0 0.0796309)
(-0.188638 0 0.101602)
(-0.176497 0 0.0957735)
(-0.200671 0 0.124286)
(-0.187574 0 0.114665)
(-0.21349 0 0.159693)
(-0.198083 0 0.141065)
(-0.227753 0 0.211487)
(-0.209909 0 0.185685)
(-0.231807 0 0.23855)
(-0.221179 0 0.240353)
(-0.194165 0 0.123325)
(-0.21122 0 0.220847)
(-0.0959044 0 -0.241999)
(-0.142718 0 -0.0236143)
(0.00918014 0 -0.798253)
(-0.0014231 0 -0.529605)
(0.019325 0 -1.17531)
(0.0537471 0 -1.1013)
(-0.00497133 0 -1.26805)
(0.00840238 0 -1.2403)
(-0.0242865 0 -1.2907)
(-0.0216727 0 -1.28075)
(-0.026748 0 -1.29619)
(-0.0312001 0 -1.29382)
(-0.0172035 0 -1.29799)
(-0.0233337 0 -1.30223)
(-0.00650914 0 -1.29577)
(-0.0106217 0 -1.30145)
(-0.000299352 0 -1.29285)
(-0.00166242 0 -1.2961)
(0.00195798 0 -1.29146)
(0.0017635 0 -1.29243)
(0.00243507 0 -1.29134)
(0.00230159 0 -1.29138)
(0.00265956 0 -1.29177)
(0.00239585 0 -1.29154)
(0.00290013 0 -1.2931)
(0.00272734 0 -1.29221)
(0.00334171 0 -1.29613)
(0.0029934 0 -1.29415)
(0.00463445 0 -1.30036)
(0.00291056 0 -1.29833)
(0.00765434 0 -1.30252)
(0.00288038 0 -1.30334)
(0.012316 0 -1.29794)
(0.00405246 0 -1.30415)
(0.0162483 0 -1.28356)
(0.00733677 0 -1.29477)
(0.0148284 0 -1.25812)
(0.0100384 0 -1.27189)
(0.00266068 0 -1.22459)
(0.00535124 0 -1.23456)
(-0.00140695 0 -1.16748)
(-0.0046505 0 -1.20333)
(0.0247086 0 -1.00739)
(0.000622367 0 -1.14483)
(0.0822863 0 -0.756328)
(0.0380045 0 -0.929857)
(0.148372 0 -0.506069)
(0.0972039 0 -0.676773)
(0.208544 0 -0.2915)
(0.15935 0 -0.437006)
(0.255927 0 -0.129251)
(0.213085 0 -0.238055)
(0.288175 0 -0.0232628)
(0.25313 0 -0.0935796)
(0.306552 0 0.0338437)
(0.278854 0 -0.00351162)
(0.314456 0 0.0554397)
(0.292489 0 0.0418831)
(0.315691 0 0.0553273)
(0.297513 0 0.0564337)
(0.313386 0 0.0442969)
(0.29734 0 0.0529605)
(0.30961 0 0.0291916)
(0.294565 0 0.0408659)
(0.3055 0 0.0135724)
(0.290811 0 0.0258241)
(0.301566 0 -0.00110815)
(0.286925 0 0.0106638)
(0.297972 0 -0.0144914)
(0.283266 0 -0.00351628)
(0.294729 0 -0.0266604)
(0.279937 0 -0.016478)
(0.29179 0 -0.0377866)
(0.276936 0 -0.0283097)
(0.289098 0 -0.0478993)
(0.274221 0 -0.0391256)
(0.286581 0 -0.0565089)
(0.271636 0 -0.048794)
(0.268466 0 -0.0563843)
(-0.133745 0 0.0516804)
(-0.125202 0 0.0494034)
(-0.143937 0 0.063185)
(-0.134693 0 0.0602648)
(-0.154546 0 0.0764005)
(-0.144629 0 0.0726502)
(-0.165289 0 0.0915112)
(-0.154797 0 0.0867928)
(-0.175655 0 0.108935)
(-0.164769 0 0.102684)
(-0.185369 0 0.131617)
(-0.173913 0 0.12114)
(-0.195277 0 0.167299)
(-0.182319 0 0.147671)
(-0.2046 0 0.215012)
(-0.191435 0 0.191901)
(-0.199846 0 0.223666)
(-0.197005 0 0.237184)
(-0.152611 0 0.0759607)
(-0.17794 0 0.189357)
(-0.0573228 0 -0.309592)
(-0.108585 0 -0.0871398)
(0.045912 0 -0.827321)
(0.0242537 0 -0.598428)
(0.0549938 0 -1.15665)
(0.112535 0 -1.10735)
(-0.00638436 0 -1.24868)
(0.0173287 0 -1.19938)
(-0.0285704 0 -1.28391)
(-0.0203455 0 -1.26596)
(-0.0288405 0 -1.2996)
(-0.0289795 0 -1.29364)
(-0.0172391 0 -1.30565)
(-0.0208098 0 -1.30996)
(-0.00560422 0 -1.3018)
(-0.00839588 0 -1.3092)
(0.000458243 0 -1.29569)
(-0.000141563 0 -1.30014)
(0.00212938 0 -1.29225)
(0.00236239 0 -1.29354)
(0.00225123 0 -1.29158)
(0.00216141 0 -1.29148)
(0.00247491 0 -1.29198)
(0.00194913 0 -1.29173)
(0.00281313 0 -1.2933)
(0.00251372 0 -1.29251)
(0.00249835 0 -1.29644)
(0.00307165 0 -1.29386)
(0.00102322 0 -1.3014)
(0.00164627 0 -1.29687)
(-0.000726758 0 -1.30499)
(-0.00319612 0 -1.30153)
(-0.000779669 0 -1.30114)
(-0.00930909 0 -1.30409)
(0.00123646 0 -1.28331)
(-0.0108304 0 -1.29707)
(0.0010524 0 -1.24868)
(-0.00671044 0 -1.27166)
(-0.0051867 0 -1.21378)
(-0.00340547 0 -1.22674)
(-0.000633832 0 -1.17551)
(0.000599411 0 -1.20932)
(0.0124769 0 -1.05523)
(0.018036 0 -1.16293)
(0.0553144 0 -0.839617)
(0.0326241 0 -0.991882)
(0.111313 0 -0.599114)
(0.075362 0 -0.761825)
(0.16555 0 -0.377012)
(0.126547 0 -0.523415)
(0.210774 0 -0.197795)
(0.173866 0 -0.313634)
(0.243804 0 -0.0709781)
(0.211487 0 -0.151483)
(0.264629 0 0.00604823)
(0.237598 0 -0.0418069)
(0.275352 0 0.0435186)
(0.253013 0 0.0211999)
(0.27899 0 0.0541803)
(0.260094 0 0.0490736)
(0.278383 0 0.0493774)
(0.261638 0 0.0542484)
(0.275659 0 0.0372384)
(0.260056 0 0.0469301)
(0.272148 0 0.0226276)
(0.257035 0 0.0340251)
(0.268549 0 0.0079735)
(0.253571 0 0.0194804)
(0.265163 0 -0.00576913)
(0.250161 0 0.00518359)
(0.262078 0 -0.0183767)
(0.247 0 -0.00816305)
(0.259285 0 -0.0298818)
(0.244138 0 -0.0204125)
(0.256735 0 -0.0402326)
(0.241549 0 -0.0315612)
(0.254353 0 -0.0488387)
(0.239064 0 -0.041383)
(0.236056 0 -0.0488271)
(-0.126228 0 0.0579932)
(-0.118014 0 0.0553035)
(-0.13548 0 0.0697579)
(-0.126677 0 0.0664323)
(-0.144987 0 0.0830932)
(-0.135675 0 0.0789883)
(-0.154402 0 0.0980392)
(-0.144733 0 0.0930692)
(-0.163191 0 0.115005)
(-0.153401 0 0.108544)
(-0.171143 0 0.137386)
(-0.161081 0 0.126442)
(-0.17891 0 0.172566)
(-0.16803 0 0.152848)
(-0.184538 0 0.214615)
(-0.175324 0 0.195653)
(-0.17461 0 0.204173)
(-0.177063 0 0.230565)
(-0.125808 0 0.0275321)
(-0.152129 0 0.156823)
(-0.0335975 0 -0.376446)
(-0.0826401 0 -0.148614)
(0.071939 0 -0.881645)
(0.0401848 0 -0.668786)
(0.115347 0 -1.15162)
(0.168379 0 -1.13629)
(0.00646085 0 -1.21747)
(0.0496836 0 -1.12679)
(-0.0214285 0 -1.27791)
(-0.00184551 0 -1.24736)
(-0.0226265 0 -1.30499)
(-0.0122713 0 -1.29284)
(-0.0124567 0 -1.31408)
(-0.00865084 0 -1.31674)
(-0.00269643 0 -1.30778)
(-0.00215907 0 -1.31571)
(0.00188477 0 -1.29807)
(0.00247979 0 -1.3032)
(0.00236375 0 -1.29258)
(0.00317353 0 -1.29386)
(0.00184641 0 -1.29163)
(0.00183686 0 -1.29106)
(0.002015 0 -1.29226)
(0.000934518 0 -1.29187)
(0.00279921 0 -1.29306)
(0.00170197 0 -1.29321)
(0.00215306 0 -1.29422)
(0.0035815 0 -1.29325)
(-0.00280911 0 -1.29668)
(0.0027311 0 -1.29197)
(-0.0117036 0 -1.29967)
(-0.00573971 0 -1.29231)
(-0.0191657 0 -1.29815)
(-0.0195778 0 -1.29598)
(-0.0188756 0 -1.28196)
(-0.0250328 0 -1.2974)
(-0.0117393 0 -1.2468)
(-0.0158489 0 -1.2802)
(0.00144583 0 -1.21971)
(-2.99943e-05 0 -1.24328)
(0.0223209 0 -1.19019)
(0.0285164 0 -1.23679)
(0.0312245 0 -1.08878)
(0.0576443 0 -1.17522)
(0.0559501 0 -0.902791)
(0.0581264 0 -1.02768)
(0.0940129 0 -0.676668)
(0.076079 0 -0.819636)
(0.136542 0 -0.452928)
(0.108686 0 -0.591173)
(0.175123 0 -0.262199)
(0.14472 0 -0.378111)
(0.205287 0 -0.118943)
(0.17631 0 -0.204361)
(0.225776 0 -0.0246975)
(0.199952 0 -0.0794837)
(0.237498 0 0.0277042)
(0.215087 0 -0.00141063)
(0.242518 0 0.0494489)
(0.222952 0 0.0389168)
(0.24314 0 0.0517492)
(0.225565 0 0.0529281)
(0.241305 0 0.0434936)
(0.224927 0 0.0510165)
(0.23836 0 0.0305907)
(0.222597 0 0.0409012)
(0.235103 0 0.0163923)
(0.219591 0 0.0274589)
(0.23193 0 0.00250269)
(0.216478 0 0.013337)
(0.228995 0 -0.0104669)
(0.213523 0 -0.000251968)
(0.226324 0 -0.0223363)
(0.210819 0 -0.0128592)
(0.223876 0 -0.0329181)
(0.208356 0 -0.0243009)
(0.221573 0 -0.041505)
(0.205899 0 -0.0342175)
(0.202854 0 -0.041556)
(-0.118538 0 0.063766)
(-0.110648 0 0.0607133)
(-0.126946 0 0.0756951)
(-0.118562 0 0.0720378)
(-0.135489 0 0.0890208)
(-0.126718 0 0.0846832)
(-0.143795 0 0.103665)
(-0.134836 0 0.0986066)
(-0.151374 0 0.120111)
(-0.142482 0 0.113597)
(-0.15815 0 0.142103)
(-0.149166 0 0.130959)
(-0.164627 0 0.176233)
(-0.155303 0 0.157167)
(-0.167832 0 0.211885)
(-0.161573 0 0.197789)
(-0.154326 0 0.183505)
(-0.161225 0 0.221562)
(-0.105361 0 -0.0193458)
(-0.13352 0 0.124179)
(-0.0116249 0 -0.440666)
(-0.0609644 0 -0.211105)
(0.0946826 0 -0.923963)
(0.0453085 0 -0.739657)
(0.161608 0 -1.12226)
(0.141212 0 -1.18091)
(0.0487375 0 -1.16726)
(0.0841633 0 -1.05154)
(0.00614201 0 -1.26531)
(0.0340702 0 -1.21897)
(0.000455364 0 -1.30742)
(0.0245378 0 -1.28905)
(0.00133696 0 -1.31913)
(0.0162889 0 -1.31733)
(0.00335995 0 -1.31134)
(0.008833 0 -1.31706)
(0.0039866 0 -1.29906)
(0.00601432 0 -1.30361)
(0.00252934 0 -1.29206)
(0.0041764 0 -1.29289)
(0.000905608 0 -1.29131)
(0.00133305 0 -1.28973)
(0.000661438 0 -1.29284)
(-0.000991986 0 -1.29166)
(0.00253432 0 -1.29334)
(-0.000574761 0 -1.2949)
(0.00412565 0 -1.29073)
(0.00380228 0 -1.29475)
(-0.000494341 0 -1.28702)
(0.00757545 0 -1.2874)
(-0.0130157 0 -1.2876)
(0.00125668 0 -1.27934)
(-0.0250268 0 -1.29352)
(-0.0142559 0 -1.28293)
(-0.0243143 0 -1.29306)
(-0.0168128 0 -1.29821)
(-0.00352177 0 -1.27579)
(-0.00199775 0 -1.30507)
(0.036792 0 -1.26117)
(0.0187276 0 -1.29385)
(0.0577608 0 -1.22499)
(0.0493153 0 -1.26438)
(0.0782915 0 -1.11144)
(0.0692683 0 -1.20356)
(0.0804861 0 -0.934124)
(0.0826652 0 -1.03086)
(0.093233 0 -0.726075)
(0.0829743 0 -0.838996)
(0.118328 0 -0.51023)
(0.0966027 0 -0.631155)
(0.146429 0 -0.315681)
(0.120061 0 -0.425072)
(0.170943 0 -0.161724)
(0.144142 0 -0.247335)
(0.188987 0 -0.0542465)
(0.163839 0 -0.112664)
(0.20022 0 0.0107978)
(0.177457 0 -0.0230784)
(0.205728 0 0.0427376)
(0.185258 0 0.0277729)
(0.207151 0 0.0521455)
(0.188485 0 0.0499068)
(0.206076 0 0.0481752)
(0.188641 0 0.0534106)
(0.203723 0 0.0374429)
(0.187035 0 0.0463969)
(0.200885 0 0.0240657)
(0.18461 0 0.0344091)
(0.198005 0 0.0102649)
(0.181943 0 0.0207385)
(0.195282 0 -0.00292855)
(0.17934 0 0.00708842)
(0.192771 0 -0.0150723)
(0.176936 0 -0.00576145)
(0.190439 0 -0.0258099)
(0.174753 0 -0.0173842)
(0.188152 0 -0.0343636)
(0.172497 0 -0.0271024)
(0.169508 0 -0.0331347)
(-0.110726 0 0.0690155)
(-0.103147 0 0.0656551)
(-0.118381 0 0.0810629)
(-0.110374 0 0.0771416)
(-0.126102 0 0.094322)
(-0.117793 0 0.0898303)
(-0.133534 0 0.108621)
(-0.125143 0 0.103561)
(-0.140273 0 0.124567)
(-0.132038 0 0.11809)
(-0.146389 0 0.146199)
(-0.138148 0 0.135035)
(-0.152283 0 0.179)
(-0.144061 0 0.161096)
(-0.154385 0 0.207806)
(-0.150113 0 0.19919)
(-0.139079 0 0.162464)
(-0.149231 0 0.211357)
(-0.0899582 0 -0.0655701)
(-0.12268 0 0.0914321)
(-0.00431869 0 -0.50043)
(-0.0530581 0 -0.268198)
(0.0761771 0 -0.97405)
(0.0327297 0 -0.793321)
(0.0871292 0 -1.1112)
(0.0075317 0 -1.18821)
(0.0731672 0 -1.11886)
(0.041942 0 -1.04223)
(0.0555829 0 -1.24168)
(0.0613409 0 -1.20724)
(0.038043 0 -1.29792)
(0.0639397 0 -1.27735)
(0.0233026 0 -1.3147)
(0.0441541 0 -1.3075)
(0.0120006 0 -1.30894)
(0.0206689 0 -1.30952)
(0.00651617 0 -1.29734)
(0.00937371 0 -1.29996)
(0.00271917 0 -1.2902)
(0.00560393 0 -1.29036)
(-0.000612848 0 -1.29011)
(0.00117287 0 -1.28701)
(-0.00220419 0 -1.29375)
(-0.00351098 0 -1.2903)
(0.000725003 0 -1.29617)
(-0.00489423 0 -1.29753)
(0.00730577 0 -1.29105)
(0.00137181 0 -1.30094)
(0.00901269 0 -1.27939)
(0.0118943 0 -1.28909)
(0.000515633 0 -1.27595)
(0.0124454 0 -1.27054)
(-0.00671765 0 -1.2919)
(0.00461322 0 -1.27507)
(0.00364035 0 -1.31261)
(0.00879411 0 -1.31002)
(0.0213738 0 -1.31823)
(0.0237186 0 -1.32627)
(0.0477857 0 -1.2938)
(0.0249842 0 -1.32698)
(0.0441555 0 -1.25481)
(-0.00184228 0 -1.25961)
(0.0817857 0 -1.13753)
(0.00157102 0 -1.2555)
(0.0828926 0 -0.94274)
(0.0460391 0 -1.03246)
(0.0869787 0 -0.745605)
(0.0653596 0 -0.845203)
(0.0997454 0 -0.544225)
(0.0762256 0 -0.651494)
(0.118349 0 -0.354194)
(0.0923861 0 -0.456162)
(0.136995 0 -0.196055)
(0.110602 0 -0.280023)
(0.152005 0 -0.0799592)
(0.126684 0 -0.140266)
(0.162145 0 -0.00527528)
(0.138625 0 -0.0426377)
(0.167721 0 0.0352049)
(0.146114 0 0.0164913)
(0.16976 0 0.0510631)
(0.149808 0 0.0455804)
(0.169452 0 0.0513181)
(0.150752 0 0.0540962)
(0.167818 0 0.0429566)
(0.149977 0 0.0502113)
(0.16559 0 0.0306458)
(0.148292 0 0.0398681)
(0.163217 0 0.0171222)
(0.146242 0 0.0268382)
(0.160934 0 0.00381582)
(0.144144 0 0.0132411)
(0.158825 0 -0.00851907)
(0.142161 0 0.000202681)
(0.156884 0 -0.0191349)
(0.140343 0 -0.0116261)
(0.154936 0 -0.0263888)
(0.13843 0 -0.0210431)
(0.135792 0 -0.0254358)
(-0.102826 0 0.0738034)
(-0.095532 0 0.0701634)
(-0.10981 0 0.0859424)
(-0.102131 0 0.0817973)
(-0.116843 0 0.0991186)
(-0.10891 0 0.0945189)
(-0.123617 0 0.113102)
(-0.115646 0 0.108077)
(-0.129848 0 0.128664)
(-0.122027 0 0.122244)
(-0.135762 0 0.150082)
(-0.127906 0 0.138978)
(-0.141717 0 0.181549)
(-0.134067 0 0.165066)
(-0.144119 0 0.203377)
(-0.140706 0 0.200791)
(-0.130237 0 0.141689)
(-0.140595 0 0.202103)
(-0.086168 0 -0.107586)
(-0.117853 0 0.0620525)
(-0.0216772 0 -0.54727)
(-0.063747 0 -0.311191)
(-0.0160735 0 -0.99579)
(-0.0072818 0 -0.797057)
(-0.0507464 0 -1.12108)
(-0.116087 0 -1.1651)
(0.0174568 0 -1.12703)
(-0.065966 0 -1.0877)
(0.0797584 0 -1.23314)
(0.0330118 0 -1.24878)
(0.0654886 0 -1.28186)
(0.0628306 0 -1.26784)
(0.0405641 0 -1.30037)
(0.0516707 0 -1.29089)
(0.0183486 0 -1.2997)
(0.0244452 0 -1.29471)
(0.00890351 0 -1.2927)
(0.0111074 0 -1.29366)
(0.00364833 0 -1.2867)
(0.00832228 0 -1.28685)
(-0.0018457 0 -1.28714)
(0.00269525 0 -1.28253)
(-0.00628085 0 -1.29405)
(-0.00485295 0 -1.28651)
(-0.00440413 0 -1.30261)
(-0.00975013 0 -1.29921)
(0.00619018 0 -1.30002)
(-0.00468613 0 -1.31092)
(0.0157369 0 -1.28156)
(0.00800337 0 -1.29852)
(0.0155854 0 -1.27239)
(0.0116489 0 -1.27038)
(0.0209025 0 -1.29248)
(0.00989335 0 -1.28085)
(0.0310818 0 -1.32052)
(0.019358 0 -1.32163)
(0.0359336 0 -1.32087)
(0.0503916 0 -1.33208)
(-0.0248125 0 -1.278)
(0.0262992 0 -1.25078)
(-0.0584363 0 -1.25852)
(-0.00805275 0 -1.21536)
(-0.0273521 0 -1.16318)
(-0.0190719 0 -1.29841)
(0.0308225 0 -0.956969)
(-0.00067161 0 -1.1167)
(0.0552078 0 -0.757856)
(0.0368427 0 -0.882239)
(0.0701456 0 -0.564679)
(0.0500907 0 -0.675293)
(0.0853045 0 -0.380949)
(0.061789 0 -0.481495)
(0.100311 0 -0.222654)
(0.0753183 0 -0.30633)
(0.113027 0 -0.101653)
(0.0881541 0 -0.163649)
(0.122255 0 -0.020109)
(0.0984276 0 -0.060436)
(0.127912 0 0.0271322)
(0.105501 0 0.00504462)
(0.130591 0 0.0485214)
(0.109584 0 0.0398925)
(0.131138 0 0.052692)
(0.111317 0 0.0528787)
(0.130358 0 0.0467357)
(0.111441 0 0.0520321)
(0.12888 0 0.03566)
(0.110604 0 0.0434886)
(0.127124 0 0.0225896)
(0.109279 0 0.0313513)
(0.125329 0 0.00929768)
(0.107765 0 0.0180789)
(0.123607 0 -0.00314315)
(0.106228 0 0.00507133)
(0.121927 0 -0.0135986)
(0.104717 0 -0.00664447)
(0.120172 0 -0.0199088)
(0.102989 0 -0.015582)
(0.100661 0 -0.0189932)
(-0.09485 0 0.0781766)
(-0.0878096 0 0.0742731)
(-0.101235 0 0.0904032)
(-0.0938315 0 0.0860538)
(-0.107695 0 0.10352)
(-0.100051 0 0.0988259)
(-0.113991 0 0.117277)
(-0.106295 0 0.112275)
(-0.119982 0 0.132643)
(-0.112348 0 0.126238)
(-0.12607 0 0.154084)
(-0.118245 0 0.143037)
(-0.13263 0 0.184483)
(-0.124926 0 0.169439)
(-0.136304 0 0.199909)
(-0.132626 0 0.203241)
(-0.126145 0 0.123255)
(-0.13414 0 0.19533)
(-0.0916671 0 -0.139485)
(-0.116491 0 0.0390676)
(-0.0657413 0 -0.567921)
(-0.0840597 0 -0.328475)
(-0.0783517 0 -0.982095)
(-0.0506891 0 -0.78865)
(-0.136072 0 -1.13054)
(-0.109645 0 -1.12662)
(-0.0726429 0 -1.18622)
(-0.0844239 0 -1.12999)
(0.0199511 0 -1.2707)
(-0.0165552 0 -1.31051)
(0.0485588 0 -1.27927)
(0.0149622 0 -1.28691)
(0.034281 0 -1.28596)
(0.0280705 0 -1.28137)
(0.0165217 0 -1.28938)
(0.0158604 0 -1.28287)
(0.0112388 0 -1.28815)
(0.0114586 0 -1.29014)
(0.00689692 0 -1.28217)
(0.0132332 0 -1.28396)
(-0.000520365 0 -1.2818)
(0.00745342 0 -1.27648)
(-0.00831853 0 -1.29198)
(-0.00154663 0 -1.27983)
(-0.0107046 0 -1.30896)
(-0.00830755 0 -1.29707)
(-0.00280924 0 -1.31138)
(-0.00617805 0 -1.31836)
(0.00574665 0 -1.28701)
(-0.00474166 0 -1.30697)
(0.00387561 0 -1.2739)
(-0.00513379 0 -1.26844)
(0.0110986 0 -1.30014)
(-0.00430388 0 -1.2887)
(0.0621455 0 -1.31722)
(-0.000633714 0 -1.37983)
(0.0302178 0 -1.27242)
(0.00935894 0 -1.29389)
(0.0286453 0 -1.22252)
(0.0102208 0 -1.24881)
(0.040633 0 -1.24366)
(0.0282939 0 -1.23113)
(-0.00148314 0 -1.20183)
(0.0207685 0 -1.24027)
(0.0162674 0 -1.01106)
(-0.00045196 0 -1.1424)
(0.0317104 0 -0.786333)
(0.0163616 0 -0.905694)
(0.0421234 0 -0.584766)
(0.0251213 0 -0.691883)
(0.0522589 0 -0.401956)
(0.031794 0 -0.498434)
(0.0631169 0 -0.243903)
(0.0403962 0 -0.325364)
(0.0732421 0 -0.120172)
(0.0496849 0 -0.182268)
(0.0813204 0 -0.0339516)
(0.0579764 0 -0.0760181)
(0.0868809 0 0.0184312)
(0.0643536 0 -0.00620609)
(0.0901059 0 0.0443927)
(0.0686161 0 0.033048)
(0.0914925 0 0.0520758)
(0.0710197 0 0.0497919)
(0.0916119 0 0.0484995)
(0.0720137 0 0.0517538)
(0.0909589 0 0.0388453)
(0.0720594 0 0.0450885)
(0.0898942 0 0.0265105)
(0.0715326 0 0.0340874)
(0.0886401 0 0.0135532)
(0.0706933 0 0.0214593)
(0.0872979 0 0.00131581)
(0.0696944 0 0.00886611)
(0.0858654 0 -0.00881876)
(0.0685642 0 -0.00239589)
(0.0842522 0 -0.0147142)
(0.0670428 0 -0.0105629)
(0.0650127 0 -0.012462)
(-0.0867935 0 0.082168)
(-0.0799797 0 0.0780096)
(-0.0926369 0 0.094501)
(-0.0854616 0 0.0899495)
(-0.0986141 0 0.107613)
(-0.091179 0 0.102811)
(-0.104564 0 0.121276)
(-0.097015 0 0.116242)
(-0.110492 0 0.136683)
(-0.102857 0 0.130189)
(-0.116967 0 0.158452)
(-0.108904 0 0.147353)
(-0.124385 0 0.18821)
(-0.116138 0 0.174385)
(-0.129598 0 0.198489)
(-0.124796 0 0.206716)
(-0.123866 0 0.110745)
(-0.12787 0 0.191509)
(-0.103105 0 -0.15527)
(-0.11425 0 0.0252268)
(-0.0865193 0 -0.568894)
(-0.094518 0 -0.339532)
(-0.0714138 0 -0.966129)
(-0.0539929 0 -0.79872)
(-0.0450744 0 -1.13804)
(-0.0280189 0 -1.14418)
(-0.0324931 0 -1.23658)
(0.0183739 0 -1.13837)
(-0.0329722 0 -1.31188)
(-0.00298379 0 -1.31019)
(-0.00403814 0 -1.28569)
(-0.0394353 0 -1.3062)
(0.00840195 0 -1.27962)
(-0.00121583 0 -1.28966)
(0.00938548 0 -1.28602)
(0.0080104 0 -1.28353)
(0.0147241 0 -1.28775)
(0.0114209 0 -1.2937)
(0.0134489 0 -1.27811)
(0.016923 0 -1.28311)
(0.00625281 0 -1.27505)
(0.0148389 0 -1.27061)
(-0.00118761 0 -1.28653)
(0.0107325 0 -1.27347)
(-0.0052763 0 -1.3073)
(0.0118883 0 -1.2934)
(-0.00728839 0 -1.30973)
(0.0143803 0 -1.31646)
(-0.0154478 0 -1.28441)
(-0.00651891 0 -1.29891)
(-0.0120462 0 -1.27919)
(-0.0246908 0 -1.27196)
(-0.00808177 0 -1.33238)
(-0.0333855 0 -1.293)
(-0.0466734 0 -1.33742)
(-0.034974 0 -1.33583)
(-0.0243519 0 -1.28157)
(-0.0440293 0 -1.32059)
(0.00308241 0 -1.25053)
(-0.0183947 0 -1.28322)
(0.0241582 0 -1.24089)
(0.00746383 0 -1.25887)
(0.0188194 0 -1.18909)
(0.0123888 0 -1.2329)
(0.00431268 0 -1.02502)
(-0.00337141 0 -1.12139)
(0.00997183 0 -0.804285)
(-0.0059045 0 -0.91429)
(0.0148227 0 -0.599059)
(-0.00204062 0 -0.699611)
(0.0200578 0 -0.41657)
(0.00106059 0 -0.507183)
(0.0267679 0 -0.259689)
(0.00570692 0 -0.337127)
(0.0340332 0 -0.135249)
(0.0118076 0 -0.195628)
(0.0406181 0 -0.0464524)
(0.0181095 0 -0.08872)
(0.0457809 0 0.0094068)
(0.0236306 0 -0.0166526)
(0.0493236 0 0.038859)
(0.0278789 0 0.0255289)
(0.0514187 0 0.0495053)
(0.0307824 0 0.0451272)
(0.0523964 0 0.0481598)
(0.0325341 0 0.0494706)
(0.0526017 0 0.0400338)
(0.0334129 0 0.0445855)
(0.0523176 0 0.0286861)
(0.0336839 0 0.0348174)
(0.0517314 0 0.0164005)
(0.0335486 0 0.0230396)
(0.050925 0 0.00478074)
(0.0331275 0 0.0111465)
(0.0498832 0 -0.00449547)
(0.0324185 0 0.000694328)
(0.0485428 0 -0.00858902)
(0.0311805 0 -0.00639261)
(0.0295696 0 -0.00696775)
(-0.0786431 0 0.0858047)
(-0.0720351 0 0.0813887)
(-0.0839837 0 0.098277)
(-0.076997 0 0.0935097)
(-0.089533 0 0.11146)
(-0.0822453 0 0.10651)
(-0.0952141 0 0.125177)
(-0.0877174 0 0.120029)
(-0.101152 0 0.140872)
(-0.0933943 0 0.134148)
(-0.108014 0 0.163266)
(-0.0996114 0 0.151928)
(-0.116122 0 0.192751)
(-0.107262 0 0.17979)
(-0.122238 0 0.199141)
(-0.116378 0 0.210793)
(-0.118793 0 0.104073)
(-0.120299 0 0.189212)
(-0.101322 0 -0.16384)
(-0.107953 0 0.0135797)
(-0.0714989 0 -0.57438)
(-0.0856189 0 -0.359415)
(-0.0211914 0 -0.97927)
(-0.0236621 0 -0.832259)
(0.0496264 0 -1.15435)
(-0.0197677 0 -1.19139)
(0.0794131 0 -1.22428)
(0.0151181 0 -1.15823)
(-0.0170268 0 -1.29825)
(-0.0172762 0 -1.2459)
(-0.0534157 0 -1.29697)
(-0.0424871 0 -1.28194)
(-0.0022161 0 -1.28741)
(-0.00672181 0 -1.3238)
(0.00823475 0 -1.28707)
(0.00694924 0 -1.2905)
(0.0155333 0 -1.2872)
(0.0032335 0 -1.29856)
(0.018946 0 -1.2741)
(0.00740998 0 -1.28538)
(0.0194199 0 -1.26915)
(0.0192965 0 -1.271)
(0.0240101 0 -1.27983)
(0.0338595 0 -1.27739)
(0.0289514 0 -1.29739)
(0.0523095 0 -1.29783)
(0.017167 0 -1.29617)
(0.0547067 0 -1.30536)
(-0.0156004 0 -1.2767)
(0.0144655 0 -1.26655)
(-0.0562666 0 -1.2853)
(-0.0118633 0 -1.22983)
(-0.0444145 0 -1.33082)
(-0.0196096 0 -1.30589)
(-0.0436958 0 -1.34309)
(-0.0348629 0 -1.33665)
(-0.0337203 0 -1.31404)
(-0.0330443 0 -1.33252)
(-0.0141587 0 -1.2846)
(-0.0229585 0 -1.30776)
(-0.00172816 0 -1.24996)
(-0.00946109 0 -1.27523)
(-0.00645959 0 -1.17286)
(-0.0098069 0 -1.22637)
(-0.0138288 0 -1.01418)
(-0.0237174 0 -1.11072)
(-0.0168588 0 -0.806386)
(-0.0317497 0 -0.909688)
(-0.0156399 0 -0.60436)
(-0.0321362 0 -0.701553)
(-0.0133214 0 -0.424145)
(-0.031254 0 -0.511057)
(-0.00948471 0 -0.269798)
(-0.0290871 0 -0.343853)
(-0.00447482 0 -0.146527)
(-0.0253039 0 -0.20484)
(0.000771758 0 -0.0571328)
(-0.0206256 0 -0.0988401)
(0.00544396 0 0.000549745)
(-0.0159116 0 -0.0261061)
(0.00914187 0 0.0323247)
(-0.0117883 0 0.0176804)
(0.0117863 0 0.045244)
(-0.00854995 0 0.0392396)
(0.0134984 0 0.0458207)
(-0.00620431 0 0.0454721)
(0.014478 0 0.0391772)
(-0.00463275 0 0.0421853)
(0.0149172 0 0.0289404)
(-0.00367804 0 0.0336885)
(0.0149461 0 0.0175748)
(-0.00320641 0 0.0229613)
(0.0146054 0 0.00692421)
(-0.00314028 0 0.0121096)
(0.0138619 0 -0.00118721)
(-0.00350681 0 0.00289912)
(0.0127287 0 -0.00454394)
(-0.00446816 0 -0.00286746)
(-0.00554737 0 -0.00341564)
(-0.07038 0 0.0891026)
(-0.0639641 0 0.0844174)
(-0.0752347 0 0.101754)
(-0.06841 0 0.0967464)
(-0.0803778 0 0.11509)
(-0.0731964 0 0.109939)
(-0.0858113 0 0.129007)
(-0.0783133 0 0.123651)
(-0.0917466 0 0.145194)
(-0.0838178 0 0.138105)
(-0.0988545 0 0.168401)
(-0.0901494 0 0.156667)
(-0.107277 0 0.197705)
(-0.0980747 0 0.185405)
(-0.11355 0 0.200514)
(-0.107315 0 0.214974)
(-0.110154 0 0.0980454)
(-0.11202 0 0.186948)
(-0.0909016 0 -0.18137)
(-0.101353 0 0.000744783)
(-0.0458837 0 -0.604284)
(-0.074472 0 -0.389426)
(-0.0177226 0 -1.01014)
(-0.0113998 0 -0.851033)
(-0.0677793 0 -1.1739)
(-0.0582466 0 -1.15802)
(-0.0488906 0 -1.20185)
(-0.0813756 0 -1.17082)
(-0.0560159 0 -1.26335)
(-0.104303 0 -1.24114)
(-0.0106933 0 -1.30936)
(-0.0721911 0 -1.31216)
(0.00549539 0 -1.31066)
(-0.0568373 0 -1.33459)
(0.00179581 0 -1.2906)
(-0.0338897 0 -1.28803)
(-0.00467431 0 -1.28462)
(-0.0480993 0 -1.29425)
(0.00913259 0 -1.27346)
(-0.0213519 0 -1.29459)
(0.0344095 0 -1.27233)
(0.00634548 0 -1.29162)
(0.0652272 0 -1.28472)
(0.0318087 0 -1.30377)
(0.0791553 0 -1.29531)
(0.0654839 0 -1.31034)
(0.050852 0 -1.27754)
(0.0595956 0 -1.27871)
(0.0138692 0 -1.2436)
(0.0263986 0 -1.23001)
(0.019625 0 -1.26511)
(0.0108492 0 -1.23579)
(-0.00245958 0 -1.31446)
(0.0120008 0 -1.28188)
(-0.0199055 0 -1.33049)
(-0.0101695 0 -1.31676)
(-0.0242174 0 -1.32344)
(-0.0195823 0 -1.32736)
(-0.0186421 0 -1.29764)
(-0.0217582 0 -1.31476)
(-0.015373 0 -1.2507)
(-0.0211027 0 -1.27953)
(-0.0244978 0 -1.15867)
(-0.0288183 0 -1.21378)
(-0.0417183 0 -1.00005)
(-0.0455363 0 -1.08579)
(-0.0466701 0 -0.801368)
(-0.0574204 0 -0.902167)
(-0.0476422 0 -0.60448)
(-0.0614113 0 -0.700004)
(-0.0471071 0 -0.42719)
(-0.0626937 0 -0.511951)
(-0.0451545 0 -0.275758)
(-0.0624786 0 -0.347276)
(-0.0417813 0 -0.154681)
(-0.0605278 0 -0.211043)
(-0.0376156 0 -0.0660759)
(-0.0572284 0 -0.106875)
(-0.033395 0 -0.00790037)
(-0.0533172 0 -0.0346455)
(-0.029652 0 0.0251609)
(-0.0494691 0 0.00973628)
(-0.0266318 0 0.0396769)
(-0.0461073 0 0.0325157)
(-0.0243707 0 0.0418226)
(-0.0433975 0 0.040192)
(-0.0227908 0 0.0365606)
(-0.0413571 0 0.0383154)
(-0.0217845 0 0.0275214)
(-0.0399264 0 0.0311034)
(-0.0212745 0 0.0173032)
(-0.0390377 0 0.021587)
(-0.0212395 0 0.00792097)
(-0.0386523 0 0.0120111)
(-0.0216788 0 0.00111764)
(-0.0387998 0 0.00420226)
(-0.0224675 0 -0.00174032)
(-0.0395401 0 -0.00041382)
(-0.040184 0 -0.00125802)
(-0.0619827 0 0.0920655)
(-0.0557534 0 0.0870934)
(-0.0663484 0 0.104936)
(-0.0596727 0 0.0996567)
(-0.0710787 0 0.118504)
(-0.063982 0 0.113093)
(-0.076245 0 0.13275)
(-0.0687232 0 0.127095)
(-0.0821261 0 0.149572)
(-0.0740167 0 0.142026)
(-0.0893578 0 0.17366)
(-0.0803763 0 0.161488)
(-0.0979437 0 0.202725)
(-0.0885002 0 0.191129)
(-0.104652 0 0.201757)
(-0.0979095 0 0.219446)
(-0.102783 0 0.0906962)
(-0.103956 0 0.185703)
(-0.0862184 0 -0.203348)
(-0.0976472 0 -0.0102983)
(-0.0512383 0 -0.632128)
(-0.075043 0 -0.412747)
(-0.0358927 0 -1.00612)
(-0.0413255 0 -0.861263)
(-0.082464 0 -1.15361)
(-0.0996766 0 -1.12697)
(-0.126888 0 -1.19691)
(-0.140933 0 -1.14121)
(-0.153723 0 -1.28826)
(-0.157483 0 -1.22325)
(-0.0987251 0 -1.34639)
(-0.170728 0 -1.34882)
(-0.104 0 -1.32139)
(-0.1877 0 -1.33107)
(-0.0824406 0 -1.29578)
(-0.157115 0 -1.3024)
(-0.0626865 0 -1.30166)
(-0.139113 0 -1.30742)
(-0.0229674 0 -1.30226)
(-0.0792013 0 -1.32107)
(0.00517138 0 -1.31351)
(-0.0352491 0 -1.31458)
(0.0376002 0 -1.31905)
(-0.00341287 0 -1.33152)
(0.0432963 0 -1.29533)
(0.0275274 0 -1.31545)
(0.0352266 0 -1.24289)
(0.0279955 0 -1.27111)
(0.0190496 0 -1.21379)
(0.0256263 0 -1.21404)
(0.00959726 0 -1.24847)
(0.0247405 0 -1.226)
(0.00316475 0 -1.29432)
(0.0214656 0 -1.27489)
(-0.00943739 0 -1.31678)
(0.00737402 0 -1.30239)
(-0.0188189 0 -1.31869)
(-0.00713701 0 -1.31614)
(-0.0246769 0 -1.29516)
(-0.0194642 0 -1.30741)
(-0.032041 0 -1.23985)
(-0.0309889 0 -1.26984)
(-0.047232 0 -1.13858)
(-0.0468889 0 -1.19281)
(-0.061545 0 -0.983211)
(-0.0648491 0 -1.06506)
(-0.0717376 0 -0.793445)
(-0.078552 0 -0.886686)
(-0.0763924 0 -0.601641)
(-0.0865555 0 -0.692588)
(-0.0782082 0 -0.427397)
(-0.0906332 0 -0.508917)
(-0.0781378 0 -0.278887)
(-0.0925009 0 -0.3474)
(-0.0763095 0 -0.16047)
(-0.0923524 0 -0.214405)
(-0.0732363 0 -0.0735138)
(-0.0904709 0 -0.112803)
(-0.0696254 0 -0.0157905)
(-0.0875199 0 -0.0419521)
(-0.0660767 0 0.0177588)
(-0.0841923 0 0.00220426)
(-0.0629476 0 0.033314)
(-0.0810013 0 0.0255488)
(-0.0604077 0 0.0367197)
(-0.0782384 0 0.0342599)
(-0.0584861 0 0.0327481)
(-0.0760332 0 0.0336077)
(-0.0571564 0 0.0249874)
(-0.0744186 0 0.0276862)
(-0.056393 0 0.0160957)
(-0.0733954 0 0.0195288)
(-0.0561841 0 0.00811867)
(-0.0729612 0 0.0114202)
(-0.0564789 0 0.00255558)
(-0.0731338 0 0.00507654)
(-0.0570861 0 3.27829e-05)
(-0.0738732 0 0.00147519)
(-0.074383 0 0.000367751)
(-0.0534311 0 0.0946856)
(-0.0473907 0 0.0894063)
(-0.0572861 0 0.107813)
(-0.0507595 0 0.102227)
(-0.061576 0 0.121683)
(-0.0545576 0 0.115953)
(-0.0664294 0 0.136369)
(-0.0588767 0 0.130331)
(-0.0721887 0 0.153942)
(-0.0638934 0 0.145865)
(-0.0794724 0 0.178974)
(-0.0701628 0 0.166343)
(-0.0882567 0 0.207941)
(-0.078363 0 0.196985)
(-0.0959422 0 0.203745)
(-0.0879747 0 0.22457)
(-0.0972397 0 0.0855605)
(-0.0952766 0 0.186567)
(-0.088723 0 -0.218192)
(-0.0926785 0 -0.0159761)
(-0.0753976 0 -0.642756)
(-0.0788839 0 -0.42163)
(-0.0887544 0 -0.982918)
(-0.078388 0 -0.852359)
(-0.164838 0 -1.12215)
(-0.140075 0 -1.07625)
(-0.171525 0 -1.18393)
(-0.188572 0 -1.13675)
(-0.180414 0 -1.27797)
(-0.197826 0 -1.21733)
(-0.242337 0 -1.32734)
(-0.262592 0 -1.30754)
(-0.255541 0 -1.31871)
(-0.305433 0 -1.32227)
(-0.214142 0 -1.31475)
(-0.284288 0 -1.33)
(-0.152846 0 -1.32807)
(-0.228752 0 -1.34828)
(-0.0927437 0 -1.33703)
(-0.155074 0 -1.36114)
(-0.0385423 0 -1.34046)
(-0.0898321 0 -1.3588)
(-0.0105176 0 -1.33614)
(-0.0405095 0 -1.3555)
(0.0056828 0 -1.29409)
(-0.0095985 0 -1.32999)
(0.0194371 0 -1.23586)
(0.011052 0 -1.28406)
(0.0354537 0 -1.2163)
(0.0320272 0 -1.22986)
(0.0367587 0 -1.24495)
(0.0484518 0 -1.22735)
(0.0238746 0 -1.28089)
(0.0482379 0 -1.26089)
(0.00867596 0 -1.30095)
(0.0316573 0 -1.28506)
(-0.00906682 0 -1.30298)
(0.0102677 0 -1.29492)
(-0.0263313 0 -1.27921)
(-0.0123466 0 -1.28575)
(-0.0435467 0 -1.21912)
(-0.035635 0 -1.24718)
(-0.0640445 0 -1.11508)
(-0.0601182 0 -1.16451)
(-0.0800107 0 -0.963122)
(-0.0824494 0 -1.04195)
(-0.0933026 0 -0.779777)
(-0.0980936 0 -0.866498)
(-0.100908 0 -0.594369)
(-0.107863 0 -0.680472)
(-0.105088 0 -0.424228)
(-0.114169 0 -0.501931)
(-0.107002 0 -0.279121)
(-0.118102 0 -0.344044)
(-0.106829 0 -0.163851)
(-0.119812 0 -0.214724)
(-0.105037 0 -0.0792036)
(-0.119505 0 -0.116259)
(-0.102301 0 -0.0226581)
(-0.117758 0 -0.0474872)
(-0.0992515 0 0.0107344)
(-0.115255 0 -0.0042676)
(-0.0963588 0 0.0268551)
(-0.112567 0 0.019109)
(-0.093884 0 0.0312534)
(-0.110083 0 0.0284806)
(-0.0919564 0 0.0285078)
(-0.108023 0 0.028886)
(-0.0906326 0 0.0221325)
(-0.106503 0 0.0242847)
(-0.089941 0 0.0147716)
(-0.105581 0 0.0176646)
(-0.0898773 0 0.0083699)
(-0.105273 0 0.0112399)
(-0.0903419 0 0.00409132)
(-0.10557 0 0.00645451)
(-0.0910534 0 0.00188223)
(-0.106323 0 0.00368867)
(-0.106563 0 0.00178696)
(-0.0447079 0 0.0969453)
(-0.038867 0 0.0913383)
(-0.0480144 0 0.110362)
(-0.041649 0 0.104431)
(-0.0518154 0 0.124593)
(-0.0448848 0 0.118486)
(-0.0562841 0 0.139816)
(-0.0487093 0 0.13331)
(-0.0618153 0 0.158251)
(-0.0533475 0 0.149553)
(-0.069014 0 0.184331)
(-0.0593612 0 0.171143)
(-0.0778468 0 0.213537)
(-0.0673943 0 0.202874)
(-0.0861584 0 0.207148)
(-0.0769865 0 0.230111)
(-0.0894634 0 0.0840815)
(-0.0850765 0 0.188771)
(-0.0839321 0 -0.220935)
(-0.0840613 0 -0.0196636)
(-0.0908494 0 -0.634571)
(-0.0803147 0 -0.417019)
(-0.112197 0 -0.949632)
(-0.0986253 0 -0.838127)
(-0.185429 0 -1.09083)
(-0.15312 0 -1.02742)
(-0.216941 0 -1.16704)
(-0.211565 0 -1.11574)
(-0.260215 0 -1.2458)
(-0.253402 0 -1.18848)
(-0.324838 0 -1.30093)
(-0.327084 0 -1.26446)
(-0.340118 0 -1.32914)
(-0.361586 0 -1.31208)
(-0.301724 0 -1.35598)
(-0.341194 0 -1.3556)
(-0.233074 0 -1.37845)
(-0.281778 0 -1.39405)
(-0.15152 0 -1.38606)
(-0.200603 0 -1.4155)
(-0.0846867 0 -1.37867)
(-0.122301 0 -1.41332)
(-0.0375114 0 -1.35653)
(-0.0616569 0 -1.39588)
(-0.00469639 0 -1.31558)
(-0.0179247 0 -1.35945)