/*--------------------------------*- C++ -*----------------------------------*\
  =========                 |
  \\      /  F ield         | OpenFOAM: The Open Source CFD Toolbox
   \\    /   O peration     | Website:  https://openfoam.org
    \\  /    A nd           | Version:  9
     \\/     M anipulation  |
\*---------------------------------------------------------------------------*/
FoamFile
{
    format      ascii;
    class       volScalarField;
    location    "0.13";
    object      p;
}
// * * * * * * * * * * * * * * * * * * * * * * * * * * * * * * * * * * * * * //

dimensions      [1 -1 -2 0 0 0 0];

internalField   nonuniform List<scalar> 
5000
(
2.12793
2.35417
1.81377
2.25984
2.17787
2.26369
2.29
2.30113
2.29731
2.27775
2.2406
2.18154
2.08965
1.95147
1.90989
1.55118
1.36792
1.80078
1.93039
2.08453
2.16153
2.20912
2.24652
2.30475
2.40544
2.35747
2.37177
2.34248
2.35451
2.37068
2.3873
2.4029
2.41702
2.42948
2.44013
2.44877
2.45521
2.45946
2.4618
2.46278
2.46301
2.46293
2.46282
2.46278
2.46282
2.46294
2.46312
2.46334
2.46361
2.46395
2.15986
2.39332
1.93844
2.26417
2.19126
2.28598
2.29664
2.30332
2.2969
2.27718
2.24284
2.1912
2.11836
2.01769
1.95377
1.73682
1.57758
1.8312
1.98128
2.11873
2.18746
2.23654
2.27844
2.33283
2.39838
2.32458
2.35584
2.35515
2.37773
2.39024
2.40215
2.41357
2.42413
2.43351
2.4415
2.44793
2.45272
2.45597
2.4579
2.45889
2.45931
2.45948
2.45959
2.45973
2.45994
2.46023
2.46058
2.46098
2.46143
2.46193
2.18725
2.38948
2.06092
2.329
2.21575
2.30661
2.30617
2.31234
2.30599
2.28881
2.26011
2.21819
2.16435
2.09237
2.00942
1.87766
1.80681
1.98245
2.04743
2.15586
2.21225
2.25612
2.2909
2.32541
2.37484
2.33989
2.3686
2.36242
2.38151
2.39346
2.4046
2.41462
2.42352
2.4313
2.4379
2.4433
2.4475
2.45061
2.4528
2.4543
2.45534
2.4561
2.4567
2.45723
2.45772
2.45821
2.45868
2.45917
2.45965
2.46007
2.22392
2.40444
2.17122
2.37146
2.25295
2.33115
2.32069
2.32696
2.32065
2.30635
2.28373
2.25146
2.21225
2.16694
2.1035
2.01999
2.00189
2.11155
2.12574
2.20168
2.24228
2.27728
2.30491
2.32681
2.366
2.35372
2.37472
2.36949
2.38591
2.39621
2.40634
2.41541
2.42328
2.43006
2.4358
2.44052
2.44428
2.44719
2.44938
2.45104
2.45231
2.45331
2.45415
2.45486
2.45551
2.4561
2.45665
2.45718
2.4577
2.45812
2.26539
2.42783
2.25948
2.39856
2.29312
2.35656
2.33869
2.34498
2.33831
2.32685
2.30994
2.28678
2.25944
2.234
2.20375
2.15195
2.15498
2.209
2.20025
2.24969
2.27588
2.30179
2.32406
2.33824
2.36706
2.36092
2.37828
2.37749
2.39282
2.40123
2.40981
2.4175
2.42415
2.42988
2.43474
2.43875
2.44201
2.44461
2.44667
2.44832
2.44965
2.45076
2.4517
2.45252
2.45325
2.45392
2.45453
2.45511
2.45567
2.45613
2.30683
2.44852
2.3243
2.42047
2.33082
2.38074
2.3586
2.36488
2.35785
2.34912
2.33718
2.32198
2.30476
2.29269
2.28949
2.26078
2.2716
2.28896
2.26604
2.29538
2.30998
2.32751
2.34468
2.35305
2.37373
2.36923
2.38384
2.38574
2.39991
2.40683
2.41406
2.42037
2.42577
2.43046
2.43445
2.4378
2.44056
2.44283
2.44469
2.44622
2.44751
2.44861
2.44956
2.45041
2.45117
2.45186
2.45249
2.45309
2.45366
2.45414
2.34349
2.46539
2.3715
2.43982
2.36453
2.40356
2.37953
2.38579
2.3786
2.37245
2.36457
2.35594
2.34705
2.34493
2.3589
2.34616
2.36083
2.356
2.32373
2.33747
2.34286
2.35289
2.36498
2.36898
2.38414
2.38091
2.39204
2.39435
2.40669
2.41232
2.41844
2.42358
2.42793
2.43173
2.43497
2.43771
2.44001
2.44192
2.44352
2.44486
2.446
2.447
2.44787
2.44865
2.44936
2.45001
2.45061
2.45117
2.45171
2.45217
2.37581
2.48022
2.40803
2.45824
2.39467
2.42528
2.4008
2.40708
2.39994
2.39618
2.39152
2.38829
2.38586
2.39152
2.41571
2.41356
2.43016
2.41235
2.37367
2.37547
2.37371
2.3774
2.38491
2.38561
2.39646
2.39437
2.40229
2.40389
2.41382
2.41799
2.42296
2.42699
2.43041
2.43341
2.43597
2.43816
2.44
2.44154
2.44285
2.44395
2.44491
2.44575
2.44649
2.44716
2.44777
2.44833
2.44885
2.44934
2.4498
2.45022
2.40441
2.49469
2.43838
2.47613
2.42189
2.44602
2.42188
2.42816
2.42122
2.41966
2.41749
2.41864
2.42104
2.43236
2.4631
2.46767
2.48406
2.45904
2.41594
2.40921
2.4021
2.40073
2.40438
2.40252
2.40957
2.40831
2.41366
2.41417
2.42147
2.42407
2.42775
2.43062
2.43311
2.43533
2.43724
2.43887
2.44026
2.44144
2.44244
2.4433
2.44405
2.44471
2.44529
2.44583
2.44631
2.44676
2.44717
2.44756
2.44793
2.44827
2.43222
2.50747
2.4646
2.49342
2.44666
2.46569
2.44234
2.44864
2.44195
2.44233
2.44202
2.44657
2.45257
2.46763
2.50346
2.51152
2.5253
2.49665
2.45114
2.43871
2.42771
2.42249
2.42297
2.41913
2.4229
2.42214
2.42538
2.42461
2.42931
2.43036
2.4327
2.43442
2.43599
2.43743
2.43868
2.43977
2.44071
2.44152
2.44221
2.44282
2.44334
2.44381
2.44423
2.44461
2.44495
2.44527
2.44556
2.44582
2.44608
2.44633
2.45849
2.5203
2.48808
2.51014
2.46939
2.4842
2.46197
2.46822
2.46184
2.46385
2.46488
2.4719
2.48061
2.49784
2.53844
2.54724
2.5562
2.52605
2.48027
2.46413
2.45041
2.44236
2.44025
2.4349
2.43601
2.4354
2.43685
2.43471
2.43697
2.43658
2.43761
2.43824
2.43893
2.43961
2.44023
2.44079
2.44129
2.44174
2.44212
2.44247
2.44277
2.44303
2.44327
2.44348
2.44366
2.44383
2.44399
2.44412
2.44424
2.44439
2.48323
2.53327
2.50931
2.52609
2.49027
2.5015
2.48055
2.48684
2.48072
2.48403
2.48599
2.49465
2.50541
2.52353
2.56856
2.57613
2.57899
2.54861
2.50431
2.48581
2.47027
2.46019
2.456
2.44948
2.44845
2.44764
2.44756
2.44415
2.44422
2.44252
2.44233
2.44194
2.4418
2.44177
2.44179
2.44185
2.44194
2.44202
2.44211
2.44219
2.44227
2.44233
2.44237
2.4424
2.44243
2.44244
2.44245
2.44243
2.44242
2.44246
2.50608
2.54614
2.52824
2.54096
2.50933
2.51749
2.49871
2.50374
2.49847
2.50273
2.50535
2.5149
2.52719
2.54514
2.59357
2.59885
2.59577
2.5659
2.5241
2.50418
2.48752
2.476
2.47012
2.46263
2.45988
2.45861
2.45726
2.45272
2.45092
2.44807
2.44676
2.44545
2.44454
2.44384
2.4433
2.44289
2.44258
2.44233
2.44213
2.44195
2.4418
2.44165
2.44151
2.44136
2.44121
2.44107
2.44092
2.44076
2.4406
2.44054
2.52716
2.55784
2.54468
2.55443
2.52653
2.53203
2.51549
2.51974
2.51512
2.51992
2.52299
2.53283
2.54614
2.56307
2.61299
2.6158
2.60846
2.5795
2.54041
2.51971
2.50241
2.48989
2.48263
2.47429
2.47012
2.46829
2.46587
2.46038
2.45703
2.45317
2.45084
2.44871
2.44709
2.44578
2.44472
2.44387
2.44318
2.44261
2.44213
2.44171
2.44134
2.44099
2.44065
2.44033
2.44001
2.43971
2.4394
2.43909
2.43878
2.43861
2.54469
2.56923
2.55868
2.5665
2.542
2.5451
2.53086
2.53483
2.53058
2.53563
2.53898
2.54862
2.56244
2.57775
2.62669
2.62747
2.61852
2.59067
2.55393
2.53284
2.51521
2.502
2.4936
2.48449
2.47918
2.47676
2.47344
2.46715
2.46252
2.45778
2.45456
2.45168
2.44942
2.44755
2.44601
2.44475
2.44371
2.44284
2.4421
2.44145
2.44086
2.44032
2.4398
2.4393
2.43881
2.43834
2.43789
2.43742
2.43696
2.43668
2.55914
2.57983
2.57043
2.57723
2.55607
2.55697
2.54505
2.54862
2.54483
2.54996
2.55342
2.5625
2.57632
2.58966
2.63519
2.63458
2.62691
2.60029
2.56519
2.544
2.52619
2.51252
2.50318
2.49339
2.48715
2.48417
2.48009
2.47312
2.46743
2.46193
2.45791
2.45438
2.45153
2.44914
2.44716
2.44553
2.44416
2.44301
2.44202
2.44115
2.44036
2.43963
2.43893
2.43825
2.4376
2.43698
2.43637
2.43575
2.43514
2.43476
2.57156
2.58903
2.58036
2.58655
2.56848
2.56838
2.55804
2.56118
2.55795
2.56298
2.56642
2.57474
2.58806
2.59931
2.63951
2.638
2.63437
2.60879
2.57462
2.55351
2.5356
2.52165
2.51152
2.50117
2.49416
2.49066
2.48596
2.4784
2.47182
2.46564
2.46092
2.4568
2.45342
2.45057
2.44819
2.4462
2.44454
2.44313
2.4419
2.44082
2.43984
2.43891
2.43804
2.4372
2.43639
2.4356
2.43484
2.43407
2.43332
2.43283
2.58239
2.59644
2.58948
2.59471
2.57976
2.57901
2.56979
2.57275
2.57003
2.57484
2.57814
2.58557
2.59796
2.6072
2.64104
2.6399
2.64004
2.61622
2.5825
2.56165
2.54368
2.52958
2.51881
2.508
2.50036
2.49638
2.49115
2.48309
2.47576
2.46898
2.46364
2.45898
2.45513
2.45185
2.4491
2.44679
2.44485
2.44319
2.44174
2.44046
2.43928
2.43818
2.43714
2.43613
2.43516
2.43422
2.43331
2.43239
2.43149
2.43089
2.59203
2.60321
2.59763
2.60198
2.58954
2.58897
2.5807
2.58351
2.58118
2.58567
2.58874
2.59524
2.60639
2.61378
2.64103
2.64036
2.64473
2.62263
2.58907
2.56864
2.55062
2.53648
2.52519
2.51403
2.50585
2.50145
2.49577
2.4873
2.47932
2.472
2.46611
2.46098
2.45668
2.45302
2.44993
2.44732
2.44511
2.44321
2.44155
2.44007
2.43871
2.43743
2.43622
2.43505
2.43392
2.43283
2.43177
2.43071
2.42966
2.42895
2.60073
2.61
2.60477
2.60839
2.59849
2.59796
2.59078
2.59349
2.59149
2.59564
2.5984
2.60397
2.6137
2.6195
2.64072
2.6399
2.64861
2.62785
2.59454
2.57465
2.55661
2.54253
2.53081
2.51941
2.51073
2.50596
2.49992
2.49109
2.48258
2.47479
2.4684
2.46283
2.45814
2.45411
2.4507
2.4478
2.44533
2.44321
2.44134
2.43967
2.43812
2.43667
2.43529
2.43396
2.43267
2.43143
2.43023
2.42902
2.42783
2.427
2.60855
2.61654
2.61123
2.61441
2.60643
2.60613
2.6001
2.60277
2.60107
2.60489
2.60729
2.61198
2.62025
2.62473
2.64114
2.64116
2.64973
2.63162
2.59902
2.57985
2.56182
2.54786
2.5358
2.52428
2.51503
2.51002
2.50367
2.49457
2.48561
2.4774
2.47055
2.46459
2.45952
2.45516
2.45144
2.44826
2.44555
2.4432
2.44113
2.43925
2.43753
2.4359
2.43435
2.43286
2.43141
2.43002
2.42867
2.42732
2.42599
2.42504
2.61547
2.62253
2.61714
2.62011
2.61358
2.61375
2.60879
2.61147
2.61006
2.61355
2.61559
2.61946
2.62633
2.62975
2.64255
2.6425
2.65023
2.63423
2.60277
2.58436
2.5664
2.55263
2.54025
2.52848
2.51902
2.51382
2.50715
2.49782
2.48847
2.47987
2.47262
2.46629
2.46087
2.45618
2.45216
2.44872
2.44576
2.44319
2.4409
2.43884
2.43692
2.43512
2.4334
2.43174
2.43014
2.42859
2.4271
2.42561
2.42414
2.42307
2.62149
2.62777
2.6225
2.62532
2.62021
2.62094
2.61696
2.6197
2.61858
2.62176
2.62345
2.62659
2.63219
2.63474
2.64522
2.64428
2.65019
2.63577
2.60613
2.5883
2.57053
2.55698
2.54436
2.53251
2.52302
2.51673
2.51047
2.50085
2.49118
2.48225
2.47463
2.46796
2.4622
2.4572
2.4529
2.44919
2.44598
2.44318
2.44069
2.43842
2.43632
2.43433
2.43244
2.43062
2.42886
2.42716
2.42552
2.42388
2.42228
2.42108
2.62662
2.63216
2.62731
2.6301
2.62629
2.62773
2.62471
2.62759
2.62674
2.62966
2.63103
2.63351
2.63802
2.63983
2.64904
2.6468
2.64975
2.63653
2.60919
2.59185
2.57441
2.56107
2.54823
2.53629
2.5267
2.52023
2.51311
2.50358
2.49374
2.48456
2.47662
2.46962
2.46354
2.45824
2.45365
2.44967
2.44622
2.44319
2.44048
2.43801
2.43571
2.43355
2.43148
2.42949
2.42757
2.42571
2.42392
2.42214
2.4204
2.41907
2.63087
2.63561
2.63156
2.63447
2.63181
2.63419
2.63214
2.63521
2.63466
2.63735
2.63846
2.64036
2.64395
2.64507
2.6536
2.64987
2.64945
2.63656
2.6125
2.59525
2.57824
2.56497
2.55196
2.53992
2.53016
2.52341
2.51594
2.50628
2.49626
2.48685
2.4786
2.47129
2.4649
2.4593
2.45442
2.45018
2.44647
2.4432
2.44027
2.4376
2.43511
2.43276
2.43051
2.42835
2.42626
2.42425
2.42231
2.42038
2.41851
2.41703
2.63432
2.63818
2.63532
2.63847
2.63685
2.64041
2.63934
2.64269
2.64243
2.64495
2.64584
2.64724
2.65008
2.65048
2.65843
2.65323
2.64985
2.63722
2.61551
2.59871
2.58205
2.5688
2.55565
2.5435
2.53356
2.52648
2.51878
2.50901
2.4988
2.48916
2.4806
2.47298
2.46628
2.46038
2.45522
2.45071
2.44675
2.44324
2.44009
2.4372
2.43451
2.43197
2.42954
2.4272
2.42495
2.42278
2.42068
2.41861
2.41659
2.41497
2.63706
2.63999
2.63871
2.64221
2.64154
2.6465
2.64643
2.65012
2.65017
2.65256
2.65328
2.65424
2.65644
2.65607
2.66315
2.65673
2.65124
2.63881
2.61885
2.60234
2.58594
2.57267
2.55939
2.5471
2.53699
2.52959
2.52165
2.51177
2.50139
2.4915
2.48265
2.47472
2.4677
2.4615
2.45605
2.45127
2.44705
2.4433
2.43992
2.43681
2.43392
2.43118
2.42857
2.42605
2.42363
2.42129
2.41903
2.41681
2.41464
2.41287
2.63866
2.64135
2.64197
2.64588
2.64609
2.65256
2.65353
2.65761
2.65796
2.66027
2.66085
2.66143
2.66305
2.66182
2.66749
2.66027
2.65385
2.64151
2.6228
2.60629
2.59004
2.5767
2.56324
2.55081
2.54051
2.53279
2.52461
2.51462
2.50405
2.49391
2.48475
2.47651
2.46918
2.46268
2.45693
2.45187
2.44739
2.44339
2.43977
2.43644
2.43334
2.4304
2.42759
2.4249
2.42229
2.41978
2.41736
2.41498
2.41266
2.41074
2.64228
2.64297
2.64545
2.64977
2.65079
2.65877
2.66076
2.66524
2.6659
2.66816
2.66863
2.66887
2.66994
2.66776
2.6714
2.66386
2.65782
2.64553
2.62739
2.61066
2.59445
2.58095
2.56728
2.55467
2.54417
2.53613
2.52772
2.51758
2.50681
2.4964
2.48693
2.47837
2.47072
2.46391
2.45787
2.45253
2.44778
2.44352
2.43966
2.4361
2.43278
2.42963
2.42663
2.42374
2.42095
2.41827
2.41568
2.41314
2.41066
2.40858
2.64559
2.64501
2.64946
2.65424
2.656
2.66528
2.66826
2.67313
2.67407
2.6763
2.67668
2.67661
2.6771
2.67395
2.67505
2.66759
2.66306
2.65087
2.63263
2.61555
2.59922
2.58549
2.57157
2.55874
2.54799
2.53963
2.53098
2.52069
2.50969
2.499
2.48921
2.48032
2.47235
2.46523
2.45889
2.45325
2.44822
2.44371
2.43959
2.4358
2.43225
2.42888
2.42567
2.42258
2.41961
2.41674
2.41398
2.41127
2.40864
2.40639
2.64946
2.64795
2.65434
2.65971
2.66195
2.67226
2.67615
2.68135
2.68255
2.68476
2.68505
2.6847
2.68459
2.68048
2.67877
2.67165
2.66934
2.65738
2.63851
2.62097
2.60438
2.59035
2.57613
2.56304
2.55202
2.54332
2.53442
2.52394
2.51271
2.50174
2.49161
2.48239
2.4741
2.46665
2.46
2.45406
2.44875
2.44396
2.43958
2.43554
2.43175
2.42816
2.42473
2.42144
2.41827
2.41521
2.41226
2.40938
2.40659
2.40416
2.65437
2.6521
2.66042
2.66596
2.66934
2.67985
2.68453
2.68997
2.69141
2.69359
2.69378
2.69317
2.69245
2.68749
2.68299
2.6763
2.67636
2.66477
2.64499
2.62694
2.60996
2.59556
2.58099
2.56759
2.55626
2.5472
2.53802
2.52735
2.51588
2.50462
2.49416
2.48461
2.47597
2.4682
2.46122
2.45498
2.44936
2.44428
2.43963
2.43533
2.43129
2.42746
2.42381
2.4203
2.41692
2.41367
2.41053
2.40747
2.4045
2.4019
2.66037
2.65729
2.66834
2.67363
2.67766
2.68804
2.69347
2.69905
2.70069
2.70284
2.70294
2.70209
2.70074
2.69512
2.68815
2.6818
2.68386
2.67276
2.65197
2.63343
2.61595
2.60114
2.58617
2.57241
2.56073
2.55129
2.5418
2.53091
2.51921
2.50766
2.49688
2.48698
2.478
2.46988
2.46257
2.456
2.45007
2.44469
2.43976
2.43518
2.43088
2.4268
2.42291
2.41918
2.41559
2.41212
2.40879
2.40554
2.40241
2.39961
2.66756
2.66572
2.67593
2.68237
2.68695
2.69704
2.70288
2.70869
2.71046
2.71255
2.71255
2.71148
2.70954
2.70347
2.69463
2.68842
2.69166
2.68106
2.65939
2.64041
2.62236
2.60711
2.59168
2.57751
2.56544
2.55558
2.54575
2.53461
2.52268
2.51086
2.49976
2.48952
2.48019
2.47171
2.46406
2.45715
2.45089
2.44519
2.43996
2.43509
2.43051
2.42618
2.42204
2.41807
2.41426
2.41059
2.40705
2.40361
2.40029
2.39729
2.67554
2.67498
2.68527
2.6922
2.6973
2.70683
2.71309
2.71861
2.72069
2.72274
2.72267
2.72141
2.71894
2.71265
2.70267
2.69633
2.69971
2.68945
2.6672
2.64785
2.62921
2.61348
2.59753
2.5829
2.57042
2.56011
2.54987
2.53846
2.5263
2.51423
2.50282
2.49223
2.48253
2.47369
2.46567
2.45841
2.45181
2.44578
2.44022
2.43505
2.4302
2.42559
2.42119
2.41698
2.41293
2.40903
2.40528
2.40163
2.39813
2.39493
2.68413
2.68531
2.69574
2.70291
2.70838
2.71736
2.72371
2.72915
2.73144
2.73344
2.73331
2.73191
2.729
2.7227
2.71233
2.70561
2.70806
2.69786
2.67542
2.65573
2.63651
2.62027
2.60375
2.58861
2.57568
2.5649
2.55422
2.5425
2.5301
2.51778
2.50606
2.49512
2.48504
2.47582
2.46741
2.45977
2.45282
2.44644
2.44056
2.43507
2.42992
2.42503
2.42036
2.41589
2.4116
2.40747
2.4035
2.39965
2.39596
2.39254
2.69306
2.69653
2.70695
2.71421
2.71999
2.72836
2.73481
2.7402
2.7427
2.74467
2.74453
2.74302
2.73981
2.73363
2.72353
2.71626
2.71682
2.70634
2.68409
2.6641
2.64431
2.62752
2.61039
2.59467
2.58127
2.57
2.55883
2.54677
2.53412
2.52153
2.50948
2.49817
2.48769
2.47807
2.46927
2.46124
2.45391
2.44718
2.44095
2.43514
2.42968
2.42449
2.41955
2.41482
2.41028
2.40592
2.40172
2.39766
2.39376
2.39013
2.70207
2.70826
2.71862
2.72582
2.73189
2.73976
2.74636
2.75174
2.75443
2.75643
2.75633
2.75479
2.75141
2.74543
2.73605
2.72814
2.72615
2.71507
2.69332
2.673
2.65267
2.6353
2.61749
2.60113
2.58723
2.57546
2.56379
2.55135
2.53841
2.52552
2.51311
2.50139
2.49049
2.48044
2.47123
2.46279
2.45507
2.44797
2.44139
2.43524
2.42946
2.42398
2.41875
2.41375
2.40895
2.40434
2.3999
2.39562
2.3915
2.38764
2.71099
2.72017
2.7305
2.73745
2.74388
2.75147
2.75828
2.76375
2.76666
2.76876
2.76876
2.76723
2.76381
2.75806
2.74962
2.74107
2.73626
2.72434
2.70326
2.68254
2.66168
2.64367
2.62512
2.60806
2.59362
2.58136
2.56919
2.55634
2.54306
2.5298
2.51697
2.5048
2.49344
2.48293
2.47327
2.46442
2.4563
2.44881
2.44187
2.43538
2.42926
2.42347
2.41794
2.41266
2.40759
2.40273
2.39805
2.39354
2.3892
2.38511
2.71972
2.73197
2.74229
2.74901
2.75583
2.76342
2.77053
2.77619
2.77941
2.78166
2.78182
2.78037
2.77704
2.77147
2.76396
2.75483
2.74732
2.73448
2.71409
2.69286
2.67145
2.65274
2.6334
2.61555
2.60051
2.58778
2.57514
2.56187
2.54817
2.53445
2.52111
2.50842
2.49654
2.48553
2.47541
2.46611
2.45757
2.44969
2.44237
2.43553
2.42908
2.42296
2.41714
2.41157
2.40623
2.4011
2.39617
2.39142
2.38686
2.38253
2.72821
2.74349
2.75388
2.76038
2.76768
2.77555
2.7831
2.78905
2.79266
2.79513
2.79552
2.79422
2.79107
2.78561
2.77884
2.76926
2.75954
2.74586
2.72601
2.7041
2.6821
2.66263
2.64242
2.62369
2.608
2.5948
2.58174
2.56802
2.55382
2.53953
2.52557
2.51227
2.4998
2.48826
2.47763
2.46787
2.4589
2.45061
2.44291
2.4357
2.4289
2.42246
2.41632
2.41045
2.40482
2.39942
2.39423
2.38922
2.38442
2.37986
2.73653
2.75463
2.76518
2.77155
2.77944
2.78785
2.79596
2.80233
2.80641
2.80918
2.80988
2.80878
2.80588
2.80043
2.79411
2.78425
2.77306
2.75877
2.73919
2.71644
2.69376
2.67344
2.65232
2.63263
2.61619
2.60253
2.58907
2.5749
2.56011
2.54512
2.53042
2.5164
2.50327
2.49113
2.47996
2.46971
2.46028
2.45157
2.44347
2.43589
2.42874
2.42196
2.41549
2.40931
2.40339
2.3977
2.39224
2.38696
2.38192
2.37712
2.74474
2.76538
2.77615
2.78251
2.79114
2.80032
2.80913
2.81603
2.82066
2.82379
2.82488
2.82405
2.82144
2.81594
2.8097
2.79979
2.78801
2.77345
2.75377
2.73001
2.70654
2.68532
2.66323
2.64249
2.62521
2.61103
2.59721
2.58256
2.56709
2.55128
2.53571
2.52086
2.50698
2.49418
2.48242
2.47164
2.46174
2.45258
2.44407
2.4361
2.42859
2.42146
2.41466
2.40817
2.40194
2.39596
2.39022
2.38467
2.37939
2.37433
2.75296
2.77578
2.78684
2.79332
2.80282
2.81298
2.8226
2.83015
2.83541
2.83898
2.84052
2.84002
2.83772
2.83213
2.82568
2.81595
2.80443
2.79
2.76986
2.74492
2.72056
2.69837
2.67528
2.65344
2.63519
2.6204
2.60618
2.59103
2.57482
2.55806
2.54149
2.5257
2.51099
2.49745
2.48505
2.4737
2.46328
2.45366
2.44472
2.43635
2.42845
2.42096
2.41382
2.40699
2.40045
2.39417
2.38814
2.38231
2.37676
2.37145
2.7613
2.78588
2.79733
2.804
2.81456
2.82585
2.8364
2.84469
2.85064
2.85474
2.85678
2.85666
2.8547
2.84907
2.84219
2.83282
2.82232
2.80842
2.78748
2.76125
2.73588
2.71268
2.68858
2.66558
2.64625
2.63071
2.61603
2.60033
2.5833
2.5655
2.54783
2.53099
2.51534
2.50098
2.48788
2.47592
2.46495
2.45483
2.44543
2.43663
2.42833
2.42045
2.41295
2.40577
2.3989
2.3923
2.38596
2.37984
2.374
2.36842
2.76986
2.79576
2.8072
2.81512
2.82644
2.83896
2.85052
2.85965
2.86637
2.87104
2.87364
2.87397
2.87239
2.86682
2.85946
2.85054
2.84158
2.82857
2.8066
2.77905
2.75256
2.72833
2.70321
2.67905
2.6585
2.64203
2.62677
2.61046
2.59256
2.57365
2.55478
2.53678
2.5201
2.50485
2.49097
2.47833
2.46676
2.45611
2.44622
2.43696
2.42823
2.41995
2.41206
2.40452
2.39728
2.39034
2.38367
2.37724
2.37109
2.36524
2.77866
2.80563
2.81724
2.82603
2.8384
2.85232
2.86498
2.87504
2.88257
2.88789
2.89109
2.89194
2.89079
2.8855
2.87772
2.86929
2.86212
2.85024
2.82717
2.79831
2.77063
2.74535
2.71923
2.69389
2.67203
2.65444
2.63842
2.62143
2.60261
2.58255
2.5624
2.54316
2.52535
2.50911
2.49438
2.48099
2.46878
2.45754
2.44711
2.43736
2.42817
2.41946
2.41116
2.40322
2.3956
2.3883
2.38128
2.3745
2.36802
2.36188
2.78776
2.81541
2.82732
2.8369
2.8505
2.86593
2.87977
2.89085
2.89925
2.90525
2.90912
2.91057
2.90995
2.90518
2.89725
2.88925
2.88384
2.87319
2.8491
2.81901
2.7901
2.76379
2.73667
2.71017
2.68691
2.668
2.65103
2.63325
2.61349
2.59224
2.57076
2.55019
2.53115
2.51383
2.49817
2.48397
2.47103
2.45915
2.44814
2.43785
2.42816
2.41898
2.41023
2.40186
2.39384
2.38614
2.37874
2.3716
2.36477
2.35832
2.79715
2.82525
2.8374
2.84785
2.86282
2.87979
2.89489
2.90707
2.91638
2.92311
2.9277
2.92987
2.92993
2.92598
2.91828
2.91061
2.90668
2.89717
2.87227
2.8411
2.81098
2.78364
2.75554
2.72789
2.70317
2.68277
2.66465
2.64596
2.62522
2.60278
2.57993
2.55796
2.53761
2.51911
2.50241
2.48731
2.47358
2.46099
2.44934
2.43846
2.42823
2.41853
2.4093
2.40047
2.392
2.38387
2.37607
2.36853
2.36133
2.35452
2.80673
2.83517
2.84739
2.8589
2.87534
2.89389
2.91033
2.92369
2.93394
2.94146
2.94685
2.94988
2.95081
2.94801
2.94099
2.9336
2.93065
2.92203
2.89659
2.86456
2.8333
2.80495
2.77587
2.74706
2.72085
2.69881
2.67934
2.65961
2.63787
2.61423
2.58999
2.56657
2.54481
2.52504
2.5072
2.4911
2.47649
2.46311
2.45075
2.43922
2.42839
2.41812
2.40835
2.399
2.39004
2.38142
2.37313
2.36512
2.35751
2.35035
2.81632
2.84495
2.8574
2.87007
2.88806
2.90823
2.92607
2.94068
2.95194
2.96029
2.96657
2.97064
2.97266
2.97135
2.96555
2.95843
2.95586
2.94768
2.92202
2.88937
2.85708
2.82775
2.79767
2.76772
2.73997
2.71618
2.69519
2.67429
2.6515
2.62667
2.60104
2.57611
2.55287
2.53171
2.51263
2.49543
2.47983
2.46558
2.45243
2.44019
2.42869
2.41781
2.40745
2.39755
2.38806
2.37894
2.37017
2.36168
2.35366
2.34611
2.82577
2.85452
2.86743
2.88135
2.90099
2.92278
2.94209
2.95804
2.97035
2.9796
2.9869
2.9922
2.9956
2.99613
2.99203
2.98528
2.98245
2.97419
2.94856
2.91554
2.88238
2.85209
2.82102
2.78989
2.76057
2.73495
2.71228
2.69009
2.6662
2.64019
2.61317
2.5867
2.56189
2.53925
2.5188
2.50038
2.48369
2.46846
2.45444
2.4414
2.42916
2.4176
2.40661
2.39611
2.38606
2.3764
2.36711
2.35811
2.34958
2.34158
2.83495
2.8638
2.87742
2.89273
2.91411
2.93754
2.95836
2.97574
2.98917
2.9994
3.00788
3.01467
3.01975
3.02243
3.02051
3.01429
3.01064
3.00173
2.97632
2.94316
2.90929
2.87807
2.84598
2.81363
2.78272
2.75518
2.73073
2.7071
2.68205
2.65487
2.62648
2.59844
2.572
2.54775
2.52583
2.50605
2.48815
2.47184
2.45682
2.44288
2.42981
2.41748
2.40577
2.39459
2.38389
2.37361
2.36373
2.35416
2.34503
2.3365
2.84371
2.87269
2.88733
2.90424
2.92743
2.95247
2.97488
2.99377
3.00842
3.01974
3.02958
3.03812
3.04521
3.05037
3.05098
3.04552
3.04063
3.03056
3.00546
2.97237
2.93794
2.90581
2.87265
2.83905
2.80649
2.77699
2.75064
2.72547
2.69918
2.6708
2.64105
2.61144
2.5833
2.55735
2.53382
2.51256
2.49331
2.47577
2.45965
2.44469
2.43068
2.41748
2.40495
2.393
2.38157
2.37061
2.3601
2.34995
2.34024
2.33102
2.85191
2.88111
2.89717
2.91586
2.94092
2.96758
2.99164
3.01214
3.02813
3.04065
3.0521
3.06268
3.07211
3.08003
3.08346
3.07898
3.07259
3.061
3.03623
3.00337
2.96848
2.93546
2.90119
2.86625
2.83201
2.80049
2.77214
2.7453
2.71768
2.68809
2.65698
2.62579
2.59589
2.56816
2.54289
2.52001
2.49928
2.48038
2.46301
2.44691
2.43186
2.41766
2.4042
2.39137
2.3791
2.36733
2.35603
2.34521
2.33522
2.32588
2.85947
2.88905
2.90692
2.92761
2.95458
2.98286
3.00865
3.03086
3.04831
3.06221
3.07553
3.08846
3.10058
3.11149
3.11793
3.11464
3.10668
3.09341
3.06898
3.03642
3.00112
2.96717
2.93172
2.89537
2.85938
2.8258
2.79536
2.76673
2.73769
2.70683
2.67436
2.64157
2.60989
2.58028
2.55315
2.52851
2.50614
2.48574
2.467
2.44965
2.43343
2.41817
2.40372
2.38997
2.37684
2.36428
2.35221
2.34062
2.32989
2.3197
2.86637
2.89653
2.91657
2.93945
2.96836
2.99831
3.02594
3.04996
3.06896
3.08459
3.1
3.11558
3.1307
3.14483
3.15436
3.15242
3.14304
3.12815
3.10404
3.07181
3.03605
3.00112
2.96442
2.92657
2.88876
2.85306
2.82045
2.7899
2.75931
2.72712
2.69327
2.65888
2.62538
2.59381
2.56471
2.53816
2.51401
2.49195
2.47169
2.45292
2.43541
2.41895
2.40338
2.38859
2.37448
2.36097
2.348
2.33547
2.32364
2.31248
2.87263
2.90363
2.92612
2.95135
2.98225
3.01398
3.04356
3.06952
3.09024
3.10777
3.12558
3.14416
3.16258
3.18007
3.19272
3.19228
3.1818
3.16556
3.14181
3.10982
3.0735
3.03751
2.99945
2.95998
2.92027
2.88238
2.84751
2.81493
2.78266
2.74905
2.7138
2.6778
2.64244
2.60884
2.57766
2.54907
2.52297
2.4991
2.47714
2.4568
2.43782
2.41998
2.40311
2.38707
2.37175
2.35709
2.34301
2.32947
2.31665
2.30469
2.87836
2.91041
2.93554
2.96322
2.99621
3.02988
3.06155
3.08959
3.11223
3.13187
3.15241
3.1743
3.19629
3.21725
3.233
3.23419
3.22311
3.20597
3.18263
3.15072
3.11368
3.07652
3.03697
2.99576
2.95404
2.91389
2.87667
2.84192
2.80785
2.77274
2.73603
2.69842
2.66118
2.6255
2.59213
2.56137
2.53318
2.50733
2.48352
2.46146
2.44085
2.42149
2.40319
2.38579
2.36919
2.35332
2.33812
2.32352
2.3097
2.29675
2.88365
2.91696
2.94479
2.975
3.01018
3.04605
3.07999
3.11023
3.13497
3.15699
3.18059
3.20607
3.23187
3.2564
3.27523
3.27821
3.26713
3.24968
3.22682
3.19478
3.15681
3.11831
3.07713
3.03403
2.9902
2.94768
2.908
2.87098
2.83498
2.79827
2.76006
2.72081
2.68168
2.64388
2.60826
2.57522
2.54481
2.51685
2.49104
2.4671
2.44472
2.42368
2.40378
2.38486
2.36681
2.34953
2.33298
2.31707
2.30199
2.28786
2.88862
2.92336
2.95383
2.98655
3.02411
3.06248
3.09893
3.1315
3.15852
3.1832
3.21018
3.23956
3.2694
3.29757
3.31946
3.32443
3.31406
3.29695
3.27462
3.24222
3.20306
3.16305
3.12007
3.07493
3.02883
2.98383
2.94159
2.90217
2.86412
2.82569
2.78594
2.74506
2.70405
2.66412
2.6262
2.59081
2.55808
2.52788
2.49995
2.47398
2.44969
2.42681
2.40513
2.38449
2.36475
2.34584
2.32769
2.31022
2.29364
2.27806
2.89334
2.92962
2.96257
2.99777
3.03794
3.07916
3.11837
3.15341
3.18291
3.21054
3.24122
3.27481
3.30893
3.34083
3.36581
3.37303
3.36411
3.34799
3.32623
3.29321
3.2526
3.21088
3.16591
3.11856
3.07002
3.0224
2.97747
2.93552
2.89528
2.85505
2.81371
2.77121
2.72836
2.68633
2.64611
2.60833
2.57322
2.5407
2.51055
2.48246
2.45613
2.43127
2.40766
2.38512
2.3635
2.34273
2.32272
2.30343
2.28506
2.2677
2.8978
2.9357
2.97093
3.00854
3.05155
3.09603
3.13828
3.17597
3.20814
3.23902
3.27372
3.31184
3.35053
3.38628
3.41447
3.42423
3.41749
3.40296
3.38178
3.3479
3.30559
3.26194
3.21477
3.16501
3.11386
3.06343
3.01566
2.97102
2.92847
2.88633
2.84335
2.79925
2.75464
2.71058
2.66811
2.62796
2.59046
2.55562
2.52322
2.49297
2.46455
2.43765
2.41203
2.38746
2.36379
2.3409
2.31874
2.29727
2.2767
2.25711
2.90193
2.94152
2.97878
3.01875
3.06486
3.11298
3.15858
3.19911
3.23416
3.26859
3.30768
3.35068
3.39426
3.43406
3.46569
3.47828
3.47438
3.46195
3.44137
3.40643
3.36217
3.31635
3.26678
3.21439
3.1604
3.10697
3.05616
3.00866
2.96361
2.91944
2.87478
2.82912
2.78283
2.73687
2.69226
2.64983
2.61001
2.57288
2.5383
2.50598
2.47556
2.44673
2.41916
2.39258
2.36678
2.34158
2.31689
2.29266
2.26911
2.24629
2.90556
2.9469
2.98598
3.02826
3.07774
3.12986
3.17911
3.22269
3.26087
3.29919
3.34306
3.39136
3.44024
3.48475
3.51939
3.53542
3.53494
3.52502
3.50504
3.46891
3.42249
3.37428
3.32205
3.2668
3.20975
3.15307
3.09896
3.04836
3.00062
2.95426
2.90785
2.86064
2.81279
2.76507
2.71849
2.67391
2.63189
2.59263
2.55605
2.52188
2.48979
2.45939
2.43031
2.40218
2.37464
2.34735
2.32003
2.29239
2.26439
2.23564
2.90845
2.95161
2.99236
3.03695
3.09002
3.14648
3.19968
3.24655
3.28814
3.33071
3.37981
3.43389
3.48851
3.53808
3.57636
3.59604
3.59934
3.59218
3.57283
3.53545
3.48671
3.43587
3.38074
3.32237
3.26198
3.20176
3.14407
3.09007
3.03938
2.99063
2.94233
2.89357
2.84424
2.79493
2.74655
2.70001
2.65596
2.61475
2.57639
2.54072
2.50745
2.4762
2.4466
2.41824
2.39067
2.36339
2.33572
2.30685
2.27561
2.23552
2.9103
2.95533
2.99772
3.04468
3.10156
3.1626
3.22002
3.27046
3.31577
3.36302
3.41784
3.47826
3.53922
3.59439
3.63688
3.66044
3.66773
3.66346
3.64479
3.60617
3.55501
3.50133
3.44303
3.38125
3.31722
3.25314
3.19151
3.13375
3.07977
3.02833
2.97795
2.92755
2.8768
2.82603
2.77602
2.72767
2.68176
2.63873
2.59876
2.5618
2.52767
2.49614
2.46701
2.44012
2.41545
2.39316
2.37367
2.35786
2.3475
2.34125
2.91077
2.95775
3.00182
3.05128
3.11213
3.17796
3.23985
3.29414
3.34355
3.39594
3.45705
3.52447
3.59248
3.65398
3.70125
3.72894
3.7403
3.7389
3.72099
3.68124
3.6276
3.57088
3.50912
3.44363
3.37561
3.30731
3.24133
3.17939
3.12168
3.06718
3.01443
2.96222
2.91
2.85782
2.80629
2.75627
2.70856
2.66372
2.62204
2.58358
2.54825
2.51585
2.48621
2.4591
2.43439
2.41195
2.39164
2.3733
2.35694
2.3422
2.90949
2.95849
3.00443
3.05655
3.1215
3.19226
3.25882
3.31727
3.37121
3.42929
3.49732
3.57249
3.64839
3.71708
3.76985
3.80191
3.81725
3.81859
3.80153
3.76083
3.70473
3.64481
3.57929
3.50971
3.43734
3.3644
3.29361
3.22698
3.16503
3.10699
3.05148
2.9972
2.94334
2.88971
2.8367
2.78506
2.73556
2.68882
2.64521
2.60487
2.56776
2.53369
2.50244
2.47373
2.44729
2.42286
2.40017
2.37894
2.3591
2.34082
2.90615
2.95724
3.00527
3.06026
3.12939
3.20515
3.27657
3.3395
3.39843
3.4628
3.53848
3.62224
3.70699
3.78386
3.84293
3.87976
3.89886
3.90273
3.88662
3.84522
3.78671
3.72341
3.6538
3.57973
3.50256
3.42453
3.34845
3.27655
3.20976
3.14761
3.08885
3.03209
2.97632
2.92111
2.86661
2.81337
2.76208
2.71336
2.66764
2.62513
2.58583
2.54959
2.51617
2.48529
2.45665
2.42997
2.40499
2.38149
2.35926
2.33869
2.90044
2.95365
3.00406
3.06211
3.13546
3.21627
3.2927
3.36042
3.42485
3.4962
3.58033
3.67363
3.7683
3.85447
3.92079
3.96277
3.98541
3.99157
3.97653
3.93472
3.87388
3.80703
3.73296
3.65393
3.57146
3.48783
3.40588
3.32811
3.25583
3.18893
3.12631
3.06656
3.00852
2.95151
2.89543
2.8406
2.78756
2.73687
2.689
2.64421
2.60257
2.56399
2.52827
2.49518
2.46442
2.43572
2.40884
2.38355
2.35959
2.33714
2.89212
2.94748
3.00051
3.06179
3.13934
3.2252
3.30674
3.37958
3.45006
3.52913
3.62261
3.72647
3.83223
3.92892
4.00358
4.05115
4.07722
4.0855
4.07169
4.02977
3.96664
3.89603
3.81708
3.73251
3.64415
3.55432
3.46589
3.38161
3.30316
3.23079
3.16362
3.10029
3.03952
2.98044
2.92265
2.86623
2.81152
2.75899
2.70905
2.66203
2.61805
2.57713
2.53912
2.50382
2.471
2.44038
2.41172
2.38479
2.35934
2.33541
2.88103
2.93848
2.9943
3.05892
3.14062
3.23147
3.31819
3.39646
3.47359
3.56118
3.66498
3.78053
3.89863
4.00711
4.09127
4.14506
4.17458
4.18496
4.1726
4.13087
4.06547
3.99081
3.90643
3.81566
3.72071
3.62398
3.5284
3.43692
3.35157
3.27295
3.20049
3.13292
3.0689
3.00738
2.94771
2.8897
2.83344
2.77924
2.72746
2.67839
2.63221
2.58906
2.54883
2.51139
2.47656
2.4441
2.41379
2.3854
2.35867
2.33354
2.86705
2.92647
2.98513
3.0531
3.13884
3.23456
3.32651
3.41049
3.4949
3.59188
3.70703
3.83543
3.96718
4.08878
4.18363
4.24444
4.2777
4.29043
4.27989
4.23864
4.17087
4.09176
4.0013
3.90351
3.80111
3.69666
3.59317
3.49374
3.4007
3.31505
3.2365
3.16396
3.0961
3.03169
2.9699
2.91024
2.85258
2.79701
2.74373
2.693
2.64502
2.59983
2.55756
2.51813
2.48141
2.44722
2.41539
2.38568
2.35784
2.3316
2.85009
2.91127
2.97268
3.0439
3.13349
3.23392
3.33105
3.42103
3.51335
3.62063
3.74821
3.8907
4.03746
4.17352
4.28027
4.34907
4.38675
4.40242
4.39424
4.35375