/*--------------------------------*- C++ -*----------------------------------*\
  =========                 |
  \\      /  F ield         | OpenFOAM: The Open Source CFD Toolbox
   \\    /   O peration     | Website:  https://openfoam.org
    \\  /    A nd           | Version:  9
     \\/     M anipulation  |
\*---------------------------------------------------------------------------*/
FoamFile
{
    format      ascii;
    class       volScalarField;
    location    "0.13";
    object      p_rgh;
}
// * * * * * * * * * * * * * * * * * * * * * * * * * * * * * * * * * * * * * //

dimensions      [1 -1 -2 0 0 0 0];

internalField   nonuniform List<scalar> 
5000
(
-0.336241
-0.11
-0.650399
-0.204334
-0.286303
-0.200474
-0.174171
-0.163039
-0.166856
-0.18642
-0.223568
-0.282632
-0.374523
-0.512698
-0.554276
-0.912992
-1.09625
-0.663389
-0.533783
-0.379642
-0.302636
-0.255048
-0.217649
-0.15942
-0.0587333
-0.106703
-0.0924028
-0.121691
-0.10966
-0.0934879
-0.0768712
-0.0612718
-0.0471476
-0.0346884
-0.0240413
-0.0154028
-0.00895661
-0.00470911
-0.00236652
-0.00138413
-0.00116331
-0.00124042
-0.00135233
-0.00139322
-0.00134538
-0.00122448
-0.00104925
-0.000829852
-0.000562424
-0.000220349
-0.302348
-0.068888
-0.523768
-0.198038
-0.270942
-0.176225
-0.165563
-0.158889
-0.16531
-0.185031
-0.219368
-0.271011
-0.343845
-0.444512
-0.508432
-0.72539
-0.884631
-0.631008
-0.480931
-0.34348
-0.274746
-0.225666
-0.183768
-0.129378
-0.0638285
-0.137631
-0.106369
-0.10706
-0.0844774
-0.07197
-0.060055
-0.0486331
-0.0380768
-0.0286949
-0.0207084
-0.0142799
-0.00948285
-0.0062414
-0.00430834
-0.00331991
-0.00289559
-0.00272616
-0.00261977
-0.0024767
-0.00226285
-0.00197759
-0.00163052
-0.00122771
-0.000773545
-0.000277545
-0.272993
-0.070766
-0.399329
-0.131243
-0.244495
-0.153631
-0.154079
-0.14791
-0.154257
-0.171434
-0.200135
-0.242057
-0.29589
-0.367878
-0.450822
-0.582581
-0.65343
-0.47779
-0.41281
-0.304382
-0.247999
-0.204121
-0.169341
-0.134833
-0.0854089
-0.120356
-0.091644
-0.0978277
-0.0787315
-0.0667808
-0.0556425
-0.0456245
-0.0367255
-0.0289486
-0.0223427
-0.016945
-0.0127414
-0.00963542
-0.00744582
-0.00594279
-0.0049037
-0.00414891
-0.00354535
-0.00301638
-0.00252069
-0.00203825
-0.00156
-0.00107641
-0.000592786
-0.000172462
-0.23436
-0.0538454
-0.287066
-0.0868277
-0.205333
-0.127137
-0.137595
-0.13132
-0.137637
-0.151934
-0.174551
-0.206822
-0.246029
-0.291344
-0.354778
-0.438296
-0.456393
-0.34673
-0.332547
-0.256603
-0.216002
-0.181007
-0.153372
-0.131475
-0.0922836
-0.10456
-0.0835673
-0.0887912
-0.0723742
-0.0620742
-0.0519432
-0.0428756
-0.0350031
-0.0282182
-0.0224827
-0.0177636
-0.0140019
-0.0110954
-0.00889773
-0.00724225
-0.00597383
-0.00496839
-0.00413681
-0.00341931
-0.00277684
-0.00218575
-0.00163187
-0.00109832
-0.000584077
-0.000162404
-0.190931
-0.0284932
-0.196837
-0.0577615
-0.163206
-0.0997656
-0.117636
-0.111344
-0.118007
-0.129476
-0.146376
-0.169544
-0.196879
-0.222317
-0.252574
-0.304369
-0.301341
-0.24732
-0.256068
-0.206628
-0.180444
-0.154527
-0.132257
-0.118084
-0.0892599
-0.0954034
-0.0780367
-0.078832
-0.063499
-0.0550937
-0.0465153
-0.0388204
-0.0321715
-0.0264362
-0.0215844
-0.0175673
-0.0143089
-0.0117088
-0.00964765
-0.00800388
-0.00667076
-0.00556464
-0.0046238
-0.00380309
-0.0030703
-0.0024037
-0.00178849
-0.00120597
-0.000651098
-0.000189743
-0.147525
-0.00584103
-0.130056
-0.0338916
-0.123539
-0.073619
-0.0957589
-0.0894828
-0.0965085
-0.105234
-0.117175
-0.132377
-0.149597
-0.161674
-0.164866
-0.193578
-0.182758
-0.165394
-0.188314
-0.158976
-0.144379
-0.126846
-0.10968
-0.101309
-0.0806249
-0.0851241
-0.0705185
-0.0686203
-0.0544501
-0.0475253
-0.0403011
-0.0339929
-0.0285898
-0.0238995
-0.0199053
-0.0165599
-0.0137944
-0.0115274
-0.00966957
-0.00813429
-0.00684702
-0.00574896
-0.004795
-0.00395125
-0.00319278
-0.00250169
-0.00186507
-0.00126599
-0.000697953
-0.000214805
-0.108908
0.0129948
-0.0808976
-0.0125718
-0.0878662
-0.0488388
-0.0728698
-0.0666025
-0.0737965
-0.0799437
-0.0878297
-0.096458
-0.105347
-0.107463
-0.0934954
-0.106239
-0.0915665
-0.0964016
-0.128671
-0.11493
-0.109541
-0.0995075
-0.0874165
-0.0834151
-0.0682582
-0.0714847
-0.0603522
-0.058045
-0.0457017
-0.0400812
-0.0339546
-0.0288189
-0.0244662
-0.0206714
-0.0174261
-0.014683
-0.0123855
-0.0104727
-0.00887818
-0.00753711
-0.00639315
-0.00540141
-0.00452743
-0.00374564
-0.00303714
-0.00238798
-0.00178806
-0.00122421
-0.000689673
-0.000224343
-0.0746232
0.0297877
-0.0424085
0.00780972
-0.0557609
-0.0251514
-0.0496313
-0.0433593
-0.0504994
-0.0542499
-0.058911
-0.0621458
-0.06457
-0.0589123
-0.0347237
-0.0368781
-0.0202761
-0.038089
-0.0767687
-0.0749617
-0.0767253
-0.0730373
-0.0655279
-0.0648223
-0.0539735
-0.0560601
-0.0481415
-0.0465438
-0.0366166
-0.032448
-0.0274724
-0.0234468
-0.0200267
-0.0170274
-0.0144597
-0.0122778
-0.0104366
-0.00889031
-0.00758809
-0.00648068
-0.00552564
-0.00468908
-0.00394537
-0.00327554
-0.00266538
-0.00210404
-0.00158387
-0.00109593
-0.000633244
-0.000219435
-0.0440616
0.0462193
-0.0100911
0.0276547
-0.0265873
-0.00245346
-0.0265966
-0.0203115
-0.0272572
-0.0288137
-0.030981
-0.0298355
-0.0274295
-0.0161151
0.0146251
0.0191948
0.0355883
0.0105678
-0.0325335
-0.0392578
-0.0463723
-0.0477424
-0.0440898
-0.0459502
-0.0389023
-0.0401617
-0.0348162
-0.0343048
-0.0270066
-0.0244052
-0.0207252
-0.0178524
-0.0153578
-0.0131401
-0.011234
-0.00960142
-0.00821256
-0.00703581
-0.00603496
-0.00517529
-0.00442723
-0.0037674
-0.003178
-0.00264564
-0.00215998
-0.00171263
-0.00129796
-0.000911426
-0.000545462
-0.000204714
-0.0142897
0.0609592
0.0180902
0.046914
0.000149254
0.0191757
-0.00417419
0.0021298
-0.00456036
-0.00417984
-0.00448908
6.10469e-05
0.00605698
0.0211146
0.0569506
0.065007
0.0787908
0.0501397
0.00462882
-0.00780175
-0.0188006
-0.0240198
-0.0235374
-0.0273856
-0.0236084
-0.0243705
-0.0211297
-0.0219025
-0.0172054
-0.0161471
-0.0138103
-0.0120908
-0.0105189
-0.00908209
-0.00783103
-0.00674105
-0.00580036
-0.00499294
-0.00429778
-0.00369454
-0.00316586
-0.00269778
-0.00227939
-0.00190217
-0.0015592
-0.0012442
-0.000953258
-0.000686529
-0.000435464
-0.000182632
0.0139369
0.0757525
0.043527
0.0655864
0.0248384
0.0396557
0.0174183
0.0236719
0.0172924
0.019306
0.0203296
0.027355
0.036057
0.0532879
0.0938881
0.102688
0.111655
0.0815039
0.0357214
0.0195843
0.00585762
-0.00219306
-0.00429491
-0.00964798
-0.00853568
-0.00915172
-0.00770298
-0.00983572
-0.0075831
-0.0079688
-0.00693582
-0.00630991
-0.00562304
-0.00494106
-0.00432268
-0.00375891
-0.00325609
-0.0028133
-0.00242431
-0.00208235
-0.00178122
-0.00151541
-0.00128012
-0.00107117
-0.000884667
-0.000716089
-0.000562972
-0.000430483
-0.000308678
-0.000154612
0.0406397
0.0906825
0.0667254
0.0835082
0.0476818
0.0589139
0.0379673
0.0442534
0.0381331
0.0414448
0.0434011
0.0520591
0.0628201
0.0809401
0.125974
0.133548
0.1364
0.106022
0.0617233
0.0432282
0.0276869
0.0176027
0.0134095
0.00689213
0.00586521
0.00504953
0.00497547
0.00156101
0.00162867
-6.67359e-05
-0.000258726
-0.000643236
-0.000786265
-0.000816298
-0.000796156
-0.000733641
-0.000651351
-0.000562176
-0.000473748
-0.000391789
-0.000320173
-0.000261066
-0.00021515
-0.000182066
-0.000160582
-0.000147553
-0.000141688
-0.000153436
-0.000171043
-0.000122401
0.0654582
0.105516
0.0876173
0.100331
0.0687038
0.0768635
0.0580858
0.0631174
0.0578416
0.0621071
0.0647222
0.0742772
0.0865635
0.104516
0.152944
0.158229
0.155145
0.125278
0.0834773
0.063559
0.0468992
0.0353785
0.0294939
0.0220098
0.0192521
0.0179851
0.0166332
0.0120986
0.0102988
0.00744662
0.00613106
0.00482564
0.00391221
0.00321799
0.0026781
0.0022683
0.00195188
0.00170319
0.00150161
0.00132994
0.00117511
0.00102807
0.000883244
0.000737649
0.000590231
0.000443094
0.000296644
0.000134891
-2.82493e-05
-8.78705e-05
0.0884972
0.11918
0.106013
0.115771
0.0878674
0.0933658
0.0768303
0.0810801
0.0764537
0.0812541
0.084327
0.0941624
0.107473
0.124407
0.174327
0.177141
0.169801
0.140833
0.101752
0.0810444
0.0637497
0.0512273
0.0439636
0.0356248
0.0314594
0.0296267
0.0272037
0.0217168
0.0183635
0.0145045
0.0121792
0.0100447
0.00842304
0.00711491
0.00605473
0.0052035
0.00451254
0.00394435
0.00346617
0.00305025
0.0026752
0.00232574
0.00199205
0.00166821
0.00135124
0.00104251
0.000741829
0.000427461
0.000115681
-5.25468e-05
0.107987
0.132528
0.121982
0.129804
0.105304
0.108403
0.0941631
0.0981327
0.0938841
0.0989332
0.102283
0.111914
0.125738
0.141045
0.189992
0.190765
0.181821
0.153973
0.11723
0.0961414
0.0785099
0.065299
0.0568987
0.047791
0.0424811
0.040062
0.0367409
0.0304492
0.0258154
0.0210807
0.0178591
0.0149841
0.0127174
0.010847
0.00930724
0.00804655
0.00700632
0.00613812
0.00539805
0.00474883
0.00416147
0.00361523
0.0030965
0.00259691
0.00211183
0.00164216
0.00118743
0.00072004
0.000258568
-1.75436e-05
0.124405
0.145091
0.135694
0.142489
0.121332
0.122235
0.110308
0.113879
0.110092
0.115217
0.118682
0.127766
0.141584
0.154921
0.200453
0.199839
0.192172
0.165552
0.130456
0.109258
0.0914509
0.077781
0.0684375
0.0586526
0.0524114
0.0494301
0.0453558
0.038382
0.0326882
0.0271866
0.0231725
0.0196377
0.0167866
0.0144044
0.0124249
0.0107865
0.00942195
0.00827312
0.00728602
0.00641476
0.00562365
0.00488702
0.00418805
0.00351626
0.00286563
0.00223673
0.00162933
0.00101038
0.00039984
1.65013e-05
0.138779
0.156249
0.147581
0.153769
0.135701
0.135606
0.12526
0.128406
0.125175
0.130206
0.133644
0.141964
0.155281
0.166533
0.206736
0.205223
0.201598
0.176014
0.141842
0.120734
0.102825
0.088872
0.0787464
0.0683905
0.0613864
0.0578858
0.053179
0.0456226
0.0390404
0.0328613
0.0281457
0.0240215
0.0206419
0.0177945
0.0154125
0.0134258
0.0117602
0.0103487
0.00912823
0.0080454
0.0070585
0.00613764
0.00526318
0.00442294
0.00360976
0.00282379
0.0020654
0.00129741
0.000538873
4.82989e-05
0.151576
0.165622
0.158661
0.163892
0.148942
0.148192
0.13898
0.141935
0.13922
0.144024
0.147322
0.154757
0.167147
0.176381
0.210224
0.20909
0.209225
0.185401
0.151682
0.130839
0.112861
0.0987635
0.0879941
0.0771808
0.0695434
0.0655702
0.0603322
0.0522778
0.0449425
0.0381607
0.0328225
0.0281695
0.0243107
0.0210394
0.0182876
0.0159784
0.0140318
0.0123726
0.0109302
0.00964434
0.00846806
0.00736791
0.00632188
0.00531636
0.00434334
0.00340288
0.00249494
0.00157819
0.000674992
7.34706e-05
0.163174
0.174353
0.168777
0.173123
0.160682
0.160118
0.151851
0.154652
0.152325
0.156822
0.159884
0.166385
0.177535
0.184932
0.212177
0.211503
0.215875
0.193774
0.16022
0.139788
0.121764
0.107632
0.0963377
0.0851775
0.0769987
0.0726002
0.0669174
0.0584427
0.0504692
0.0431498
0.0372573
0.0321267
0.0278311
0.0241709
0.0210764
0.0184658
0.0162537
0.0143581
0.0127015
0.0112188
0.0098574
0.00858122
0.0073663
0.00619781
0.00506709
0.00397428
0.00291933
0.00185662
0.000811079
9.67815e-05
0.17384
0.183106
0.177881
0.181497
0.171598
0.17107
0.163891
0.1666
0.164595
0.168754
0.171505
0.177078
0.186807
0.192608
0.213828
0.21301
0.221714
0.200959
0.167646
0.147762
0.129716
0.115639
0.10392
0.0925177
0.0838405
0.0790742
0.0730249
0.064201
0.0556925
0.0478974
0.0415074
0.0359417
0.0312448
0.0272238
0.023808
0.0209112
0.0184442
0.0163196
0.0144538
0.0127763
0.0112318
0.00978107
0.00839839
0.00706796
0.0057805
0.00453608
0.00333489
0.00212842
0.000942578
0.000112074
0.183623
0.191615
0.186301
0.189478
0.181502
0.181198
0.175175
0.177841
0.176143
0.17996
0.182361
0.18705
0.195318
0.199798
0.21621
0.216229
0.224803
0.206689
0.174094
0.154917
0.136887
0.122933
0.110871
0.0993522
0.0901032
0.0850866
0.0787427
0.0696394
0.0606814
0.0524666
0.0456253
0.0396612
0.0345914
0.0302298
0.0265082
0.0233361
0.0206205
0.01827
0.0161965
0.0143247
0.0125966
0.0109707
0.00941983
0.00792717
0.00648292
0.0050869
0.00373945
0.00239009
0.00106532
0.000114965
0.192505
0.199566
0.194172
0.197141
0.190608
0.190781
0.185826
0.188498
0.187096
0.190583
0.192622
0.196495
0.203364
0.206781
0.219588
0.219537
0.227266
0.211265
0.179803
0.161394
0.143432
0.129659
0.117285
0.105517
0.0960536
0.0908498
0.0841788
0.0748515
0.065499
0.0569064
0.0496533
0.0433222
0.0379011
0.0332152
0.0291981
0.025757
0.0227962
0.0202202
0.0179373
0.0158694
0.0139558
0.0121529
0.0104323
0.00877625
0.00717436
0.00562618
0.00413207
0.00264021
0.00117727
0.000102576
0.200487
0.206768
0.201496
0.204318
0.199205
0.199938
0.195958
0.198698
0.197578
0.200758
0.202449
0.205584
0.211184
0.213736
0.224216
0.223273
0.229184
0.214761
0.185127
0.167299
0.149522
0.135977
0.123353
0.111508
0.102012
0.0957275
0.0894696
0.0798454
0.0701723
0.0612471
0.053628
0.0469519
0.0411961
0.0361995
0.0318941
0.0281862
0.0249799
0.0221763
0.0196813
0.0174144
0.0153123
0.0133299
0.0114372
0.00961586
0.00785487
0.00615336
0.00451164
0.00287726
0.00127672
7.25477e-05
0.207576
0.213113
0.208267
0.211055
0.207249
0.208692
0.205668
0.208542
0.207702
0.210613
0.21199
0.214469
0.218973
0.220782
0.23
0.227754
0.230709
0.217484
0.190152
0.172806
0.155365
0.142023
0.129186
0.117251
0.107659
0.101189
0.0940672
0.0845325
0.0746928
0.065516
0.0575742
0.0505734
0.0444961
0.0391965
0.0346056
0.0306313
0.0271772
0.024143
0.0214323
0.0189625
0.0166685
0.0145033
0.0124359
0.0104468
0.00852468
0.0066681
0.00487721
0.00309959
0.00136142
2.26561e-05
0.213786
0.218534
0.214482
0.217389
0.214731
0.217111
0.215054
0.218132
0.217578
0.220268
0.221376
0.223279
0.226871
0.227986
0.236518
0.232787
0.232368
0.219477
0.195422
0.178166
0.161157
0.147885
0.134884
0.122837
0.113075
0.106328
0.098861
0.0892008
0.079177
0.0697668
0.0615179
0.0542053
0.0478149
0.0422154
0.0373394
0.0330971
0.0293924
0.0261237
0.0231933
0.0205166
0.0180268
0.0156752
0.0134297
0.01127
0.00918388
0.00716964
0.00522708
0.00330414
0.00142655
-5.11864e-05
0.219197
0.223058
0.220197
0.223356
0.22173
0.225294
0.22422
0.227572
0.227312
0.229832
0.23072
0.232122
0.234959
0.235363
0.243311
0.238114
0.234732
0.222103
0.200387
0.183592
0.166929
0.153678
0.140536
0.128377
0.118439
0.111362
0.10366
0.0938872
0.083686
0.0740372
0.065484
0.0578634
0.0511623
0.0452633
0.0401011
0.0355884
0.0316295
0.0281222
0.0249676
0.0220796
0.0193895
0.0168475
0.01442
0.0120859
0.00983232
0.00765698
0.00555944
0.00348811
0.00146791
-0.000152791
0.223899
0.226836
0.225548
0.229056
0.228382
0.233339
0.233274
0.236965
0.237009
0.239404
0.240119
0.241085
0.24328
0.242909
0.249989
0.243572
0.23808
0.225649
0.20569
0.189184
0.172783
0.159517
0.14623
0.133945
0.123837
0.116432
0.10849
0.0986124
0.0882367
0.0783455
0.0694897
0.0615604
0.054548
0.0483482
0.0428976
0.0381113
0.0338942
0.0301437
0.0267599
0.0236554
0.0207602
0.0180228
0.0154087
0.0128956
0.0104703
0.00812959
0.00587293
0.00364923
0.00148227
-0.000285397
0.227469
0.230157
0.230775
0.234686
0.234895
0.241369
0.242334
0.246412
0.246762
0.249075
0.249654
0.250237
0.251857
0.250623
0.256294
0.249074
0.24266
0.230319
0.211607
0.195093
0.17885
0.165506
0.152045
0.139611
0.129317
0.121597
0.113419
0.103421
0.0928568
0.0827138
0.073552
0.0653104
0.0579845
0.0514812
0.0457391
0.0406752
0.036195
0.0321958
0.028577
0.02525
0.0221435
0.019205
0.0163986
0.0137013
0.011099
0.00858803
0.00616746
0.00378693
0.00146881
-0.000450837
0.233046
0.233736
0.236217
0.240539
0.241562
0.249534
0.251528
0.256012
0.256664
0.258925
0.259396
0.259639
0.260702
0.258526
0.26217
0.254624
0.24859
0.2363
0.218158
0.201432
0.185222
0.171721
0.158052
0.145436
0.134932
0.126896
0.118486
0.108347
0.0975774
0.0871682
0.0776924
0.0691325
0.0614888
0.054678
0.0486398
0.0432931
0.0385437
0.034289
0.0304279
0.0268711
0.0235461
0.0203993
0.0173939
0.0145061
0.011721
0.00903423
0.00644456
0.0039026
0.00142914
-0.000649269
0.238324
0.237735
0.242194
0.246969
0.248728
0.258008
0.260988
0.265859
0.266798
0.269029
0.269406
0.269341
0.269834
0.266678
0.267779
0.26032
0.255788
0.243603
0.225358
0.208278
0.191952
0.178219
0.1643
0.151466
0.140722
0.13236
0.123711
0.113414
0.102422
0.0917327
0.0819346
0.0730494
0.0650822
0.057958
0.0516175
0.0459806
0.040954
0.0364353
0.0323231
0.0285275
0.0249753
0.0216119
0.0183996
0.0153139
0.0123391
0.00947026
0.00670567
0.00399741
0.00136463
-0.000880363
0.244152
0.242638
0.249034
0.254403
0.256637
0.266955
0.270837
0.276038
0.277241
0.279449
0.279736
0.279388
0.279284
0.275175
0.273458
0.266344
0.264027
0.252068
0.233203
0.215666
0.199075
0.185041
0.170824
0.15773
0.146711
0.138009
0.129108
0.118633
0.107406
0.0964285
0.0863021
0.0770851
0.0687877
0.0613424
0.0546908
0.0487544
0.0434406
0.0386473
0.0342734
0.0302286
0.0264391
0.0228496
0.0194216
0.0161297
0.0129578
0.00989993
0.00695409
0.00407416
0.00127664
-0.00114425
0.251027
0.248754
0.257074
0.262608
0.265997
0.276502
0.281187
0.286619
0.28806
0.290242
0.290438
0.289826
0.289102
0.284147
0.27964
0.272952
0.273011
0.261428
0.24164
0.223598
0.206609
0.192215
0.177648
0.164246
0.152915
0.143854
0.134677
0.124004
0.112538
0.101272
0.0908162
0.0812618
0.0726265
0.0648505
0.0578771
0.0516295
0.0460162
0.0409359
0.036288
0.031982
0.0279437
0.0241172
0.020463
0.016955
0.0135766
0.0103207
0.00718429
0.00412417
0.00115662
-0.00144769
0.258982
0.255903
0.266954
0.272242
0.276275
0.286656
0.292082
0.297665
0.29931
0.301455
0.301556
0.300702
0.299353
0.293731
0.286767
0.28042
0.282474
0.271377
0.250586
0.232049
0.214564
0.19976
0.184787
0.171027
0.159347
0.149901
0.140415
0.129523
0.117821
0.106274
0.095492
0.0855968
0.0766153
0.0684975
0.0611895
0.054617
0.0486903
0.0433092
0.0383736
0.0337933
0.0294939
0.0254187
0.0215277
0.0177941
0.0142008
0.0107396
0.00740615
0.00416021
0.00102135
-0.00177519
0.268137
0.266292
0.276508
0.282947
0.287531
0.297613
0.30346
0.309269
0.311033
0.313123
0.313132
0.312061
0.310117
0.30405
0.295211
0.288998
0.29224
0.281633
0.259966
0.240987
0.222942
0.207687
0.192254
0.178085
0.166022
0.156161
0.146322
0.135187
0.123254
0.111439
0.100338
0.0900998
0.0807635
0.0722915
0.0646347
0.0577224
0.0514672
0.0457704
0.040533
0.0356651
0.0310921
0.0267571
0.0226194
0.0186515
0.0148354
0.0111624
0.00762639
0.00418935
0.000870868
-0.00212862
0.278082
0.277523
0.287806
0.294743
0.299839
0.309374
0.315633
0.321154
0.32323
0.325275
0.325206
0.323949
0.321475
0.315189
0.305211
0.298867
0.302254
0.291989
0.269742
0.250385
0.231751
0.216015
0.200068
0.185437
0.172957
0.162652
0.152413
0.141004
0.128843
0.116772
0.105359
0.0947741
0.0850732
0.0762332
0.0682123
0.0609445
0.054345
0.0483173
0.0427635
0.037594
0.0327345
0.0281272
0.0237306
0.0195161
0.0154649
0.0115668
0.00781441
0.00417378
0.000668078
-0.00253538
0.288628
0.289813
0.300246
0.307412
0.312884
0.321858
0.328213
0.333649
0.335945
0.337939
0.337814
0.336411
0.333506
0.327199
0.316834
0.310116
0.31256
0.302362
0.279918
0.260236
0.241015
0.224767
0.208253
0.193107
0.180181
0.169404
0.158718
0.147001
0.134605
0.122282
0.110558
0.0996186
0.0895401
0.0803167
0.0719155
0.064276
0.0573168
0.0509435
0.0450594
0.0395758
0.0344179
0.0295277
0.0248629
0.0203939
0.0161012
0.0119735
0.00800099
0.00415347
0.000460778
-0.00295392
0.29952
0.302997
0.313418
0.320677
0.326457
0.334825
0.34127
0.34666
0.349163
0.35113
0.350989
0.349487
0.346276
0.340093
0.329991
0.322724
0.32328
0.312803
0.290549
0.270562
0.250775
0.233983
0.216849
0.201131
0.18773
0.176462
0.165291
0.153231
0.140581
0.127993
0.115943
0.104632
0.0941576
0.0845319
0.0757328
0.0677055
0.0603719
0.0536398
0.0474135
0.0416048
0.036139
0.0309574
0.0260167
0.0212864
0.0167459
0.0123829
0.00818502
0.0041217
0.000224599
-0.00341028
0.310499
0.316688
0.327047
0.334241
0.340319
0.348183
0.354782
0.360165
0.362857
0.364859
0.364759
0.363212
0.359832
0.353856
0.344473
0.336567
0.334578
0.323495
0.30174
0.281425
0.261096
0.243721
0.225911
0.209557
0.195652
0.183885
0.172212
0.159774
0.146833
0.133942
0.121532
0.109818
0.0989197
0.0888681
0.0796513
0.0712197
0.0634978
0.0563944
0.0498146
0.0436703
0.0378861
0.0324026
0.0271754
0.0221727
0.0173726
0.0127622
0.00832914
0.00404224
-7.38468e-05
-0.0039338
0.321381
0.330553
0.340885
0.347835
0.354266
0.361858
0.368669
0.374139
0.37705
0.379147
0.379145
0.377615
0.3742
0.368449
0.360007
0.351455
0.346644
0.334724
0.313644
0.292928
0.272067
0.254059
0.235512
0.21845
0.204004
0.191746
0.179575
0.166732
0.153446
0.140188
0.127356
0.115188
0.103826
0.093318
0.0836603
0.0748068
0.0666826
0.0591963
0.0522525
0.0457624
0.03965
0.0338549
0.0283317
0.0230476
0.0179799
0.0131143
0.00843897
0.00392362
-0.00041298
-0.0045048
0.332065
0.344319
0.35464
0.361362
0.368177
0.375769
0.382883
0.388541
0.39176
0.394008
0.394166
0.392717
0.389388
0.38382
0.376313
0.367179
0.359671
0.346831
0.32644
0.305206
0.283797
0.265092
0.245748
0.227896
0.21286
0.200127
0.187487
0.174216
0.160514
0.146796
0.133457
0.120764
0.108885
0.0978816
0.0877558
0.0784609
0.0699198
0.0620391
0.0547215
0.0478769
0.0414282
0.0353141
0.0294881
0.0239161
0.0185743
0.0134469
0.00852122
0.00376852
-0.000795051
-0.0051237
0.342525
0.357803
0.368195
0.374695
0.381994
0.389865
0.397407
0.403363
0.406975
0.409442
0.409834
0.408531
0.405381
0.399918
0.393155
0.383569
0.373847
0.360169
0.340319
0.318416
0.296409
0.276936
0.256732
0.238003
0.222311
0.209116
0.196049
0.182333
0.168133
0.153842
0.139885
0.126578
0.114115
0.102569
0.0919424
0.082183
0.0732086
0.0649206
0.0572186
0.05001
0.043216
0.0367736
0.0306346
0.0247637
0.0191354
0.0137325
0.00854055
0.00353313
-0.00126806
-0.00583339
0.3528
0.370907
0.381449
0.387818
0.395717
0.404127
0.412234
0.418605
0.422688
0.425449
0.426151
0.425058
0.422153
0.416707
0.41038
0.400524
0.389332
0.375046
0.355461
0.332713
0.31003
0.289715
0.268593
0.248899
0.232466
0.218801
0.205346
0.191171
0.176384
0.161394
0.146695
0.132671
0.119546
0.107402
0.0962349
0.085983
0.0765546
0.0678438
0.0597448
0.0521611
0.0450115
0.0382305
0.0317682
0.0255879
0.0196635
0.0139769
0.00850981
0.00323672
-0.00180193
-0.00660969
0.362977
0.383617
0.394385
0.400745
0.409374
0.418559
0.427362
0.434265
0.438897
0.44203
0.443114
0.44229
0.439675
0.43417
0.427936
0.41803
0.406242
0.391687
0.372009
0.348242
0.324778
0.303553
0.281466
0.260728
0.243448
0.229268
0.215443
0.200791
0.18533
0.169514
0.153944
0.139093
0.12522
0.112413
0.100658
0.0898792
0.0799717
0.0708191
0.0623081
0.0543372
0.0468213
0.0396924
0.0328987
0.0264017
0.0201748
0.0141998
0.00845453
0.00290891
-0.00237551
-0.00743412
0.37316
0.395972
0.407036
0.413519
0.42302
0.433177
0.442799
0.450345
0.455603
0.459182
0.460714
0.460215
0.457916
0.452327
0.445878
0.436144
0.42463
0.410202
0.390056
0.365115
0.340756
0.318563
0.295477
0.273633
0.255388
0.240598
0.226382
0.211226
0.195013
0.178256
0.161691
0.145898
0.131185
0.117643
0.105245
0.0938984
0.0834802
0.0738613
0.0649186
0.0565436
0.0486463
0.0411553
0.0340163
0.0271893
0.0206457
0.0143679
0.00833401
0.0025079
-0.00304383
-0.00835481
0.383461
0.408041
0.419489
0.426162
0.436722
0.448007
0.458556
0.466847
0.472802
0.476898
0.478936
0.47882
0.476861
0.471227
0.464353
0.454975
0.444476
0.430579
0.409634
0.383411
0.358041
0.334839
0.310739
0.287743
0.26841
0.252869
0.238189
0.222489
0.205456
0.187662
0.16999
0.153147
0.137498
0.123143
0.11004
0.0980748
0.0871067
0.0769895
0.067588
0.0587852
0.0504848
0.0426115
0.0351083
0.0279327
0.0210544
0.0144551
0.00811489
0.00199476
-0.0038455
-0.00941738
0.393984
0.419883
0.431319
0.439236
0.450563
0.463078
0.474643
0.483775
0.490489
0.495165
0.497763
0.498092
0.496507
0.490946
0.483578
0.474665
0.465704
0.452692
0.430723
0.403169
0.376683
0.352448
0.327335
0.303167
0.282622
0.266155
0.250886
0.234582
0.216678
0.197773
0.178901
0.160905
0.144222
0.128969
0.115091
0.102451
0.0908856
0.0802307
0.070337
0.0610773
0.0523486
0.0440702
0.0361814
0.0286369
0.0214044
0.0144634
0.00779423
0.00135636
-0.00479263
-0.0106424
0.404745
0.431713
0.443328
0.452116
0.464479
0.4784
0.491064
0.501127
0.508656
0.51397
0.517177
0.518023
0.516873
0.511579
0.503805
0.495376
0.488208
0.476327
0.453258
0.424391
0.396712
0.371436
0.345317
0.319977
0.298113
0.280526
0.264501
0.24751
0.228695
0.208631
0.188482
0.16924
0.151429
0.13519
0.120459
0.107078
0.0948591
0.0836188
0.0731923
0.0634409
0.0542527
0.0455407
0.0372391
0.0292994
0.0216873
0.0143807
0.00735889
0.000579142
-0.00589676
-0.0120417
0.415809
0.443455
0.455361
0.464945
0.478545
0.493971
0.507817
0.518898
0.527293
0.533294
0.537163
0.538614
0.537998
0.533226
0.525295
0.517291
0.511888
0.501235
0.477144
0.447051
0.418143
0.391831
0.364716
0.338213
0.314951
0.296046
0.279073
0.261292
0.241533
0.220283
0.198802
0.178231
0.159197
0.14188
0.126211
0.112013
0.0990742
0.0871915
0.0761828
0.065896
0.0562088
0.0470263
0.0382773
0.0299097
0.0218873
0.014187
0.00678756
-0.000357376
-0.00718001
-0.0136367
0.427157
0.455262
0.467404
0.477856
0.492825
0.509793
0.524897
0.537079
0.546384
0.55312
0.557711
0.559881
0.55994
0.555991
0.548284
0.540614
0.536688
0.527181
0.502274
0.47111
0.440989
0.413652
0.385549
0.357894
0.333177
0.312777
0.294653
0.275964
0.255231
0.232784
0.209934
0.187965
0.167616
0.149122
0.132421
0.117319
0.103585
0.0909933
0.0793437
0.0684692
0.0582356
0.0485395
0.0393038
0.0304726
0.0220064
0.0138804
0.00607255
-0.00146516
-0.00866733
-0.0154732
0.438701
0.467136
0.47936
0.490867
0.50731
0.52586
0.542297
0.555656
0.565914
0.573432
0.57882
0.58185
0.582774
0.579975
0.572964
0.565565
0.562624
0.553995
0.528558
0.496531
0.465266
0.436921
0.407835
0.379032
0.352818
0.33078
0.311309
0.291582
0.269841
0.246199
0.221961
0.198534
0.176782
0.157009
0.139173
0.123072
0.108456
0.0950781
0.0827187
0.0711942
0.0603573
0.0500943
0.0403202
0.0309727
0.022007
0.0133928
0.00510165
-0.0029089
-0.0105188
-0.0176835
0.450251
0.478885
0.491336
0.503998
0.521994
0.542159
0.559998
0.574612
0.58587
0.594223
0.600505
0.604568
0.606592
0.605283
0.59948
0.592357
0.58979
0.581612
0.555948
0.523297
0.491007
0.461678
0.431606
0.401649
0.373901
0.350112
0.329119
0.308223
0.285432
0.260602
0.234974
0.210043
0.186802
0.165644
0.146563
0.129358
0.113762
0.0995099
0.0863625
0.074119
0.0626187
0.0517373
0.0413815
0.0314823
0.021991
0.0128751
0.00409781
-0.00438825
-0.012405
-0.0199538
0.461665
0.490417
0.503324
0.51724
0.536881
0.558678
0.577979
0.593929
0.606243
0.615494
0.622794
0.628098
0.631497
0.632019
0.627928
0.621172
0.618346
0.610087
0.584457
0.551431
0.518269
0.487985
0.456911
0.42578
0.396466
0.37084
0.348176
0.325979
0.302089
0.27608
0.249067
0.222596
0.197787
0.175138
0.154695
0.136269
0.119584
0.104358
0.0903313
0.0772885
0.0650547
0.0534943
0.042504
0.0320072
0.0219491
0.0122946
0.00300247
-0.00599608
-0.0145239
-0.0225296
0.47281
0.501655
0.515271
0.530588
0.551968
0.575395
0.596219
0.613592
0.62703
0.63726
0.645737
0.652522
0.657602
0.660286
0.658361
0.652143
0.648498
0.639586
0.614174
0.581012
0.547144
0.51593
0.483831
0.45149
0.420574
0.39304
0.368582
0.34496
0.319907
0.292721
0.264335
0.2363
0.209853
0.185609
0.163681
0.143907
0.126009
0.10969
0.094676
0.0807324
0.0676698
0.0553391
0.0436267
0.0324476
0.0217405
0.0114652
0.00158253
-0.0079881
-0.0171115
-0.0256476
0.48353
0.512502
0.527151
0.544053
0.567247
0.592292
0.614702
0.633589
0.648242
0.659553
0.669402
0.677939
0.685027
0.690184
0.690799
0.685337
0.680446
0.670376
0.645273
0.612183
0.577755
0.545632
0.512472
0.478869
0.44631
0.416812
0.390454
0.365283
0.338994
0.31062
0.280871
0.251258
0.223113
0.197172
0.173634
0.152377
0.133131
0.11559
0.0994648
0.084504
0.0705017
0.0572957
0.0447633
0.0328144
0.0213848
0.0104319
-8.15962e-05
-0.0102343
-0.0199458
-0.0291647
0.493692
0.522888
0.53895
0.557642
0.582703
0.609359
0.633423
0.653919
0.669905
0.682425
0.693878
0.704458
0.713893
0.721808
0.725242
0.720762
0.714368
0.702781
0.678014
0.64515
0.610264
0.577235
0.542966
0.508032
0.473785
0.44227
0.413917
0.387077
0.359462
0.329871
0.298764
0.267566
0.237674
0.209942
0.184669
0.16179
0.141055
0.122156
0.10479
0.088691
0.0736345
0.0594437
0.0459832
0.0331516
0.0208755
0.00910537
-0.0021948
-0.0130135
-0.0229977
-0.0323443
0.503213
0.532791
0.55066
0.571349
0.598317
0.626597
0.652395
0.674597
0.692055
0.705948
0.719272
0.7322
0.744317
0.755236
0.761671
0.758378
0.750422
0.737155
0.712717
0.680165
0.64486
0.610907
0.575462
0.539116
0.503123
0.469543
0.439104
0.410474
0.38143
0.350571
0.318101
0.285315
0.253633
0.224022
0.196894
0.172252
0.149883
0.129484
0.110745
0.0933864
0.0771711
0.0619114
0.0474622
0.033714
0.0205857
0.00801862
-0.00404866
-0.0156358
-0.0263725
-0.0365628
0.512071
0.542237
0.562273
0.585154
0.614064
0.644018
0.671645
0.695659
0.714659
0.730293
0.745699
0.761285
0.776405
0.79053
0.80006
0.798123
0.788743
0.773855
0.749748
0.717512
0.681753
0.646826
0.610123
0.57227
0.53446
0.498761
0.466149
0.435604
0.405012
0.37282
0.338971
0.304588
0.27108
0.239512
0.21041
0.183866
0.159709
0.137656
0.117391
0.0986261
0.0811134
0.064653
0.0490871
0.0342934
0.0201787
0.0066733
-0.00629694
-0.0188229
-0.0306545
-0.0418182
0.520299
0.55129
0.573781
0.599011
0.629915
0.661646
0.691221
0.717183
0.737904
0.755438
0.773248
0.791826
0.810247
0.827733
0.840384
0.839942
0.829465
0.813228
0.789478
0.757481
0.721164
0.68518
0.647114
0.607644
0.567933
0.530047
0.495175
0.462592
0.430326
0.396718
0.361463
0.32547
0.290106
0.25651
0.225324
0.196737
0.170638
0.146764
0.124807
0.104468
0.0854869
0.0676483
0.0507773
0.034736
0.0194195
0.00475343
-0.00931987
-0.0228676
-0.0356857
-0.0476403
0.527987
0.560034
0.585163
0.612852
0.645833
0.679511
0.711181
0.73922
0.761856
0.781493
0.802038
0.823924
0.845914
0.866878
0.882631
0.883819
0.872733
0.8556
0.832261
0.800351
0.763311
0.726148
0.686595
0.645384
0.60367
0.563517
0.526293
0.491549
0.45748
0.422368
0.385662
0.348046
0.310804
0.275123
0.241756
0.210998
0.182808
0.156959
0.133151
0.111083
0.0904815
0.0711197
0.0528124
0.0354149
0.0188186
0.00294714
-0.0122551
-0.0268494
-0.0406745
-0.0536268
0.535243
0.568553
0.596381
0.626585
0.66177
0.697639
0.731584
0.761823
0.786561
0.808576
0.832178
0.857664
0.883463
0.907993
0.92682
0.929794
0.918717
0.901271
0.878408
0.846374
0.808396
0.769903
0.728717
0.685623
0.641787
0.599268
0.559594
0.522569
0.486571
0.449856
0.411649
0.372401
0.333271
0.295468
0.259847
0.226811
0.196402
0.168436
0.142632
0.118686
0.0963136
0.0752738
0.0553707
0.0364508
0.0183967
0.0011226
-0.0154351
-0.03134
-0.0464189
-0.0605537
0.542175
0.57691
0.607381
0.640102
0.677666
0.716035
0.752479
0.785048
0.812072
0.836754