/*--------------------------------*- C++ -*----------------------------------*\
  =========                 |
  \\      /  F ield         | OpenFOAM: The Open Source CFD Toolbox
   \\    /   O peration     | Website:  https://openfoam.org
    \\  /    A nd           | Version:  9
     \\/     M anipulation  |
\*---------------------------------------------------------------------------*/
FoamFile
{
    format      ascii;
    class       surfaceScalarField;
    location    "0.13";
    object      phi;
}
// * * * * * * * * * * * * * * * * * * * * * * * * * * * * * * * * * * * * * //

dimensions      [0 3 -1 0 0 0 0];

internalField   nonuniform List<scalar> 
9850
(
-2.05357e-06
1.902e-05
-1.91492e-06
1.65502e-05
-2.19041e-06
6.73767e-06
-2.06547e-06
1.65489e-05
-2.06366e-06
1.84174e-05
-2.05813e-06
1.77121e-05
-2.05042e-06
1.73405e-05
-2.04344e-06
1.71831e-05
-2.03632e-06
1.71883e-05
-2.02845e-06
1.737e-05
-2.01881e-06
1.77197e-05
-2.00547e-06
1.82335e-05
-1.98907e-06
1.89582e-05
-1.99257e-06
2.01036e-05
-1.82079e-06
1.97525e-05
-1.98349e-06
5.21685e-06
-2.31084e-06
4.82279e-06
-2.10853e-06
1.96805e-05
-2.09747e-06
2.01507e-05
-2.08011e-06
1.91117e-05
-2.06937e-06
1.51544e-05
-2.06522e-06
1.41914e-05
-2.0755e-06
1.34079e-05
-2.09247e-06
1.25976e-05
-2.04613e-06
1.06535e-05
-2.05521e-06
7.82962e-06
-2.02856e-06
9.58823e-06
-2.04392e-06
1.00375e-05
-2.05579e-06
9.49653e-06
-2.05919e-06
8.86902e-06
-2.05957e-06
8.29764e-06
-2.05904e-06
7.76963e-06
-2.05812e-06
7.27529e-06
-2.05689e-06
6.80945e-06
-2.05528e-06
6.36827e-06
-2.05329e-06
5.94997e-06
-2.05106e-06
5.55612e-06
-2.04894e-06
5.19157e-06
-2.04727e-06
4.86212e-06
-2.04619e-06
4.57109e-06
-2.04562e-06
4.31698e-06
-2.04536e-06
4.09409e-06
-2.04524e-06
3.89501e-06
-2.04518e-06
3.71302e-06
-2.04512e-06
3.54328e-06
-2.04508e-06
3.38285e-06
-2.04505e-06
3.23014e-06
-2.04505e-06
3.0844e-06
-2.04508e-06
2.94532e-06
2.81291e-06
-2.00904e-06
1.89833e-05
-1.82568e-06
1.63668e-05
-2.30729e-06
7.21928e-06
-2.13125e-06
1.63729e-05
-2.09615e-06
1.83823e-05
-2.07917e-06
1.76951e-05
-2.06029e-06
1.73216e-05
-2.04046e-06
1.71632e-05
-2.02038e-06
1.71682e-05
-1.99811e-06
1.73477e-05
-1.97085e-06
1.76924e-05
-1.93547e-06
1.81982e-05
-1.89452e-06
1.89172e-05
-1.84004e-06
2.00491e-05
-1.58792e-06
1.95004e-05
-1.96096e-06
5.5899e-06
-2.54807e-06
5.4099e-06
-2.24654e-06
1.93789e-05
-2.18891e-06
2.0093e-05
-2.14688e-06
1.90697e-05
-2.12147e-06
1.5129e-05
-2.11249e-06
1.41824e-05
-2.12746e-06
1.34228e-05
-2.13169e-06
1.26018e-05
-2.05362e-06
1.05754e-05
-2.09702e-06
7.87303e-06
-2.04913e-06
9.54033e-06
-2.05291e-06
1.00413e-05
-2.07169e-06
9.51531e-06
-2.08047e-06
8.8778e-06
-2.08274e-06
8.29991e-06
-2.08216e-06
7.76905e-06
-2.0801e-06
7.27323e-06
-2.07701e-06
6.80635e-06
-2.07301e-06
6.36427e-06
-2.06834e-06
5.94529e-06
-2.06345e-06
5.55123e-06
-2.05898e-06
5.18709e-06
-2.05543e-06
4.85857e-06
-2.05296e-06
4.56863e-06
-2.05139e-06
4.31541e-06
-2.05039e-06
4.09309e-06
-2.0497e-06
3.89432e-06
-2.04919e-06
3.71251e-06
-2.04879e-06
3.54288e-06
-2.04849e-06
3.38254e-06
-2.04828e-06
3.22993e-06
-2.04817e-06
3.08429e-06
-2.04815e-06
2.9453e-06
2.81294e-06
-1.97131e-06
1.89077e-05
-1.79515e-06
1.61906e-05
-2.36199e-06
7.78613e-06
-2.18549e-06
1.61964e-05
-2.12489e-06
1.83217e-05
-2.09781e-06
1.7668e-05
-2.06828e-06
1.7292e-05
-2.03687e-06
1.71318e-05
-2.00508e-06
1.71364e-05
-1.96982e-06
1.73125e-05
-1.92721e-06
1.76498e-05
-1.87288e-06
1.81438e-05
-1.80656e-06
1.88509e-05
-1.70481e-06
1.99473e-05
-1.46548e-06
1.92611e-05
-1.97288e-06
6.0973e-06
-2.6477e-06
6.08472e-06
-2.34944e-06
1.90807e-05
-2.2655e-06
2.00091e-05
-2.20604e-06
1.90103e-05
-2.16933e-06
1.50923e-05
-2.15358e-06
1.41667e-05
-2.16138e-06
1.34306e-05
-2.15109e-06
1.25915e-05
-2.07072e-06
1.0495e-05
-2.12592e-06
7.92823e-06
-2.07098e-06
9.48539e-06
-2.07306e-06
1.00433e-05
-2.09225e-06
9.53451e-06
-2.10152e-06
8.88707e-06
-2.10373e-06
8.30212e-06
-2.10254e-06
7.76786e-06
-2.09938e-06
7.27008e-06
-2.09479e-06
6.80175e-06
-2.08902e-06
6.35851e-06
-2.08247e-06
5.93874e-06
-2.07577e-06
5.54453e-06
-2.06968e-06
5.181e-06
-2.06478e-06
4.85367e-06
-2.06119e-06
4.56504e-06
-2.05871e-06
4.31292e-06
-2.05697e-06
4.09136e-06
-2.05569e-06
3.89304e-06
-2.0547e-06
3.71151e-06
-2.05391e-06
3.5421e-06
-2.05332e-06
3.38195e-06
-2.0529e-06
3.22951e-06
-2.05264e-06
3.08403e-06
-2.05251e-06
2.94517e-06
2.81291e-06
-1.95465e-06
1.88061e-05
-1.79049e-06
1.60265e-05
-2.37517e-06
8.37081e-06
-2.22825e-06
1.60494e-05
-2.14924e-06
1.82427e-05
-2.11234e-06
1.76311e-05
-2.07365e-06
1.72534e-05
-2.03243e-06
1.70906e-05
-1.99066e-06
1.70947e-05
-1.94443e-06
1.72662e-05
-1.88964e-06
1.7595e-05
-1.8214e-06
1.80756e-05
-1.73759e-06
1.87671e-05
-1.61394e-06
1.98237e-05
-1.40209e-06
1.90492e-05
-1.98246e-06
6.67766e-06
-2.6768e-06
6.77906e-06
-2.42615e-06
1.883e-05
-2.32354e-06
1.99065e-05
-2.25242e-06
1.89391e-05
-2.20746e-06
1.50473e-05
-2.1859e-06
1.41451e-05
-2.18817e-06
1.34329e-05
-2.16663e-06
1.257e-05
-2.0849e-06
1.04133e-05
-2.1453e-06
7.98864e-06
-2.10205e-06
9.44214e-06
-2.10123e-06
1.00425e-05
-2.11751e-06
9.55079e-06
-2.12509e-06
8.89465e-06
-2.12563e-06
8.30266e-06
-2.1228e-06
7.76503e-06
-2.11801e-06
7.26528e-06
-2.1117e-06
6.79544e-06
-2.10414e-06
6.35095e-06
-2.09577e-06
5.93037e-06
-2.08732e-06
5.53609e-06
-2.07969e-06
5.17337e-06
-2.0735e-06
4.84747e-06
-2.06891e-06
4.56044e-06
-2.06566e-06
4.30968e-06
-2.06336e-06
4.08906e-06
-2.06166e-06
3.89134e-06
-2.06036e-06
3.7102e-06
-2.05934e-06
3.54108e-06
-2.05858e-06
3.38119e-06
-2.05805e-06
3.22898e-06
-2.05772e-06
3.0837e-06
-2.05755e-06
2.945e-06
2.81286e-06
-1.96013e-06
1.86918e-05
-1.80904e-06
1.58754e-05
-2.3671e-06
8.92887e-06
-2.25503e-06
1.59374e-05
-2.16595e-06
1.81536e-05
-2.12232e-06
1.75875e-05
-2.07635e-06
1.72074e-05
-2.02751e-06
1.70418e-05
-1.97775e-06
1.70449e-05
-1.92288e-06
1.72114e-05
-1.85931e-06
1.75315e-05
-1.7825e-06
1.79988e-05
-1.69124e-06
1.86758e-05
-1.56374e-06
1.96962e-05
-1.38442e-06
1.88699e-05
-1.99059e-06
7.28383e-06
-2.66921e-06
7.45769e-06
-2.4764e-06
1.86372e-05
-2.36372e-06
1.97938e-05
-2.28622e-06
1.88616e-05
-2.23613e-06
1.49972e-05
-2.21074e-06
1.41197e-05
-2.20802e-06
1.34302e-05
-2.17391e-06
1.25359e-05
-2.09442e-06
1.03338e-05
-2.16746e-06
8.06167e-06
-2.1398e-06
9.41448e-06
-2.13422e-06
1.00369e-05
-2.14486e-06
9.56143e-06
-2.14925e-06
8.89904e-06
-2.14735e-06
8.30076e-06
-2.14237e-06
7.76005e-06
-2.1356e-06
7.25851e-06
-2.1274e-06
6.78724e-06
-2.118e-06
6.34154e-06
-2.10788e-06
5.92025e-06
-2.09788e-06
5.52608e-06
-2.08892e-06
5.16441e-06
-2.08166e-06
4.84021e-06
-2.07624e-06
4.55502e-06
-2.07236e-06
4.3058e-06
-2.0696e-06
4.08629e-06
-2.06756e-06
3.8893e-06
-2.06601e-06
3.70865e-06
-2.06482e-06
3.5399e-06
-2.06394e-06
3.3803e-06
-2.06333e-06
3.22837e-06
-2.06296e-06
3.08333e-06
-2.06277e-06
2.94481e-06
2.81281e-06
-1.97821e-06
1.85763e-05
-1.84248e-06
1.57396e-05
-2.35225e-06
9.43865e-06
-2.26644e-06
1.58516e-05
-2.17511e-06
1.80623e-05
-2.12776e-06
1.75402e-05
-2.07667e-06
1.71563e-05
-2.02247e-06
1.69876e-05
-1.96681e-06
1.69892e-05
-1.9057e-06
1.71503e-05
-1.83644e-06
1.74622e-05
-1.75497e-06
1.79173e-05
-1.66323e-06
1.85841e-05
-1.54099e-06
1.95739e-05
-1.39501e-06
1.87239e-05
-1.99891e-06
7.88773e-06
-2.64523e-06
8.104e-06
-2.50065e-06
1.84926e-05
-2.38799e-06
1.96811e-05
-2.30898e-06
1.87826e-05
-2.25615e-06
1.49444e-05
-2.22773e-06
1.40913e-05
-2.21881e-06
1.34213e-05
-2.17315e-06
1.24902e-05
-2.10277e-06
1.02634e-05
-2.19289e-06
8.15179e-06
-2.18001e-06
9.40161e-06
-2.16869e-06
1.00256e-05
-2.17222e-06
9.56496e-06
-2.17231e-06
8.89912e-06
-2.16744e-06
8.29589e-06
-2.16011e-06
7.75272e-06
-2.1513e-06
7.24971e-06
-2.14125e-06
6.77719e-06
-2.13017e-06
6.33046e-06
-2.11857e-06
5.90865e-06
-2.10731e-06
5.51483e-06
-2.09734e-06
5.15444e-06
-2.08929e-06
4.83215e-06
-2.08322e-06
4.54896e-06
-2.07884e-06
4.30142e-06
-2.07567e-06
4.08312e-06
-2.07332e-06
3.88696e-06
-2.07154e-06
3.70687e-06
-2.07018e-06
3.53854e-06
-2.06918e-06
3.3793e-06
-2.06849e-06
3.22768e-06
-2.06806e-06
3.0829e-06
-2.06784e-06
2.9446e-06
2.81275e-06
-1.99915e-06
1.84618e-05
-1.88037e-06
1.56209e-05
-2.33724e-06
9.89551e-06
-2.2685e-06
1.57828e-05
-2.17883e-06
1.79726e-05
-2.12924e-06
1.74906e-05
-2.07507e-06
1.71021e-05
-2.01748e-06
1.693e-05
-1.95792e-06
1.69297e-05
-1.89272e-06
1.70851e-05
-1.82034e-06
1.73898e-05
-1.73693e-06
1.78339e-05
-1.64757e-06
1.84947e-05
-1.5331e-06
1.94595e-05
-1.41694e-06
1.86078e-05
-2.00473e-06
8.47552e-06
-2.6143e-06
8.71357e-06
-2.506e-06
1.83843e-05
-2.39947e-06
1.95746e-05
-2.32203e-06
1.87052e-05
-2.26817e-06
1.48906e-05
-2.23699e-06
1.40601e-05
-2.2209e-06
1.34052e-05
-2.16696e-06
1.24363e-05
-2.11193e-06
1.02084e-05
-2.21818e-06
8.25805e-06
-2.21828e-06
9.4017e-06
-2.20156e-06
1.00089e-05
-2.19774e-06
9.56113e-06
-2.19311e-06
8.89449e-06
-2.18511e-06
8.28789e-06
-2.1754e-06
7.74301e-06
-2.16463e-06
7.23894e-06
-2.15291e-06
6.76546e-06
-2.14038e-06
6.31793e-06
-2.12758e-06
5.89584e-06
-2.11537e-06
5.50262e-06
-2.10467e-06
5.14375e-06
-2.09604e-06
4.82352e-06
-2.0895e-06
4.54242e-06
-2.08471e-06
4.29663e-06
-2.08121e-06
4.07962e-06
-2.07859e-06
3.88434e-06
-2.0766e-06
3.70488e-06
-2.07509e-06
3.53702e-06
-2.07397e-06
3.37819e-06
-2.0732e-06
3.22691e-06
-2.07272e-06
3.08242e-06
-2.07247e-06
2.94435e-06
2.81268e-06
-2.01605e-06
1.83486e-05
-1.91512e-06
1.55199e-05
-2.32403e-06
1.03044e-05
-2.26656e-06
1.57254e-05
-2.17894e-06
1.7885e-05
-2.12745e-06
1.74391e-05
-2.07193e-06
1.70466e-05
-2.01262e-06
1.68707e-05
-1.95096e-06
1.6868e-05
-1.88357e-06
1.70177e-05
-1.81004e-06
1.73163e-05
-1.72675e-06
1.77506e-05
-1.63945e-06
1.84074e-05
-1.53214e-06
1.93522e-05
-1.44004e-06
1.85157e-05
-2.00433e-06
9.03981e-06
-2.57989e-06
9.28913e-06
-2.4998e-06
1.83043e-05
-2.40151e-06
1.94763e-05
-2.32672e-06
1.86304e-05
-2.27315e-06
1.4837e-05
-2.23955e-06
1.40265e-05
-2.21611e-06
1.33817e-05
-2.15764e-06
1.23778e-05
-2.1215e-06
1.01723e-05
-2.24051e-06
8.37706e-06
-2.25115e-06
9.41234e-06
-2.22999e-06
9.98775e-06
-2.21947e-06
9.55061e-06
-2.21047e-06
8.8855e-06
-2.19963e-06
8.27704e-06
-2.18778e-06
7.73116e-06
-2.17529e-06
7.22646e-06
-2.16213e-06
6.75231e-06
-2.14842e-06
6.30422e-06
-2.13469e-06
5.88211e-06
-2.12179e-06
5.48972e-06
-2.11059e-06
5.13254e-06
-2.10157e-06
4.81449e-06
-2.0947e-06
4.53555e-06
-2.08962e-06
4.29155e-06
-2.08586e-06
4.07586e-06
-2.08303e-06
3.88151e-06
-2.08087e-06
3.70271e-06
-2.07922e-06
3.53538e-06
-2.078e-06
3.37697e-06
-2.07716e-06
3.22606e-06
-2.07663e-06
3.08189e-06
-2.07635e-06
2.94407e-06
2.8126e-06
-2.02547e-06
1.82354e-05
-1.94264e-06
1.54371e-05
-2.31216e-06
1.06739e-05
-2.26305e-06
1.56762e-05
-2.17606e-06
1.7798e-05
-2.12287e-06
1.73859e-05
-2.06739e-06
1.69911e-05
-2.00788e-06
1.68112e-05
-1.9457e-06
1.68058e-05
-1.87783e-06
1.69498e-05
-1.80466e-06
1.72431e-05
-1.72314e-06
1.76691e-05
-1.63645e-06
1.83208e-05
-1.53475e-06
1.92505e-05
-1.46036e-06
1.84413e-05
-1.99567e-06
9.57512e-06
-2.54267e-06
9.83613e-06
-2.48662e-06
1.82482e-05
-2.39646e-06
1.93862e-05
-2.32462e-06
1.85586e-05
-2.2724e-06
1.47848e-05
-2.23686e-06
1.3991e-05
-2.20662e-06
1.33515e-05
-2.14678e-06
1.2318e-05
-2.12997e-06
1.01554e-05
-2.25745e-06
8.50454e-06
-2.27626e-06
9.43114e-06
-2.25188e-06
9.96337e-06
-2.23588e-06
9.53461e-06
-2.22335e-06
8.87297e-06
-2.21028e-06
8.26397e-06
-2.19677e-06
7.71765e-06
-2.18294e-06
7.21262e-06
-2.16867e-06
6.73804e-06
-2.15408e-06
6.28963e-06
-2.13969e-06
5.86772e-06
-2.12635e-06
5.47638e-06
-2.11485e-06
5.12104e-06
-2.1056e-06
4.80524e-06
-2.09853e-06
4.52848e-06
-2.09327e-06
4.28628e-06
-2.08933e-06
4.07193e-06
-2.08635e-06
3.87853e-06
-2.08407e-06
3.70043e-06
-2.08232e-06
3.53363e-06
-2.08103e-06
3.37568e-06
-2.08014e-06
3.22517e-06
-2.07957e-06
3.08132e-06
-2.07927e-06
2.94376e-06
2.81251e-06
-2.03003e-06
1.81216e-05
-1.96241e-06
1.53695e-05
-2.29993e-06
1.10115e-05
-2.2577e-06
1.5634e-05
-2.17001e-06
1.77103e-05
-2.11574e-06
1.73316e-05
-2.06141e-06
1.69368e-05
-2.00318e-06
1.67529e-05
-1.94186e-06
1.67445e-05
-1.87501e-06
1.6883e-05
-1.80345e-06
1.71715e-05
-1.72508e-06
1.75907e-05
-1.63854e-06
1.82342e-05
-1.54122e-06
1.91531e-05
-1.47857e-06
1.83786e-05
-1.98102e-06
1.00776e-05
-2.50352e-06
1.03586e-05
-2.46893e-06
1.82136e-05
-2.38585e-06
1.93031e-05
-2.31739e-06
1.84901e-05
-2.26728e-06
1.47347e-05
-2.2305e-06
1.39542e-05
-2.19475e-06
1.33157e-05
-2.13587e-06
1.22591e-05
-2.13602e-06
1.01556e-05
-2.26737e-06
8.6359e-06
-2.29228e-06
9.45606e-06
-2.26617e-06
9.93725e-06
-2.24621e-06
9.51465e-06
-2.23118e-06
8.85794e-06
-2.21664e-06
8.24944e-06
-2.20205e-06
7.70306e-06
-2.18733e-06
7.19791e-06
-2.17235e-06
6.72306e-06
-2.1572e-06
6.27448e-06
-2.14243e-06
5.85295e-06
-2.12887e-06
5.46282e-06
-2.11726e-06
5.10943e-06
-2.10793e-06
4.79592e-06
-2.10079e-06
4.52134e-06
-2.09544e-06
4.28093e-06
-2.09142e-06
4.06791e-06
-2.08836e-06
3.87547e-06
-2.086e-06
3.69807e-06
-2.08421e-06
3.53183e-06
-2.08288e-06
3.37435e-06
-2.08195e-06
3.22424e-06
-2.08136e-06
3.08073e-06
-2.08104e-06
2.94344e-06
2.81241e-06
-2.03166e-06
1.8006e-05
-1.97616e-06
1.5314e-05
-2.28539e-06
1.13207e-05
-2.24876e-06
1.55974e-05
-2.16024e-06
1.76218e-05
-2.10616e-06
1.72775e-05
-2.0538e-06
1.68844e-05
-1.99844e-06
1.66976e-05
-1.93911e-06
1.66852e-05
-1.87462e-06
1.68185e-05
-1.80582e-06
1.71027e-05
-1.73186e-06
1.75168e-05
-1.64698e-06
1.81493e-05
-1.55415e-06
1.90603e-05
-1.49844e-06
1.83229e-05
-1.96649e-06
1.05456e-05
-2.46484e-06
1.0857e-05
-2.44846e-06
1.81972e-05
-2.37123e-06
1.92258e-05
-2.30653e-06
1.84254e-05
-2.25907e-06
1.46872e-05
-2.22199e-06
1.39171e-05
-2.18261e-06
1.32764e-05
-2.12621e-06
1.22027e-05
-2.13925e-06
1.01686e-05
-2.27e-06
8.76664e-06
-2.29915e-06
9.48521e-06
-2.27276e-06
9.91086e-06
-2.25042e-06
9.49231e-06
-2.23392e-06
8.84144e-06
-2.21866e-06
8.23417e-06
-2.20357e-06
7.68797e-06
-2.18844e-06
7.18278e-06
-2.17312e-06
6.70774e-06
-2.15774e-06
6.2591e-06
-2.14285e-06
5.83807e-06
-2.12929e-06
5.44925e-06
-2.11772e-06
5.09787e-06
-2.10846e-06
4.78666e-06
-2.10136e-06
4.51424e-06
-2.09602e-06
4.27559e-06
-2.09199e-06
4.06388e-06
-2.08891e-06
3.87239e-06
-2.08653e-06
3.69569e-06
-2.08471e-06
3.53002e-06
-2.08337e-06
3.37301e-06
-2.08243e-06
3.2233e-06
-2.08182e-06
3.08012e-06
-2.08149e-06
2.94311e-06
2.81231e-06
-2.03504e-06
1.78893e-05
-1.98705e-06
1.5266e-05
-2.26725e-06
1.16009e-05
-2.23439e-06
1.55645e-05
-2.14639e-06
1.75338e-05
-2.09423e-06
1.72254e-05
-2.04415e-06
1.68343e-05
-1.99355e-06
1.6647e-05
-1.93716e-06
1.66288e-05
-1.87615e-06
1.67574e-05
-1.8112e-06
1.70378e-05
-1.74281e-06
1.74484e-05
-1.66289e-06
1.80694e-05
-1.57627e-06
1.89737e-05
-1.52449e-06
1.82711e-05
-1.95907e-06
1.09802e-05
-2.42979e-06
1.13277e-05
-2.42683e-06
1.81943e-05
-2.35429e-06
1.91533e-05
-2.29334e-06
1.83645e-05
-2.24883e-06
1.46427e-05
-2.21248e-06
1.38808e-05
-2.1715e-06
1.32354e-05
-2.11849e-06
1.21497e-05
-2.14e-06
1.01901e-05
-2.26626e-06
8.89291e-06
-2.2978e-06
9.51675e-06
-2.27227e-06
9.88533e-06
-2.24894e-06
9.46898e-06
-2.23192e-06
8.82441e-06
-2.21657e-06
8.21883e-06
-2.2015e-06
7.6729e-06
-2.18638e-06
7.16766e-06
-2.17107e-06
6.69243e-06
-2.15575e-06
6.24377e-06
-2.14099e-06
5.82331e-06
-2.12761e-06
5.43587e-06
-2.11626e-06
5.08651e-06
-2.10718e-06
4.77758e-06
-2.10021e-06
4.50727e-06
-2.09494e-06
4.27033e-06
-2.09096e-06
4.05989e-06
-2.0879e-06
3.86933e-06
-2.08553e-06
3.69333e-06
-2.08372e-06
3.52821e-06
-2.08238e-06
3.37166e-06
-2.08143e-06
3.22235e-06
-2.08082e-06
3.07951e-06
-2.08048e-06
2.94277e-06
2.8122e-06
-2.04299e-06
1.7773e-05
-1.99761e-06
1.52206e-05
-2.24551e-06
1.18488e-05
-2.21388e-06
1.55329e-05
-2.12863e-06
1.74485e-05
-2.08052e-06
1.71773e-05
-2.03611e-06
1.67899e-05
-1.98879e-06
1.65997e-05
-1.93593e-06
1.65759e-05
-1.87916e-06
1.67007e-05
-1.81901e-06
1.69776e-05
-1.75718e-06
1.73866e-05
-1.68605e-06
1.79983e-05
-1.60827e-06
1.88959e-05
-1.55954e-06
1.82224e-05
-1.96297e-06
1.13836e-05
-2.40064e-06
1.17654e-05
-2.40516e-06
1.81988e-05
-2.3364e-06
1.90845e-05
-2.27873e-06
1.83068e-05
-2.23727e-06
1.46012e-05
-2.20249e-06
1.3846e-05
-2.16166e-06
1.31945e-05
-2.11252e-06
1.21005e-05
-2.13877e-06
1.02164e-05
-2.2576e-06
9.01174e-06
-2.28965e-06
9.5488e-06
-2.26564e-06
9.86132e-06
-2.24242e-06
9.44576e-06
-2.22562e-06
8.80762e-06
-2.21073e-06
8.20393e-06
-2.19609e-06
7.65826e-06
-2.18134e-06
7.15291e-06
-2.16634e-06
6.67744e-06
-2.15133e-06
6.22876e-06
-2.13691e-06
5.8089e-06
-2.1239e-06
5.42285e-06
-2.11289e-06
5.0755e-06
-2.10409e-06
4.76878e-06
-2.09732e-06
4.5005e-06
-2.09219e-06
4.2652e-06
-2.08828e-06
4.05598e-06
-2.08527e-06
3.86631e-06
-2.08293e-06
3.69099e-06
-2.08113e-06
3.52641e-06
-2.07978e-06
3.37032e-06
-2.07883e-06
3.22139e-06
-2.0782e-06
3.07888e-06
-2.07784e-06
2.94242e-06
2.81209e-06
-2.0591e-06
1.76624e-05
-2.0091e-06
1.51706e-05
-2.22141e-06
1.20611e-05
-2.18795e-06
1.54994e-05
-2.10746e-06
1.7368e-05
-2.06537e-06
1.71352e-05
-2.0266e-06
1.67512e-05
-1.98385e-06
1.65569e-05
-1.93527e-06
1.65274e-05
-1.88321e-06
1.66486e-05
-1.82855e-06
1.6923e-05
-1.77395e-06
1.7332e-05
-1.71451e-06
1.79389e-05
-1.64791e-06
1.88293e-05
-1.60341e-06
1.81779e-05
-1.97853e-06
1.17588e-05
-2.37759e-06
1.21644e-05
-2.38355e-06
1.82047e-05
-2.31805e-06
1.9019e-05
-2.26314e-06
1.82519e-05
-2.22468e-06
1.45628e-05
-2.19198e-06
1.38133e-05
-2.15247e-06
1.3155e-05
-2.10743e-06
1.20555e-05
-2.13584e-06
1.02448e-05
-2.24536e-06
9.12126e-06
-2.27616e-06
9.57961e-06
-2.25385e-06
9.839e-06
-2.23151e-06
9.42342e-06
-2.21552e-06
8.79162e-06
-2.20148e-06
8.18989e-06
-2.18759e-06
7.64438e-06
-2.17348e-06
7.13879e-06
-2.15904e-06
6.663e-06
-2.14456e-06
6.21428e-06
-2.13068e-06
5.79502e-06
-2.11818e-06
5.41035e-06
-2.10762e-06
5.06495e-06
-2.09919e-06
4.76035e-06
-2.09268e-06
4.49399e-06
-2.08771e-06
4.26024e-06
-2.0839e-06
4.05217e-06
-2.08094e-06
3.86335e-06
-2.07862e-06
3.68867e-06
-2.07683e-06
3.52461e-06
-2.07547e-06
3.36896e-06
-2.0745e-06
3.22042e-06
-2.07384e-06
3.07823e-06
-2.07347e-06
2.94204e-06
2.81197e-06
-2.07606e-06
1.75578e-05
-2.02087e-06
1.51154e-05
-2.1965e-06
1.22367e-05
-2.1585e-06
1.54614e-05
-2.08377e-06
1.72933e-05
-2.0501e-06
1.71015e-05
-2.01647e-06
1.67175e-05
-1.97891e-06
1.65193e-05
-1.93497e-06
1.64834e-05
-1.88788e-06
1.66015e-05
-1.83905e-06
1.68741e-05
-1.79183e-06
1.72847e-05
-1.74507e-06
1.78921e-05
-1.69069e-06
1.87749e-05
-1.65284e-06
1.814e-05
-2.00242e-06
1.21083e-05
-2.3588e-06
1.25208e-05
-2.36093e-06
1.82069e-05
-2.29881e-06
1.89569e-05
-2.24652e-06
1.81996e-05
-2.21101e-06
1.45272e-05
-2.18059e-06
1.37829e-05
-2.14302e-06
1.31175e-05
-2.10214e-06
1.20146e-05
-2.13124e-06
1.02739e-05
-2.23053e-06
9.22055e-06
-2.2586e-06
9.60767e-06
-2.23776e-06
9.81816e-06
-2.21677e-06
9.40244e-06
-2.20198e-06
8.77683e-06
-2.18907e-06
8.17698e-06
-2.17619e-06
7.6315e-06
-2.16293e-06
7.12553e-06
-2.14926e-06
6.64933e-06
-2.13549e-06
6.20051e-06
-2.1223e-06
5.78183e-06
-2.11044e-06
5.39849e-06
-2.10044e-06
5.05495e-06
-2.09243e-06
4.75234e-06
-2.08621e-06
4.48778e-06
-2.08144e-06
4.25546e-06
-2.07773e-06
4.04847e-06
-2.07483e-06
3.86044e-06
-2.07253e-06
3.68638e-06
-2.07073e-06
3.52281e-06
-2.06936e-06
3.36759e-06
-2.06836e-06
3.21942e-06
-2.06767e-06
3.07754e-06
-2.06726e-06
2.94163e-06
2.81183e-06
-2.09265e-06
1.74605e-05
-2.03231e-06
1.50551e-05
-2.17227e-06
1.23767e-05
-2.12789e-06
1.54171e-05
-2.05833e-06
1.72238e-05
-2.0317e-06
1.70749e-05
-2.00607e-06
1.66919e-05
-1.97414e-06
1.64874e-05
-1.93495e-06
1.64442e-05
-1.89282e-06
1.65594e-05
-1.84976e-06
1.68311e-05
-1.80948e-06
1.72445e-05
-1.77428e-06
1.78569e-05
-1.7315e-06
1.87321e-05
-1.70276e-06
1.81113e-05
-2.02877e-06
1.24343e-05
-2.34108e-06
1.28331e-05
-2.33569e-06
1.82015e-05
-2.27765e-06
1.88989e-05
-2.22854e-06
1.81505e-05
-2.19604e-06
1.44948e-05
-2.16794e-06
1.37548e-05
-2.13256e-06
1.30821e-05
-2.09583e-06
1.19779e-05
-2.12482e-06
1.03029e-05
-2.21368e-06
9.30941e-06
-2.23786e-06
9.63185e-06
-2.21804e-06
9.79834e-06
-2.19859e-06
9.38299e-06
-2.18526e-06
8.7635e-06
-2.1737e-06
8.16542e-06
-2.16201e-06
7.61981e-06
-2.14979e-06
7.11331e-06
-2.13705e-06
6.63659e-06
-2.12416e-06
6.18762e-06
-2.1118e-06
5.76947e-06
-2.10069e-06
5.38738e-06
-2.09131e-06
5.04557e-06
-2.08378e-06
4.7448e-06
-2.07789e-06
4.48189e-06
-2.07331e-06
4.25088e-06
-2.06973e-06
4.04489e-06
-2.06687e-06
3.85759e-06
-2.06459e-06
3.6841e-06
-2.06279e-06
3.52101e-06
-2.06139e-06
3.36619e-06
-2.06035e-06
3.21837e-06
-2.05962e-06
3.07682e-06
-2.05918e-06
2.94119e-06
2.81168e-06
-2.10658e-06
1.7371e-05
-2.04354e-06
1.4992e-05
-2.1501e-06
1.24832e-05
-2.09865e-06
1.53656e-05
-2.03559e-06
1.71607e-05
-2.01509e-06
1.70544e-05
-1.9963e-06
1.66731e-05
-1.96971e-06
1.64608e-05
-1.93521e-06
1.64097e-05
-1.89779e-06
1.6522e-05
-1.86004e-06
1.67933e-05
-1.82575e-06
1.72102e-05
-1.79947e-06
1.78306e-05
-1.76622e-06
1.86989e-05
-1.74791e-06
1.8093e-05
-2.0506e-06
1.2737e-05
-2.32095e-06
1.31035e-05
-2.30635e-06
1.81869e-05
-2.25359e-06
1.88461e-05
-2.20881e-06
1.81057e-05
-2.17958e-06
1.44655e-05
-2.15385e-06
1.3729e-05
-2.12077e-06
1.3049e-05
-2.08805e-06
1.19452e-05
-2.11648e-06
1.03313e-05
-2.19501e-06
9.38794e-06
-2.21447e-06
9.65131e-06
-2.19514e-06
9.77901e-06
-2.17725e-06
9.3651e-06
-2.16554e-06
8.7518e-06
-2.15551e-06
8.15539e-06
-2.14517e-06
7.60948e-06
-2.13415e-06
7.10229e-06
-2.1225e-06
6.62494e-06
-2.11063e-06
6.17575e-06
-2.09921e-06
5.75805e-06
-2.08894e-06
5.37711e-06
-2.08024e-06
5.03688e-06
-2.07322e-06
4.73778e-06
-2.06769e-06
4.47636e-06
-2.06334e-06
4.24653e-06
-2.05987e-06
4.04142e-06
-2.05708e-06
3.8548e-06
-2.05482e-06
3.68183e-06
-2.053e-06
3.51919e-06
-2.05157e-06
3.36476e-06
-2.05048e-06
3.21729e-06
-2.04971e-06
3.07605e-06
-2.04924e-06
2.94072e-06
2.81152e-06
-2.11626e-06
1.72893e-05
-2.05063e-06
1.49264e-05
-2.13068e-06
1.25633e-05
-2.07228e-06
1.53072e-05
-2.0142e-06
1.71026e-05
-1.99971e-06
1.70399e-05
-1.98743e-06
1.66608e-05
-1.96584e-06
1.64392e-05
-1.93575e-06
1.63796e-05
-1.90261e-06
1.64888e-05
-1.86947e-06
1.67602e-05
-1.83991e-06
1.71806e-05
-1.81928e-06
1.781e-05
-1.79272e-06
1.86723e-05
-1.78445e-06
1.80847e-05
-2.06563e-06
1.30182e-05
-2.29592e-06
1.33338e-05
-2.27227e-06
1.81632e-05
-2.22607e-06
1.87999e-05
-2.18714e-06
1.80668e-05
-2.1616e-06
1.444e-05
-2.13841e-06
1.37059e-05
-2.10774e-06
1.30183e-05
-2.0788e-06
1.19162e-05
-2.10616e-06
1.03587e-05
-2.1745e-06
9.45628e-06
-2.18867e-06
9.66548e-06
-2.16932e-06
9.75967e-06
-2.15294e-06
9.34872e-06
-2.14298e-06
8.74184e-06
-2.13463e-06
8.14703e-06
-2.12581e-06
7.60066e-06
-2.11614e-06
7.09262e-06
-2.10573e-06
6.61452e-06
-2.095e-06
6.16502e-06
-2.08462e-06
5.74768e-06
-2.07526e-06
5.36775e-06
-2.06731e-06
5.02893e-06
-2.06084e-06
4.73131e-06
-2.05568e-06
4.4712e-06
-2.05157e-06
4.24242e-06
-2.04824e-06
4.03809e-06
-2.04551e-06
3.85207e-06
-2.04327e-06
3.67959e-06
-2.04144e-06
3.51736e-06
-2.03997e-06
3.3633e-06
-2.03885e-06
3.21616e-06
-2.03803e-06
3.07523e-06
-2.03752e-06
2.9402e-06
2.81133e-06
-2.12204e-06
1.72156e-05
-2.05623e-06
1.48606e-05
-2.11483e-06
1.26219e-05
-2.05e-06
1.52424e-05
-1.99423e-06
1.70468e-05
-1.98561e-06
1.70313e-05
-1.9794e-06
1.66546e-05
-1.96257e-06
1.64224e-05
-1.93655e-06
1.63536e-05
-1.90722e-06
1.64595e-05
-1.8779e-06
1.67309e-05
-1.85175e-06
1.71544e-05
-1.83372e-06
1.7792e-05
-1.81083e-06
1.86494e-05
-1.80975e-06
1.80836e-05
-2.06692e-06
1.32754e-05
-2.26425e-06
1.35311e-05
-2.23369e-06
1.81327e-05
-2.19523e-06
1.87615e-05
-2.16362e-06
1.80352e-05
-2.14225e-06
1.44186e-05
-2.12188e-06
1.36855e-05
-2.09376e-06
1.29902e-05
-2.06826e-06
1.18907e-05
-2.09387e-06
1.03843e-05
-2.15207e-06
9.51448e-06
-2.16058e-06
9.67399e-06
-2.14084e-06
9.73993e-06
-2.12589e-06
9.33376e-06
-2.1178e-06
8.73376e-06
-2.11129e-06
8.14052e-06
-2.10415e-06
7.59352e-06
-2.09598e-06
7.08445e-06
-2.08692e-06
6.60546e-06
-2.07744e-06
6.15555e-06
-2.0682e-06
5.73844e-06
-2.05981e-06
5.35936e-06
-2.05264e-06
5.02175e-06
-2.04675e-06
4.72542e-06
-2.04199e-06
4.46644e-06
-2.03813e-06
4.23855e-06
-2.03495e-06
4.03491e-06
-2.0323e-06
3.84942e-06
-2.03008e-06
3.67737e-06
-2.02824e-06
3.51552e-06
-2.02675e-06
3.36181e-06
-2.02559e-06
3.215e-06
-2.02473e-06
3.07437e-06
-2.02419e-06
2.93966e-06
2.81114e-06
-2.12508e-06
1.71507e-05
-2.06181e-06
1.47973e-05
-2.10267e-06
1.26628e-05
-2.02821e-06
1.51679e-05
-1.97588e-06
1.69945e-05
-1.97288e-06
1.70283e-05
-1.97229e-06
1.6654e-05
-1.95994e-06
1.64101e-05
-1.93764e-06
1.63313e-05
-1.91164e-06
1.64335e-05
-1.88541e-06
1.67046e-05
-1.86159e-06
1.71306e-05
-1.8439e-06
1.77743e-05
-1.82208e-06
1.86276e-05
-1.82386e-06
1.80854e-05
-2.05467e-06
1.35062e-05
-2.2263e-06
1.37027e-05
-2.1919e-06
1.80983e-05
-2.16187e-06
1.87314e-05
-2.13862e-06
1.80119e-05
-2.12188e-06
1.44019e-05
-2.1046e-06
1.36682e-05
-2.07918e-06
1.29648e-05
-2.05667e-06
1.18682e-05
-2.07972e-06
1.04073e-05
-2.12779e-06
9.56255e-06
-2.13047e-06
9.67667e-06
-2.11007e-06
9.71953e-06
-2.09649e-06
9.32018e-06
-2.09035e-06
8.72762e-06
-2.08582e-06
8.136e-06
-2.0805e-06
7.5882e-06
-2.07395e-06
7.0779e-06
-2.06637e-06
6.59788e-06
-2.05822e-06
6.1474e-06
-2.05017e-06
5.73039e-06
-2.04279e-06
5.35198e-06
-2.03643e-06
5.01539e-06
-2.03114e-06
4.72013e-06
-2.0268e-06
4.4621e-06
-2.0232e-06
4.23496e-06
-2.02018e-06
4.03189e-06
-2.01761e-06
3.84685e-06
-2.01542e-06
3.67519e-06
-2.01358e-06
3.51368e-06
-2.01207e-06
3.36029e-06
-2.01087e-06
3.2138e-06
-2.00997e-06
3.07348e-06
-2.0094e-06
2.93908e-06
2.81093e-06
-2.12668e-06
1.70956e-05
-2.06837e-06
1.4739e-05
-2.09465e-06
1.26891e-05
-2.01091e-06
1.50842e-05
-1.9596e-06
1.69432e-05
-1.96146e-06
1.70301e-05
-1.96622e-06
1.66588e-05
-1.95804e-06
1.64019e-05
-1.93909e-06
1.63124e-05
-1.91599e-06
1.64104e-05
-1.89229e-06
1.66809e-05
-1.87007e-06
1.71084e-05
-1.85161e-06
1.77558e-05
-1.82915e-06
1.86052e-05
-1.82925e-06
1.80855e-05
-2.03598e-06
1.37129e-05
-2.18439e-06
1.38512e-05
-2.14909e-06
1.8063e-05
-2.12733e-06
1.87097e-05
-2.11276e-06
1.79974e-05
-2.10088e-06
1.439e-05
-2.08688e-06
1.36542e-05
-2.06423e-06
1.29421e-05
-2.04435e-06
1.18484e-05
-2.06385e-06
1.04268e-05
-2.10196e-06
9.60066e-06
-2.09883e-06
9.67354e-06
-2.07758e-06
9.69827e-06
-2.06527e-06
9.30788e-06
-2.06113e-06
8.72348e-06
-2.05871e-06
8.13359e-06
-2.0553e-06
7.58478e-06
-2.05045e-06
7.07306e-06
-2.0444e-06
6.59182e-06
-2.03763e-06
6.14064e-06
-2.0308e-06
5.72356e-06
-2.02445e-06
5.34563e-06
-2.0189e-06
5.00984e-06
-2.01422e-06
4.71545e-06
-2.01029e-06
4.45817e-06
-2.00697e-06
4.23163e-06
-2.00411e-06
4.02903e-06
-2.00163e-06
3.84437e-06
-1.99947e-06
3.67304e-06
-1.99763e-06
3.51184e-06
-1.99609e-06
3.35875e-06
-1.99485e-06
3.21255e-06
-1.99391e-06
3.07254e-06
-1.9933e-06
2.93847e-06
2.81071e-06
-2.12791e-06
1.70517e-05
-2.07709e-06
1.46882e-05
-2.09051e-06
1.27025e-05
-1.99644e-06
1.49901e-05
-1.94505e-06
1.68918e-05
-1.95137e-06
1.70365e-05
-1.96124e-06
1.66687e-05
-1.95692e-06
1.63975e-05
-1.94097e-06
1.62964e-05
-1.92043e-06
1.63899e-05
-1.89889e-06
1.66594e-05
-1.87799e-06
1.70875e-05
-1.85874e-06
1.77366e-05
-1.83495e-06
1.85814e-05
-1.82879e-06
1.80794e-05
-2.00913e-06
1.38933e-05
-2.14097e-06
1.3983e-05
-2.10778e-06
1.80298e-05
-2.0931e-06
1.8695e-05
-2.0868e-06
1.79911e-05
-2.07967e-06
1.43829e-05
-2.06892e-06
1.36435e-05
-2.04899e-06
1.29222e-05
-2.0309e-06
1.18303e-05
-2.04636e-06
1.04423e-05
-2.07503e-06
9.62934e-06
-2.06648e-06
9.66498e-06
-2.04416e-06
9.67596e-06
-2.03297e-06
9.29669e-06
-2.03078e-06
8.72129e-06
-2.03045e-06
8.13326e-06
-2.02899e-06
7.58332e-06
-2.02588e-06
7.06995e-06
-2.02138e-06
6.58731e-06
-2.016e-06
6.13526e-06
-2.01038e-06
5.71793e-06
-2.00504e-06
5.34029e-06
-2.00029e-06
5.00509e-06
-1.99619e-06
4.71135e-06
-1.99268e-06
4.45466e-06
-1.98962e-06
4.22858e-06
-1.98693e-06
4.02633e-06
-1.98453e-06
3.84197e-06
-1.98241e-06
3.67092e-06
-1.98057e-06
3.50999e-06
-1.979e-06
3.35718e-06
-1.97771e-06
3.21126e-06
-1.97671e-06
3.07154e-06
-1.97604e-06
2.9378e-06
2.81046e-06
-2.12918e-06
1.70207e-05
-2.08846e-06
1.46475e-05
-2.09e-06
1.2704e-05
-1.98446e-06
1.48846e-05
-1.93208e-06
1.68394e-05
-1.94264e-06
1.7047e-05
-1.95742e-06
1.66834e-05
-1.95664e-06
1.63968e-05
-1.94335e-06
1.62831e-05
-1.92507e-06
1.63716e-05
-1.90552e-06
1.66399e-05
-1.88606e-06
1.7068e-05
-1.86687e-06
1.77174e-05
-1.84196e-06
1.85565e-05
-1.82667e-06
1.80641e-05
-1.98082e-06
1.40474e-05
-2.09975e-06
1.41019e-05
-2.07053e-06
1.80006e-05
-2.06023e-06
1.86847e-05
-2.06158e-06
1.79924e-05
-2.05856e-06
1.43798e-05
-2.05085e-06
1.36358e-05
-2.03341e-06
1.29048e-05
-2.01691e-06
1.18138e-05
-2.02827e-06
1.04537e-05
-2.04744e-06
9.64851e-06
-2.03385e-06
9.65139e-06
-2.01062e-06
9.65273e-06
-2.00037e-06
9.28644e-06
-1.99996e-06
8.72088e-06
-2.00165e-06
8.13495e-06
-2.00208e-06
7.58376e-06
-2.00067e-06
7.06854e-06
-1.99767e-06
6.58431e-06
-1.99362e-06
6.13122e-06
-1.98916e-06
5.71347e-06
-1.98478e-06
5.33591e-06
-1.98079e-06
5.0011e-06
-1.97725e-06
4.70782e-06
-1.97413e-06
4.45154e-06
-1.97134e-06
4.22578e-06
-1.9688e-06
4.0238e-06
-1.96649e-06
3.83966e-06
-1.96441e-06
3.66883e-06
-1.96256e-06
3.50815e-06
-1.96096e-06
3.35558e-06
-1.95961e-06
3.20991e-06
-1.95853e-06
3.07047e-06
-1.95778e-06
2.93706e-06
2.81017e-06
-2.13001e-06
1.70041e-05
-2.10205e-06
1.46195e-05
-2.09288e-06
1.26948e-05
-1.97502e-06
1.47667e-05
-1.921e-06
1.67854e-05
-1.9355e-06
1.70615e-05
-1.95491e-06
1.67028e-05
-1.95729e-06
1.63991e-05
-1.94628e-06
1.62721e-05
-1.93e-06
1.63553e-05
-1.9124e-06
1.66223e-05
-1.89474e-06
1.70504e-05
-1.877e-06
1.76996e-05
-1.85182e-06
1.85313e-05
-1.82655e-06
1.80388e-05
-1.95623e-06
1.41771e-05
-2.06392e-06
1.42096e-05
-2.03792e-06
1.79746e-05
-2.03141e-06
1.86782e-05
-2.03746e-06
1.79985e-05
-2.03785e-06
1.43802e-05
-2.03277e-06
1.36307e-05
-2.01754e-06
1.28896e-05
-2.0021e-06
1.17983e-05
-2.00929e-06
1.04609e-05
-2.02064e-06
9.65986e-06
-2.00227e-06
9.63302e-06
-1.97788e-06
9.62834e-06
-1.9682e-06
9.27676e-06
-1.96929e-06
8.72196e-06
-1.9728e-06
8.13846e-06
-1.975e-06
7.58596e-06
-1.97518e-06
7.06871e-06
-1.97358e-06
6.58272e-06
-1.97077e-06
6.12841e-06
-1.96737e-06
5.71007e-06
-1.96388e-06
5.33242e-06
-1.96057e-06
4.9978e-06
-1.95756e-06
4.7048e-06
-1.9548e-06
4.44878e-06
-1.95224e-06
4.22323e-06
-1.94985e-06
4.02141e-06
-1.94762e-06
3.83744e-06
-1.94558e-06
3.66679e-06
-1.94373e-06
3.5063e-06
-1.9421e-06