/*--------------------------------*- C++ -*----------------------------------*\
  =========                 |
  \\      /  F ield         | OpenFOAM: The Open Source CFD Toolbox
   \\    /   O peration     | Website:  https://openfoam.org
    \\  /    A nd           | Version:  9
     \\/     M anipulation  |
\*---------------------------------------------------------------------------*/
FoamFile
{
    format      ascii;
    class       volScalarField;
    location    "0.13";
    object      rAU;
}
// * * * * * * * * * * * * * * * * * * * * * * * * * * * * * * * * * * * * * //

dimensions      [-1 3 1 0 0 0 0];

internalField   nonuniform List<scalar> 
5000
(
1.05135e-05
1.10542e-05
1.49433e-05
1.1166e-05
1.06611e-05
1.08405e-05
1.09423e-05
1.09869e-05
1.09878e-05
1.09411e-05
1.08502e-05
1.07183e-05
1.05398e-05
1.02739e-05
1.02516e-05
1.54504e-05
1.61044e-05
1.03433e-05
1.02293e-05
1.04783e-05
1.05646e-05
1.06305e-05
1.0657e-05
1.0689e-05
1.1153e-05
1.23623e-05
1.12348e-05
1.07779e-05
1.07759e-05
1.08332e-05
1.08817e-05
1.09238e-05
1.09623e-05
1.09988e-05
1.10344e-05
1.10695e-05
1.11021e-05
1.11274e-05
1.11387e-05
1.113e-05
1.10984e-05
1.10456e-05
1.09756e-05
1.08929e-05
1.08011e-05
1.07022e-05
1.05973e-05
1.04865e-05
1.03697e-05
8.87137e-06
1.45941e-05
1.50227e-05
1.71252e-05
1.50535e-05
1.46853e-05
1.48148e-05
1.48893e-05
1.49233e-05
1.49271e-05
1.48985e-05
1.48397e-05
1.47529e-05
1.4633e-05
1.44481e-05
1.44852e-05
1.74767e-05
1.76075e-05
1.44685e-05
1.43599e-05
1.45464e-05
1.45415e-05
1.45657e-05
1.45576e-05
1.45543e-05
1.48727e-05
1.55766e-05
1.48712e-05
1.45232e-05
1.44848e-05
1.44894e-05
1.44856e-05
1.44749e-05
1.44593e-05
1.44396e-05
1.44165e-05
1.43898e-05
1.43579e-05
1.43175e-05
1.4264e-05
1.41937e-05
1.41051e-05
1.39994e-05
1.3879e-05
1.37466e-05
1.36041e-05
1.34526e-05
1.32927e-05
1.31242e-05
1.29469e-05
1.06936e-05
1.46068e-05
1.50642e-05
1.6993e-05
1.50786e-05
1.46864e-05
1.48142e-05
1.48912e-05
1.49276e-05
1.49337e-05
1.49079e-05
1.48529e-05
1.47711e-05
1.4657e-05
1.44816e-05
1.45493e-05
1.73847e-05
1.74301e-05
1.45035e-05
1.43557e-05
1.45429e-05
1.45367e-05
1.45589e-05
1.45466e-05
1.45468e-05
1.48879e-05
1.55529e-05
1.4882e-05
1.45164e-05
1.44716e-05
1.44789e-05
1.44771e-05
1.44675e-05
1.44525e-05
1.44335e-05
1.44112e-05
1.43853e-05
1.43543e-05
1.43144e-05
1.42611e-05
1.41908e-05
1.41023e-05
1.39966e-05
1.38762e-05
1.37438e-05
1.36014e-05
1.34499e-05
1.32899e-05
1.31213e-05
1.2944e-05
1.06879e-05
1.46216e-05
1.51008e-05
1.68511e-05
1.51038e-05
1.46934e-05
1.48166e-05
1.48956e-05
1.49342e-05
1.49424e-05
1.49193e-05
1.48678e-05
1.47906e-05
1.46817e-05
1.45142e-05
1.46037e-05
1.72597e-05
1.72496e-05
1.45407e-05
1.43606e-05
1.4545e-05
1.45365e-05
1.45556e-05
1.45386e-05
1.45441e-05
1.49069e-05
1.55281e-05
1.48898e-05
1.45077e-05
1.44572e-05
1.44675e-05
1.44684e-05
1.44602e-05
1.44464e-05
1.44284e-05
1.4407e-05
1.43822e-05
1.4352e-05
1.43125e-05
1.42593e-05
1.41889e-05
1.41001e-05
1.39942e-05
1.38738e-05
1.37413e-05
1.35987e-05
1.34472e-05
1.3287e-05
1.31183e-05
1.29408e-05
1.06816e-05
1.46374e-05
1.51318e-05
1.67123e-05
1.51254e-05
1.47056e-05
1.48219e-05
1.49022e-05
1.49429e-05
1.49526e-05
1.49319e-05
1.48836e-05
1.48103e-05
1.47051e-05
1.45435e-05
1.46468e-05
1.71185e-05
1.70753e-05
1.4574e-05
1.43725e-05
1.45518e-05
1.45402e-05
1.45553e-05
1.45334e-05
1.45466e-05
1.49284e-05
1.54999e-05
1.48909e-05
1.44988e-05
1.44436e-05
1.44569e-05
1.44606e-05
1.4454e-05
1.44414e-05
1.44245e-05
1.44043e-05
1.43805e-05
1.4351e-05
1.43118e-05
1.42584e-05
1.41876e-05
1.40984e-05
1.39922e-05
1.38715e-05
1.37388e-05
1.35961e-05
1.34444e-05
1.32841e-05
1.31152e-05
1.29375e-05
1.06752e-05
1.46533e-05
1.51577e-05
1.65842e-05
1.51431e-05
1.47209e-05
1.48293e-05
1.49108e-05
1.4953e-05
1.4964e-05
1.49454e-05
1.48997e-05
1.48295e-05
1.47265e-05
1.45689e-05
1.46798e-05
1.69736e-05
1.69117e-05
1.46019e-05
1.43888e-05
1.45618e-05
1.4547e-05
1.45577e-05
1.45315e-05
1.45547e-05
1.49499e-05
1.54666e-05
1.48861e-05
1.44909e-05
1.44321e-05
1.44479e-05
1.44543e-05
1.44494e-05
1.4438e-05
1.44222e-05
1.44031e-05
1.43802e-05
1.43513e-05
1.43121e-05
1.42583e-05
1.41868e-05
1.4097e-05
1.39904e-05
1.38694e-05
1.37366e-05
1.35937e-05
1.34418e-05
1.32813e-05
1.31123e-05
1.29344e-05
1.06691e-05
1.46695e-05
1.51798e-05
1.64696e-05
1.51576e-05
1.47373e-05
1.4838e-05
1.49206e-05
1.49641e-05
1.49761e-05
1.49592e-05
1.49155e-05
1.48479e-05
1.47459e-05
1.45913e-05
1.4705e-05
1.68322e-05
1.67605e-05
1.46249e-05
1.4407e-05
1.45738e-05
1.45562e-05
1.45626e-05
1.45332e-05
1.45673e-05
1.49687e-05
1.54283e-05
1.48774e-05
1.44851e-05
1.44236e-05
1.44413e-05
1.44501e-05
1.44467e-05
1.44364e-05
1.44216e-05
1.44035e-05
1.43814e-05
1.43528e-05
1.43134e-05
1.4259e-05
1.41868e-05
1.40964e-05
1.39892e-05
1.38679e-05
1.37348e-05
1.35917e-05
1.34396e-05
1.32789e-05
1.31096e-05
1.29316e-05
1.06635e-05
1.46866e-05
1.51991e-05
1.63682e-05
1.51697e-05
1.47541e-05
1.48477e-05
1.49314e-05
1.49759e-05
1.49886e-05
1.49732e-05
1.49309e-05
1.48652e-05
1.47637e-05
1.46114e-05
1.47246e-05
1.66983e-05
1.66215e-05
1.46436e-05
1.44256e-05
1.4587e-05
1.45672e-05
1.45696e-05
1.45381e-05
1.45829e-05
1.4983e-05
1.53864e-05
1.48663e-05
1.44824e-05
1.44186e-05
1.44375e-05
1.44481e-05
1.44459e-05
1.44365e-05
1.44227e-05
1.44054e-05
1.43839e-05
1.43555e-05
1.43158e-05
1.42607e-05
1.41876e-05
1.40964e-05
1.39887e-05
1.38669e-05
1.37336e-05
1.35902e-05
1.34379e-05
1.3277e-05
1.31076e-05
1.29294e-05
1.06589e-05
1.47049e-05
1.5216e-05
1.62784e-05
1.51802e-05
1.4771e-05
1.48583e-05
1.49426e-05
1.49879e-05
1.50012e-05
1.49869e-05
1.49455e-05
1.48813e-05
1.47803e-05
1.46298e-05
1.47403e-05
1.65734e-05
1.64932e-05
1.46587e-05
1.4444e-05
1.4601e-05
1.45793e-05
1.45782e-05
1.45459e-05
1.46003e-05
1.49924e-05
1.53429e-05
1.48545e-05
1.44828e-05
1.44175e-05
1.44366e-05
1.44484e-05
1.44471e-05
1.44385e-05
1.44255e-05
1.44089e-05
1.43878e-05
1.43594e-05
1.43192e-05
1.42633e-05
1.41893e-05
1.40973e-05
1.3989e-05
1.38668e-05
1.37331e-05
1.35895e-05
1.34369e-05
1.32758e-05
1.31061e-05
1.29278e-05
1.06556e-05
1.47243e-05
1.5231e-05
1.61982e-05
1.51895e-05
1.47885e-05
1.48698e-05
1.49542e-05
1.5e-05
1.50136e-05
1.50001e-05
1.49594e-05
1.48959e-05
1.47959e-05
1.46465e-05
1.47529e-05
1.64579e-05
1.63738e-05
1.46703e-05
1.44619e-05
1.46154e-05
1.45921e-05
1.45881e-05
1.45557e-05
1.46182e-05
1.49972e-05
1.52996e-05
1.4843e-05
1.44864e-05
1.442e-05
1.44385e-05
1.4451e-05
1.44503e-05
1.44422e-05
1.44298e-05
1.44137e-05
1.4393e-05
1.43644e-05
1.43237e-05
1.42669e-05
1.4192e-05
1.40991e-05
1.39901e-05
1.38674e-05
1.37334e-05
1.35895e-05
1.34367e-05
1.32753e-05
1.31055e-05
1.29269e-05
1.06536e-05
1.47444e-05
1.52439e-05
1.61263e-05
1.51984e-05
1.48069e-05
1.48819e-05
1.49658e-05
1.50119e-05
1.50256e-05
1.50127e-05
1.49723e-05
1.49091e-05
1.48101e-05
1.46612e-05
1.47627e-05
1.63509e-05
1.62617e-05
1.46786e-05
1.44793e-05
1.46299e-05
1.4605e-05
1.45986e-05
1.45668e-05
1.46357e-05
1.49981e-05
1.52578e-05
1.48323e-05
1.44927e-05
1.44255e-05
1.44429e-05
1.44556e-05
1.44552e-05
1.44475e-05
1.44355e-05
1.44199e-05
1.43993e-05
1.43705e-05
1.43291e-05
1.42714e-05
1.41955e-05
1.41018e-05
1.39921e-05
1.3869e-05
1.37346e-05
1.35904e-05
1.34373e-05
1.32758e-05
1.31057e-05
1.2927e-05
1.06533e-05
1.47646e-05
1.52548e-05
1.60622e-05
1.52073e-05
1.48262e-05
1.48943e-05
1.49774e-05
1.50231e-05
1.50371e-05
1.50245e-05
1.49841e-05
1.49206e-05
1.48226e-05
1.46733e-05
1.47697e-05
1.62508e-05
1.61559e-05
1.46839e-05
1.4496e-05
1.46441e-05
1.46178e-05
1.46093e-05
1.45785e-05
1.46522e-05
1.49961e-05
1.52186e-05
1.48228e-05
1.4501e-05
1.44334e-05
1.44493e-05
1.44617e-05
1.44616e-05
1.44542e-05
1.44425e-05
1.44272e-05
1.44067e-05
1.43775e-05
1.43354e-05
1.42767e-05
1.41999e-05
1.41053e-05
1.3995e-05
1.38714e-05
1.37367e-05
1.35922e-05
1.34389e-05
1.32771e-05
1.31068e-05
1.2928e-05
1.06549e-05
1.47841e-05
1.52641e-05
1.60059e-05
1.52169e-05
1.48461e-05
1.49067e-05
1.49883e-05
1.50335e-05
1.50479e-05
1.50353e-05
1.49947e-05
1.49304e-05
1.48326e-05
1.46824e-05
1.47742e-05
1.61565e-05
1.60568e-05
1.4687e-05
1.45121e-05
1.46578e-05
1.46302e-05
1.46199e-05
1.45903e-05
1.46676e-05
1.49923e-05
1.51827e-05
1.48147e-05
1.45107e-05
1.44432e-05
1.44573e-05
1.44692e-05
1.44691e-05
1.44619e-05
1.44506e-05
1.44355e-05
1.4415e-05
1.43854e-05
1.43425e-05
1.42829e-05
1.42051e-05
1.41097e-05
1.39988e-05
1.38748e-05
1.37397e-05
1.3595e-05
1.34415e-05
1.32795e-05
1.31091e-05
1.29301e-05
1.06585e-05
1.48021e-05
1.52728e-05
1.59577e-05
1.52274e-05
1.4866e-05
1.49185e-05
1.49983e-05
1.50433e-05
1.50579e-05
1.50452e-05
1.50041e-05
1.49386e-05
1.48401e-05
1.46885e-05
1.47763e-05
1.60674e-05
1.59654e-05
1.4689e-05
1.45276e-05
1.46712e-05
1.46421e-05
1.46303e-05
1.46019e-05
1.46819e-05
1.49877e-05
1.51504e-05
1.48082e-05
1.45215e-05
1.44542e-05
1.44663e-05
1.44777e-05
1.44776e-05
1.44706e-05
1.44595e-05
1.44446e-05
1.44241e-05
1.43941e-05
1.43504e-05
1.42898e-05
1.42111e-05
1.41149e-05
1.40035e-05
1.38791e-05
1.37437e-05
1.35988e-05
1.34451e-05
1.32829e-05
1.31124e-05
1.29333e-05
1.06642e-05
1.48189e-05
1.52824e-05
1.59178e-05
1.52392e-05
1.48854e-05
1.49291e-05
1.50073e-05
1.50521e-05
1.50671e-05
1.5054e-05
1.50122e-05
1.49453e-05
1.4845e-05
1.46922e-05
1.47767e-05
1.59834e-05
1.5883e-05
1.46913e-05
1.45427e-05
1.46843e-05
1.46537e-05
1.46403e-05
1.46134e-05
1.46953e-05
1.49828e-05
1.51219e-05
1.48033e-05
1.4533e-05
1.4466e-05
1.44762e-05
1.44869e-05
1.44869e-05
1.448e-05
1.44692e-05
1.44545e-05
1.44339e-05
1.44034e-05
1.4359e-05
1.42975e-05
1.42179e-05
1.41211e-05
1.40091e-05
1.38843e-05
1.37487e-05
1.36036e-05
1.34498e-05
1.32875e-05
1.31169e-05
1.29378e-05
1.06723e-05
1.48348e-05
1.52929e-05
1.58859e-05
1.52521e-05
1.49041e-05
1.49387e-05
1.50155e-05
1.506e-05
1.50753e-05
1.50619e-05
1.50193e-05
1.49508e-05
1.4848e-05
1.46941e-05
1.47758e-05
1.59052e-05
1.58108e-05
1.46952e-05
1.45576e-05
1.46972e-05
1.46649e-05
1.46502e-05
1.46247e-05
1.47079e-05
1.49782e-05
1.50972e-05
1.48003e-05
1.45452e-05
1.44785e-05
1.44868e-05
1.44968e-05
1.44968e-05
1.44901e-05
1.44796e-05
1.44651e-05
1.44443e-05
1.44134e-05
1.43682e-05
1.43059e-05
1.42255e-05
1.41281e-05
1.40157e-05
1.38906e-05
1.37548e-05
1.36096e-05
1.34557e-05
1.32934e-05
1.31227e-05
1.29435e-05
1.06827e-05
1.48498e-05
1.53042e-05
1.58613e-05
1.52662e-05
1.49212e-05
1.49465e-05
1.50219e-05
1.50666e-05
1.50825e-05
1.50688e-05
1.50254e-05
1.49552e-05
1.48498e-05
1.46953e-05
1.47741e-05
1.58337e-05
1.57493e-05
1.47014e-05
1.45723e-05
1.47098e-05
1.46758e-05
1.46599e-05
1.46358e-05
1.47199e-05
1.49739e-05
1.50763e-05
1.47994e-05
1.45581e-05
1.44916e-05
1.44978e-05
1.45072e-05
1.45072e-05
1.45008e-05
1.44905e-05
1.44762e-05
1.44553e-05
1.4424e-05
1.43781e-05
1.4315e-05
1.42339e-05
1.4136e-05
1.40232e-05
1.38979e-05
1.3762e-05
1.36167e-05
1.34627e-05
1.33003e-05
1.31297e-05
1.29505e-05
1.06955e-05
1.48643e-05
1.53167e-05
1.5843e-05
1.52811e-05
1.4937e-05
1.49531e-05
1.50268e-05
1.50722e-05
1.50888e-05
1.50749e-05
1.50306e-05
1.4959e-05
1.4851e-05
1.46963e-05
1.47722e-05
1.57691e-05
1.56982e-05
1.47103e-05
1.45866e-05
1.47219e-05
1.46863e-05
1.46693e-05
1.46467e-05
1.47312e-05
1.49702e-05
1.50591e-05
1.48008e-05
1.45718e-05
1.45051e-05
1.45093e-05
1.4518e-05
1.4518e-05
1.45119e-05
1.45019e-05
1.44878e-05
1.44668e-05
1.44351e-05
1.43886e-05
1.43247e-05
1.42431e-05
1.41447e-05
1.40316e-05
1.39062e-05
1.37701e-05
1.36248e-05
1.34708e-05
1.33085e-05
1.31378e-05
1.29586e-05
1.07105e-05
1.48779e-05
1.53296e-05
1.58295e-05
1.52968e-05
1.49516e-05
1.49582e-05
1.50304e-05
1.50767e-05
1.50942e-05
1.50802e-05
1.50353e-05
1.49624e-05
1.48522e-05
1.46978e-05
1.47705e-05
1.57124e-05
1.5657e-05
1.47217e-05
1.46003e-05
1.47332e-05
1.46962e-05
1.46783e-05
1.46573e-05
1.47419e-05
1.49672e-05
1.50455e-05
1.48046e-05
1.45864e-05
1.4519e-05
1.4521e-05
1.45291e-05
1.45292e-05
1.45233e-05
1.45136e-05
1.44996e-05
1.44786e-05
1.44465e-05
1.43995e-05
1.43351e-05
1.42529e-05
1.41541e-05
1.40409e-05
1.39153e-05
1.37792e-05
1.36339e-05
1.34799e-05
1.33176e-05
1.3147e-05
1.29678e-05
1.07275e-05
1.48906e-05
1.53423e-05
1.58195e-05
1.53138e-05
1.49657e-05
1.49621e-05
1.50326e-05
1.50802e-05
1.50988e-05
1.50848e-05
1.50393e-05
1.49655e-05
1.48538e-05
1.46999e-05
1.47696e-05
1.56635e-05
1.56238e-05
1.47349e-05
1.4613e-05
1.47433e-05
1.47053e-05
1.46868e-05
1.46674e-05
1.47519e-05
1.49651e-05
1.50355e-05
1.48108e-05
1.46019e-05
1.45332e-05
1.45329e-05
1.45402e-05
1.45404e-05
1.45348e-05
1.45255e-05
1.45117e-05
1.44906e-05
1.44582e-05
1.44107e-05
1.43458e-05
1.42632e-05
1.41642e-05
1.40508e-05
1.39252e-05
1.37891e-05
1.36438e-05
1.34899e-05
1.33277e-05
1.31571e-05
1.29779e-05
1.07464e-05
1.49018e-05
1.5354e-05
1.58123e-05
1.5332e-05
1.49788e-05
1.49647e-05
1.50336e-05
1.50826e-05
1.51026e-05
1.50888e-05
1.50429e-05
1.49683e-05
1.48557e-05
1.47024e-05
1.47697e-05
1.56216e-05
1.55967e-05
1.47488e-05
1.46243e-05
1.4752e-05
1.47135e-05
1.46947e-05
1.4677e-05
1.47614e-05
1.4964e-05
1.5029e-05
1.48192e-05
1.46181e-05
1.45476e-05
1.45447e-05
1.45512e-05
1.45515e-05
1.45463e-05
1.45373e-05
1.45237e-05
1.45027e-05
1.447e-05
1.44222e-05
1.43569e-05
1.42741e-05
1.41748e-05
1.40614e-05
1.39358e-05
1.37998e-05
1.36546e-05
1.35008e-05
1.33386e-05
1.31681e-05
1.2989e-05
1.07669e-05
1.49112e-05
1.53641e-05
1.58073e-05
1.53516e-05
1.49915e-05
1.49661e-05
1.50334e-05
1.50842e-05
1.51057e-05
1.50923e-05
1.50461e-05
1.4971e-05
1.48578e-05
1.47053e-05
1.47711e-05
1.55863e-05
1.55744e-05
1.47624e-05
1.46341e-05
1.47591e-05
1.47206e-05
1.47018e-05
1.4686e-05
1.47704e-05
1.49642e-05
1.50256e-05
1.48296e-05
1.46349e-05
1.45619e-05
1.45561e-05
1.45618e-05
1.45622e-05
1.45575e-05
1.45489e-05
1.45356e-05
1.45146e-05
1.44819e-05
1.44338e-05
1.43683e-05
1.42852e-05
1.41859e-05
1.40725e-05
1.39469e-05
1.3811e-05
1.36659e-05
1.35123e-05
1.33502e-05
1.31798e-05
1.30008e-05
1.0789e-05
1.49185e-05
1.53719e-05
1.58041e-05
1.53729e-05
1.5004e-05
1.49665e-05
1.5032e-05
1.50848e-05
1.51082e-05
1.50952e-05
1.50488e-05
1.49733e-05
1.48597e-05
1.4708e-05
1.47738e-05
1.55566e-05
1.55548e-05
1.47746e-05
1.46424e-05
1.47645e-05
1.47266e-05
1.47082e-05
1.46944e-05
1.4779e-05
1.49657e-05
1.50252e-05
1.48417e-05
1.46522e-05
1.45759e-05
1.45671e-05
1.45718e-05
1.45725e-05
1.45682e-05
1.45601e-05
1.45472e-05
1.45264e-05
1.44936e-05
1.44454e-05
1.43797e-05
1.42966e-05
1.41973e-05
1.4084e-05
1.39586e-05
1.38228e-05
1.36779e-05
1.35244e-05
1.33625e-05
1.31922e-05
1.30133e-05
1.08124e-05
1.49235e-05
1.53771e-05
1.58026e-05
1.53961e-05
1.50165e-05
1.49658e-05
1.50294e-05
1.50846e-05
1.511e-05
1.50976e-05
1.50511e-05
1.49752e-05
1.48612e-05
1.47104e-05
1.47777e-05
1.55313e-05
1.55367e-05
1.47854e-05
1.46492e-05
1.47683e-05
1.47316e-05
1.4714e-05
1.47023e-05
1.47874e-05
1.49684e-05
1.50274e-05
1.48551e-05
1.46694e-05
1.45895e-05
1.45774e-05
1.45811e-05
1.4582e-05
1.45784e-05
1.45709e-05
1.45585e-05
1.45379e-05
1.45053e-05
1.4457e-05
1.43913e-05
1.43082e-05
1.42091e-05
1.40958e-05
1.39706e-05
1.38351e-05
1.36903e-05
1.3537e-05
1.33753e-05
1.32052e-05
1.30264e-05
1.0837e-05
1.49262e-05
1.53794e-05
1.58027e-05
1.54213e-05
1.50287e-05
1.49639e-05
1.50256e-05
1.50835e-05
1.51113e-05
1.50996e-05
1.50529e-05
1.49766e-05
1.48619e-05
1.4712e-05
1.47824e-05
1.55093e-05
1.55193e-05
1.47945e-05
1.46548e-05
1.47711e-05
1.47358e-05
1.47191e-05
1.47098e-05
1.47957e-05
1.49722e-05
1.50317e-05
1.48695e-05
1.46867e-05
1.46026e-05
1.4587e-05
1.45897e-05
1.45909e-05
1.45879e-05
1.45812e-05
1.45693e-05
1.45492e-05
1.45167e-05
1.44686e-05
1.4403e-05
1.432e-05
1.4221e-05
1.41081e-05
1.39831e-05
1.38478e-05
1.37033e-05
1.35501e-05
1.33886e-05
1.32187e-05
1.30401e-05
1.0855e-05
1.49268e-05
1.53787e-05
1.58039e-05
1.54482e-05
1.50408e-05
1.49609e-05
1.50206e-05
1.50818e-05
1.51121e-05
1.51013e-05
1.50544e-05
1.49775e-05
1.48618e-05
1.47131e-05
1.47875e-05
1.54893e-05
1.55025e-05
1.48024e-05
1.46596e-05
1.47732e-05
1.47394e-05
1.47239e-05
1.4717e-05
1.48039e-05
1.49771e-05
1.50376e-05
1.48846e-05
1.47038e-05
1.46153e-05
1.45959e-05
1.45975e-05
1.45991e-05
1.45969e-05
1.4591e-05
1.45798e-05
1.45601e-05
1.4528e-05
1.44801e-05
1.44147e-05
1.4332e-05
1.42333e-05
1.41206e-05
1.39959e-05
1.38609e-05
1.37166e-05
1.35637e-05
1.34025e-05
1.32328e-05
1.30542e-05
1.08716e-05
1.49255e-05
1.5375e-05
1.58057e-05
1.54762e-05
1.50524e-05
1.49568e-05
1.50147e-05
1.50795e-05
1.51126e-05
1.51027e-05
1.50556e-05
1.4978e-05
1.48611e-05
1.47137e-05
1.47927e-05
1.54707e-05
1.54868e-05
1.48101e-05
1.46644e-05
1.47751e-05
1.47426e-05
1.47284e-05
1.47241e-05
1.48121e-05
1.49828e-05
1.50449e-05
1.49002e-05
1.47209e-05
1.46277e-05
1.46043e-05
1.46048e-05
1.46067e-05
1.46054e-05
1.46003e-05
1.45899e-05
1.45709e-05
1.45392e-05
1.44916e-05
1.44266e-05
1.43442e-05
1.42458e-05
1.41335e-05
1.40092e-05
1.38744e-05
1.37305e-05
1.35778e-05
1.34168e-05
1.32473e-05
1.30689e-05
1.08888e-05
1.49229e-05
1.53682e-05
1.58072e-05
1.55043e-05
1.50634e-05
1.49516e-05
1.5008e-05
1.50767e-05
1.5113e-05
1.51041e-05
1.50567e-05
1.49783e-05
1.48599e-05
1.47143e-05
1.47976e-05
1.54531e-05
1.54732e-05
1.48185e-05
1.46697e-05
1.47771e-05
1.47457e-05
1.47328e-05
1.4731e-05
1.48202e-05
1.4989e-05
1.50532e-05
1.49163e-05
1.4738e-05
1.46399e-05
1.46124e-05
1.46115e-05
1.46137e-05
1.46133e-05
1.46093e-05
1.45998e-05
1.45814e-05
1.45503e-05
1.45032e-05
1.44386e-05
1.43566e-05
1.42586e-05
1.41467e-05
1.40228e-05
1.38884e-05
1.37447e-05
1.35924e-05
1.34317e-05
1.32624e-05
1.30841e-05
1.09066e-05
1.4919e-05
1.53584e-05
1.58075e-05
1.55315e-05
1.50736e-05
1.49457e-05
1.50009e-05
1.50739e-05
1.51134e-05
1.51055e-05
1.50578e-05
1.49786e-05
1.48588e-05
1.47154e-05
1.48023e-05
1.54362e-05
1.54625e-05
1.48287e-05
1.46758e-05
1.47795e-05
1.47489e-05
1.47373e-05
1.47377e-05
1.48282e-05
1.49957e-05
1.50623e-05
1.49327e-05
1.47553e-05
1.46522e-05
1.46203e-05
1.46178e-05
1.46204e-05
1.4621e-05
1.4618e-05
1.46095e-05
1.45919e-05
1.45614e-05
1.45148e-05
1.44507e-05
1.43692e-05
1.42717e-05
1.41602e-05
1.40367e-05
1.39027e-05
1.37594e-05
1.36074e-05
1.34469e-05
1.32779e-05
1.30997e-05
1.0925e-05
1.49141e-05
1.53457e-05
1.58054e-05
1.55565e-05
1.5083e-05
1.49395e-05
1.49937e-05
1.50711e-05
1.51141e-05
1.51073e-05
1.50592e-05
1.49792e-05
1.48584e-05
1.47174e-05
1.48067e-05
1.54204e-05
1.54554e-05
1.48414e-05
1.46832e-05
1.47823e-05
1.47522e-05
1.47417e-05
1.47443e-05
1.48359e-05
1.50027e-05
1.50721e-05
1.49497e-05
1.4773e-05
1.46647e-05
1.46281e-05
1.46239e-05
1.46267e-05
1.46283e-05
1.46265e-05
1.4619e-05
1.46023e-05
1.45724e-05
1.45265e-05
1.44629e-05
1.43819e-05
1.4285e-05
1.4174e-05
1.40509e-05
1.39174e-05
1.37745e-05
1.36228e-05
1.34626e-05
1.32937e-05
1.31157e-05
1.09438e-05
1.49086e-05
1.53304e-05
1.58002e-05
1.55783e-05
1.50915e-05
1.49333e-05
1.49869e-05
1.50688e-05
1.51154e-05
1.51095e-05
1.50611e-05
1.49805e-05
1.4859e-05
1.47208e-05
1.48111e-05
1.5406e-05
1.54524e-05
1.48569e-05
1.46916e-05
1.47854e-05
1.47556e-05
1.47462e-05
1.47506e-05
1.48434e-05
1.50098e-05
1.50825e-05
1.49672e-05
1.47911e-05
1.46775e-05
1.4636e-05
1.46298e-05
1.46327e-05
1.46353e-05
1.46347e-05
1.46283e-05
1.46125e-05
1.45835e-05
1.45382e-05
1.44752e-05
1.43948e-05
1.42984e-05
1.4188e-05
1.40654e-05
1.39323e-05
1.37897e-05
1.36384e-05
1.34785e-05
1.33099e-05
1.31319e-05
1.09631e-05
1.49026e-05
1.53127e-05
1.57911e-05
1.55961e-05
1.50992e-05
1.49275e-05
1.49811e-05
1.50673e-05
1.51174e-05
1.51124e-05
1.50637e-05
1.49826e-05
1.48612e-05
1.47258e-05
1.48157e-05
1.53934e-05
1.54532e-05
1.48752e-05
1.4701e-05
1.47886e-05
1.47589e-05
1.47504e-05
1.47565e-05
1.48505e-05
1.50171e-05
1.50935e-05
1.49851e-05
1.48097e-05
1.46906e-05
1.46438e-05
1.46353e-05
1.46384e-05
1.4642e-05
1.46427e-05
1.46374e-05
1.46227e-05
1.45945e-05
1.45499e-05
1.44876e-05
1.44078e-05
1.4312e-05
1.42021e-05
1.408e-05
1.39474e-05
1.38052e-05
1.36543e-05
1.34947e-05
1.33263e-05
1.31486e-05
1.09828e-05
1.48963e-05
1.52927e-05
1.57776e-05
1.5609e-05
1.51057e-05
1.49225e-05
1.49764e-05
1.50669e-05
1.51203e-05
1.51162e-05
1.50671e-05
1.49857e-05
1.4865e-05
1.47326e-05
1.48208e-05
1.53829e-05
1.54572e-05
1.48956e-05
1.47109e-05
1.47917e-05
1.47621e-05
1.47544e-05
1.47621e-05
1.48573e-05
1.50245e-05
1.5105e-05
1.50036e-05
1.48286e-05
1.47039e-05
1.46515e-05
1.46406e-05
1.46436e-05
1.46483e-05
1.46503e-05
1.46463e-05
1.46327e-05
1.46054e-05
1.45615e-05
1.44999e-05
1.44208e-05
1.43256e-05
1.42163e-05
1.40947e-05
1.39626e-05
1.38208e-05
1.36702e-05
1.3511e-05
1.33429e-05
1.31653e-05
1.10027e-05
1.48895e-05
1.52708e-05
1.57602e-05
1.56167e-05
1.51108e-05
1.49184e-05
1.49732e-05
1.50676e-05
1.51244e-05
1.51208e-05
1.50713e-05
1.49898e-05
1.48702e-05
1.47408e-05
1.48269e-05
1.53747e-05
1.54634e-05
1.49172e-05
1.47211e-05
1.47944e-05
1.47648e-05
1.4758e-05
1.47672e-05
1.48638e-05
1.50321e-05
1.5117e-05
1.50222e-05
1.48476e-05
1.47171e-05
1.46589e-05
1.46453e-05
1.46483e-05
1.46541e-05
1.46575e-05
1.4655e-05
1.46424e-05
1.46161e-05
1.45731e-05
1.45122e-05
1.44337e-05
1.43392e-05
1.42305e-05
1.41095e-05
1.39778e-05
1.38365e-05
1.36862e-05
1.35273e-05
1.33595e-05
1.31822e-05
1.10226e-05
1.48823e-05
1.52476e-05
1.57389e-05
1.56189e-05
1.51144e-05
1.49155e-05
1.49714e-05
1.50697e-05
1.51296e-05
1.51264e-05
1.50763e-05
1.49948e-05
1.48767e-05
1.47501e-05
1.48341e-05
1.53689e-05
1.54707e-05
1.4939e-05
1.4731e-05
1.47965e-05
1.47671e-05
1.47612e-05
1.47718e-05
1.48699e-05
1.50397e-05
1.51292e-05
1.50408e-05
1.48664e-05
1.47299e-05
1.46658e-05
1.46494e-05
1.46523e-05
1.46594e-05
1.46644e-05
1.46633e-05
1.4652e-05
1.46267e-05
1.45845e-05
1.45244e-05
1.44467e-05
1.43528e-05
1.42447e-05
1.41242e-05
1.3993e-05
1.38522e-05
1.37023e-05
1.35437e-05
1.33762e-05
1.31992e-05
1.10429e-05
1.48743e-05
1.52234e-05
1.57144e-05
1.56157e-05
1.51163e-05
1.49137e-05
1.49712e-05
1.50731e-05
1.5136e-05
1.51329e-05
1.50822e-05
1.50005e-05
1.48839e-05
1.476e-05
1.48424e-05
1.53653e-05
1.54777e-05
1.49598e-05
1.47404e-05
1.47981e-05
1.4769e-05
1.47641e-05
1.47762e-05
1.48758e-05
1.50472e-05
1.51412e-05
1.50589e-05
1.48845e-05
1.47422e-05
1.46721e-05
1.46528e-05
1.46557e-05
1.46641e-05
1.46708e-05
1.46713e-05
1.46613e-05
1.46371e-05
1.45959e-05
1.45365e-05
1.44595e-05
1.43663e-05
1.42589e-05
1.4139e-05
1.40083e-05
1.3868e-05
1.37185e-05
1.35603e-05
1.33931e-05
1.32163e-05
1.10631e-05
1.48655e-05
1.51988e-05
1.56874e-05
1.56075e-05
1.51164e-05
1.49127e-05
1.49723e-05
1.5078e-05
1.51435e-05
1.51403e-05
1.50886e-05
1.50066e-05
1.48913e-05
1.477e-05
1.48519e-05
1.53637e-05
1.54835e-05
1.49787e-05
1.47491e-05
1.47992e-05
1.47705e-05
1.47668e-05
1.47804e-05
1.48814e-05
1.50544e-05
1.51528e-05
1.50762e-05
1.49018e-05
1.47538e-05
1.46778e-05
1.46557e-05
1.46585e-05
1.46684e-05
1.46769e-05
1.46791e-05
1.46706e-05
1.46475e-05
1.46072e-05
1.45487e-05
1.44724e-05
1.43799e-05
1.42731e-05
1.41539e-05
1.40238e-05
1.38839e-05
1.37348e-05
1.35769e-05
1.34101e-05
1.32336e-05
1.10836e-05
1.48557e-05
1.51743e-05
1.56587e-05
1.55948e-05
1.51146e-05
1.49122e-05
1.49746e-05
1.50841e-05
1.51521e-05
1.51485e-05
1.50955e-05
1.50129e-05
1.48986e-05
1.47797e-05
1.48625e-05
1.53635e-05
1.54875e-05
1.49952e-05
1.47572e-05
1.48002e-05
1.4772e-05
1.47696e-05
1.47846e-05
1.48866e-05
1.5061e-05
1.51635e-05
1.50922e-05
1.49179e-05
1.47647e-05
1.46831e-05
1.46583e-05
1.46611e-05
1.46725e-05
1.46829e-05
1.46869e-05
1.46798e-05
1.46579e-05
1.46185e-05
1.45609e-05
1.44854e-05
1.43936e-05
1.42875e-05
1.41689e-05
1.40394e-05
1.39e-05
1.37514e-05
1.3594e-05
1.34275e-05
1.32514e-05
1.11044e-05
1.48449e-05
1.51503e-05
1.56293e-05
1.55783e-05
1.51107e-05
1.49121e-05
1.49779e-05
1.50914e-05
1.51618e-05
1.51575e-05
1.51028e-05
1.50191e-05
1.49052e-05
1.47889e-05
1.48737e-05
1.53643e-05
1.54893e-05
1.50092e-05
1.47649e-05
1.48014e-05
1.47738e-05
1.47728e-05
1.4789e-05
1.48916e-05
1.50667e-05
1.51729e-05
1.51069e-05
1.4933e-05
1.47752e-05
1.46883e-05
1.46609e-05
1.46638e-05
1.46768e-05
1.46891e-05
1.46948e-05
1.46892e-05
1.46684e-05
1.463e-05
1.45732e-05
1.44985e-05
1.44075e-05
1.43021e-05
1.41842e-05
1.40553e-05
1.39165e-05
1.37685e-05
1.36115e-05
1.34454e-05
1.32696e-05
1.11258e-05
1.48331e-05
1.51274e-05
1.55999e-05
1.55585e-05
1.51048e-05
1.4912e-05
1.49819e-05
1.50997e-05
1.51724e-05
1.51671e-05
1.51103e-05
1.50251e-05
1.49112e-05
1.47974e-05
1.48855e-05
1.53652e-05
1.54891e-05
1.5021e-05
1.47726e-05
1.48034e-05
1.47764e-05
1.47768e-05
1.4794e-05
1.48962e-05
1.50711e-05
1.51808e-05
1.51201e-05
1.49473e-05
1.47855e-05
1.4694e-05
1.4664e-05
1.46671e-05
1.46815e-05
1.46958e-05
1.47032e-05
1.4699e-05
1.46793e-05
1.46419e-05
1.45859e-05
1.4512e-05
1.44217e-05
1.43171e-05
1.41999e-05
1.40716e-05
1.39334e-05
1.37859e-05
1.36295e-05
1.34638e-05
1.32883e-05
1.11478e-05
1.48206e-05
1.5106e-05
1.55713e-05
1.55363e-05
1.5097e-05
1.49118e-05
1.49866e-05
1.5109e-05
1.5184e-05
1.51775e-05
1.51181e-05
1.50309e-05
1.49165e-05
1.48054e-05
1.48973e-05
1.53658e-05
1.54873e-05
1.50317e-05
1.47809e-05
1.48066e-05
1.47802e-05
1.47821e-05
1.47997e-05
1.49006e-05
1.50743e-05
1.51869e-05
1.5132e-05
1.49612e-05
1.47963e-05
1.47005e-05
1.46682e-05
1.46713e-05
1.46871e-05
1.47031e-05
1.47123e-05
1.47094e-05
1.46908e-05
1.46542e-05
1.4599e-05
1.45259e-05
1.44364e-05
1.43325e-05
1.42161e-05
1.40885e-05
1.39509e-05
1.38041e-05
1.36482e-05
1.34831e-05
1.3308e-05
1.1171e-05
1.48074e-05
1.50867e-05
1.5544e-05
1.55123e-05
1.50875e-05
1.49114e-05
1.49918e-05
1.51192e-05
1.51965e-05
1.51886e-05
1.51262e-05
1.50366e-05
1.49214e-05
1.4813e-05
1.49088e-05
1.53653e-05
1.54846e-05
1.50424e-05
1.47905e-05
1.48114e-05
1.47856e-05
1.47889e-05
1.48066e-05
1.49049e-05
1.50761e-05
1.51913e-05
1.51429e-05
1.49752e-05
1.48082e-05
1.47086e-05
1.4674e-05
1.46769e-05
1.46939e-05
1.47116e-05
1.47222e-05
1.47205e-05
1.47029e-05
1.46671e-05
1.46127e-05
1.45404e-05
1.44517e-05
1.43486e-05
1.42329e-05
1.41061e-05
1.39692e-05
1.3823e-05
1.36677e-05
1.35032e-05
1.33286e-05
1.11953e-05
1.47941e-05
1.50698e-05
1.55187e-05
1.54871e-05
1.50765e-05
1.49108e-05
1.49974e-05
1.51303e-05
1.521e-05
1.52004e-05
1.51346e-05
1.50424e-05
1.49263e-05
1.48206e-05
1.49195e-05
1.53635e-05
1.5482e-05
1.50545e-05
1.4802e-05
1.48182e-05
1.47928e-05
1.47975e-05
1.48147e-05
1.49093e-05
1.50766e-05
1.51941e-05
1.5153e-05
1.49898e-05
1.48217e-05
1.47187e-05
1.46817e-05
1.46842e-05
1.47022e-05
1.47213e-05
1.47332e-05
1.47326e-05
1.47158e-05
1.46809e-05
1.46272e-05
1.45557e-05
1.44678e-05
1.43655e-05
1.42506e-05
1.41244e-05
1.39882e-05
1.38426e-05
1.36879e-05
1.35239e-05
1.33498e-05
1.12203e-05
1.47808e-05
1.50557e-05
1.54956e-05
1.54612e-05
1.50643e-05
1.49098e-05
1.50035e-05
1.51423e-05
1.52245e-05
1.52132e-05
1.51435e-05
1.50484e-05
1.49314e-05
1.48285e-05
1.49294e-05
1.53601e-05
1.54803e-05
1.50692e-05
1.48162e-05
1.48271e-05
1.48019e-05
1.48079e-05
1.48242e-05
1.49139e-05
1.50761e-05
1.51955e-05
1.51626e-05
1.50054e-05
1.48373e-05
1.47312e-05
1.46918e-05
1.46935e-05
1.47122e-05
1.47324e-05
1.47455e-05
1.47458e-05
1.47298e-05
1.46955e-05
1.46426e-05
1.45719e-05
1.44849e-05
1.43834e-05
1.42692e-05
1.41439e-05
1.40083e-05
1.38633e-05
1.37092e-05
1.35457e-05
1.33721e-05
1.1246e-05
1.47679e-05
1.50448e-05
1.54748e-05
1.54349e-05
1.50511e-05
1.49087e-05
1.50101e-05
1.51552e-05
1.52401e-05
1.52268e-05
1.51531e-05
1.5055e-05
1.49372e-05
1.48369e-05
1.49381e-05
1.53554e-05
1.54803e-05
1.50876e-05
1.48333e-05
1.48381e-05
1.48129e-05
1.48202e-05
1.48353e-05
1.49189e-05
1.50748e-05
1.51957e-05
1.5172e-05
1.50224e-05
1.48553e-05
1.47465e-05
1.47043e-05
1.4705e-05
1.4724e-05
1.47451e-05
1.4759e-05
1.47602e-05
1.47449e-05
1.47113e-05
1.46592e-05
1.45893e-05
1.45031e-05
1.44026e-05
1.42893e-05
1.41647e-05
1.40299e-05
1.38856e-05
1.37321e-05
1.35692e-05
1.33961e-05
1.12737e-05
1.4756e-05
1.50374e-05
1.54567e-05
1.54087e-05
1.50373e-05
1.49076e-05
1.50172e-05
1.51692e-05
1.52569e-05
1.52415e-05
1.51633e-05
1.50621e-05
1.49438e-05
1.48459e-05
1.49458e-05
1.53496e-05
1.54826e-05
1.51103e-05
1.48537e-05
1.4851e-05
1.48256e-05
1.48342e-05
1.48477e-05
1.49246e-05
1.5073e-05
1.51948e-05
1.51811e-05
1.50407e-05
1.4876e-05
1.47647e-05
1.47195e-05
1.47188e-05
1.47376e-05
1.47593e-05
1.4774e-05
1.47758e-05
1.47612e-05
1.47284e-05
1.4677e-05
1.4608e-05
1.45229e-05
1.44233e-05
1.43109e-05
1.41872e-05
1.40533e-05
1.39098e-05
1.3757e-05
1.35948e-05
1.34221e-05
1.1304e-05
1.47451e-05
1.50332e-05
1.54409e-05
1.53825e-05
1.50228e-05
1.49065e-05
1.50249e-05
1.51841e-05
1.52749e-05
1.52572e-05
1.51742e-05
1.50699e-05
1.49513e-05
1.48557e-05
1.49528e-05
1.53434e-05
1.54873e-05
1.51375e-05
1.48774e-05
1.48655e-05
1.48394e-05
1.48495e-05
1.48614e-05
1.4931e-05
1.5071e-05
1.51932e-05
1.51899e-05
1.50604e-05
1.48992e-05
1.47858e-05
1.47375e-05
1.47348e-05
1.47531e-05
1.47751e-05
1.47903e-05
1.47928e-05
1.47788e-05
1.47468e-05
1.46963e-05
1.46283e-05
1.45442e-05
1.44457e-05
1.43343e-05
1.42117e-05
1.40786e-05
1.39359e-05
1.37839e-05
1.36224e-05
1.34503e-05
1.13368e-05
1.47358e-05
1.50329e-05
1.54274e-05
1.53564e-05
1.50082e-05
1.49055e-05
1.50333e-05
1.52001e-05
1.52942e-05
1.5274e-05
1.51858e-05
1.50782e-05
1.49598e-05
1.48661e-05
1.49594e-05
1.53374e-05
1.54945e-05
1.51689e-05
1.49042e-05
1.48814e-05
1.48541e-05
1.48656e-05
1.48761e-05
1.49382e-05
1.50692e-05
1.5191e-05
1.51985e-05
1.50812e-05
1.49249e-05
1.481e-05
1.47582e-05
1.47531e-05
1.47704e-05
1.47924e-05
1.48081e-05
1.48111e-05
1.47979e-05
1.47667e-05
1.47172e-05
1.46503e-05
1.45673e-05
1.447e-05
1.43598e-05
1.42381e-05
1.41061e-05
1.39643e-05
1.38131e-05
1.36524e-05
1.34808e-05
1.13723e-05
1.47285e-05
1.5036e-05
1.54156e-05
1.53305e-05
1.49934e-05
1.49047e-05
1.50423e-05
1.52172e-05
1.53147e-05
1.52917e-05
1.51979e-05
1.5087e-05
1.49688e-05
1.48771e-05
1.49662e-05
1.53324e-05
1.55039e-05
1.52037e-05
1.49336e-05
1.48982e-05
1.4869e-05
1.48822e-05
1.48915e-05
1.49461e-05
1.50677e-05
1.51884e-05
1.52068e-05
1.51029e-05
1.4953e-05
1.48371e-05
1.47817e-05
1.47736e-05
1.47896e-05
1.48113e-05
1.48273e-05
1.48309e-05
1.48184e-05
1.47881e-05
1.47398e-05
1.46741e-05
1.45924e-05
1.44963e-05
1.43873e-05
1.42669e-05
1.41359e-05
1.39951e-05
1.38449e-05
1.36849e-05
1.3514e-05
1.1411e-05
1.47236e-05
1.50423e-05
1.5405e-05
1.5305e-05
1.49788e-05
1.49043e-05
1.50521e-05
1.52354e-05
1.53363e-05
1.53102e-05
1.52104e-05
1.50958e-05
1.49781e-05