/*--------------------------------*- C++ -*----------------------------------*\
  =========                 |
  \\      /  F ield         | OpenFOAM: The Open Source CFD Toolbox
   \\    /   O peration     | Website:  https://openfoam.org
    \\  /    A nd           | Version:  9
     \\/     M anipulation  |
\*---------------------------------------------------------------------------*/
FoamFile
{
    format      ascii;
    class       volVectorField;
    location    "0.13";
    object      U;
}
// * * * * * * * * * * * * * * * * * * * * * * * * * * * * * * * * * * * * * //

dimensions      [0 1 -1 0 0 0 0];

internalField   nonuniform List<vector> 
5000
(
(-0.0060492 0 0.872839)
(0.0202268 0 0.483591)
(-0.00210556 0 -1.21798)
(-0.0245447 0 0.476582)
(0.00118578 0 0.772981)
(-0.00560853 0 0.655935)
(-0.00246756 0 0.594111)
(-0.000618503 0 0.567648)
(0.00111404 0 0.568428)
(0.0029833 0 0.598734)
(0.00513731 0 0.657219)
(0.00800333 0 0.743351)
(0.0120791 0 0.864427)
(0.0121049 0 1.05329)
(0.0227648 0 1.02074)
(0.0737565 0 -1.4511)
(-0.0613889 0 -1.54792)
(-0.0298657 0 1.00776)
(-0.0114457 0 1.06342)
(-0.0117443 0 0.891009)
(-0.00752104 0 0.796059)
(-0.0054801 0 0.740275)
(-0.00607478 0 0.710635)
(-0.01087 0 0.667148)
(-0.00543139 0 0.345325)
(-0.00151812 0 -0.274636)
(0.000695037 0 0.313374)
(0.00342079 0 0.560943)
(-0.00185621 0 0.539863)
(-0.00346295 0 0.484)
(-0.00379881 0 0.432925)
(-0.00374571 0 0.384574)
(-0.00355882 0 0.336992)
(-0.00329198 0 0.289141)
(-0.00294043 0 0.240137)
(-0.00249025 0 0.189701)
(-0.00195689 0 0.138898)
(-0.00140435 0 0.0904891)
(-0.000922694 0 0.0482947)
(-0.000576727 0 0.0156203)
(-0.000373349 0 -0.00623746)
(-0.0002739 0 -0.0182995)
(-0.000230201 0 -0.0230407)
(-0.000208814 0 -0.023181)
(-0.000194078 0 -0.02089)
(-0.000181773 0 -0.0175544)
(-0.00017261 0 -0.0138876)
(-0.000168888 0 -0.0101596)
(-0.000172419 0 -0.00636979)
(-0.000179973 0 -0.00223591)
(-0.0112029 0 0.870384)
(0.0533433 0 0.445826)
(-0.00522498 0 -1.14146)
(-0.0658285 0 0.452806)
(0.000192718 0 0.770049)
(-0.0151764 0 0.653715)
(-0.00617694 0 0.591827)
(-0.00137963 0 0.565665)
(0.00343408 0 0.566642)
(0.00870383 0 0.596867)
(0.0147461 0 0.654904)
(0.0224088 0 0.740095)
(0.0332594 0 0.860915)
(0.0403134 0 1.05182)
(0.0645078 0 0.975335)
(0.149842 0 -1.40702)
(-0.128248 0 -1.45023)
(-0.077021 0 0.968758)
(-0.0354876 0 1.05748)
(-0.0323621 0 0.885356)
(-0.0220656 0 0.791725)
(-0.0171546 0 0.738128)
(-0.0178589 0 0.712659)
(-0.0252544 0 0.666817)
(-0.00740417 0 0.3237)
(-0.00654068 0 -0.258994)
(-0.00825535 0 0.305055)
(0.00335882 0 0.562915)
(-0.00567386 0 0.542954)
(-0.00852725 0 0.484565)
(-0.00947811 0 0.432327)
(-0.00958307 0 0.383593)
(-0.00923125 0 0.335837)
(-0.00858648 0 0.287823)
(-0.00770281 0 0.238611)
(-0.0066121 0 0.187961)
(-0.00539374 0 0.137055)
(-0.00419293 0 0.0887674)
(-0.00316895 0 0.0469283)
(-0.00241505 0 0.0147187)
(-0.00192204 0 -0.006723)
(-0.00161346 0 -0.0185068)
(-0.00141083 0 -0.0231052)
(-0.00126463 0 -0.023189)
(-0.00115107 0 -0.0208795)
(-0.00106289 0 -0.0175327)
(-0.000999536 0 -0.0138493)
(-0.000959552 0 -0.0100958)
(-0.000939468 0 -0.00627205)
(-0.000947568 0 -0.0021388)
(-0.0122422 0 0.862102)
(0.0749553 0 0.416357)
(-0.00637094 0 -1.04667)
(-0.0954974 0 0.416267)
(-0.00295536 0 0.762859)
(-0.0231799 0 0.650522)
(-0.00889782 0 0.587881)
(-0.00191457 0 0.561451)
(0.00569952 0 0.562291)
(0.0140234 0 0.591979)
(0.0235112 0 0.648932)
(0.0350893 0 0.732392)
(0.0512419 0 0.8515)
(0.0683838 0 1.03826)
(0.0999675 0 0.934465)
(0.178436 0 -1.32457)
(-0.156422 0 -1.33848)
(-0.109842 0 0.908303)
(-0.0556087 0 1.04673)
(-0.0492172 0 0.87722)
(-0.0349425 0 0.785533)
(-0.0276725 0 0.735711)
(-0.0268203 0 0.716036)
(-0.0348651 0 0.66834)
(-0.00952031 0 0.304857)
(-0.0117692 0 -0.248703)
(-0.0182926 0 0.287343)
(-0.000566736 0 0.564877)
(-0.0105989 0 0.55013)
(-0.0138221 0 0.488129)
(-0.0147938 0 0.433469)
(-0.0148255 0 0.383587)
(-0.0142433 0 0.335154)
(-0.0132576 0 0.286597)
(-0.011952 0 0.236874)
(-0.0103898 0 0.185785)
(-0.00869384 0 0.134639)
(-0.00705318 0 0.0864236)
(-0.0056546 0 0.044943)
(-0.00459472 0 0.0132175)
(-0.00385288 0 -0.00779165)
(-0.00334298 0 -0.0192818)
(-0.00297717 0 -0.0237116)
(-0.0026969 0 -0.0236964)
(-0.00247501 0 -0.0213106)
(-0.00230237 0 -0.0178864)
(-0.00217666 0 -0.0141193)
(-0.00209046 0 -0.0102808)
(-0.00203162 0 -0.00637609)
(-0.00203028 0 -0.00217184)
(-0.0149568 0 0.847105)
(0.0844178 0 0.38733)
(-0.00502879 0 -0.949478)
(-0.112123 0 0.387992)
(-0.00785551 0 0.750985)
(-0.0296339 0 0.644997)
(-0.0105752 0 0.582095)
(-0.00220644 0 0.555235)
(0.00797609 0 0.555954)
(0.0189035 0 0.584969)
(0.0312759 0 0.640564)
(0.04596 0 0.721881)
(0.0652996 0 0.838485)
(0.0891456 0 1.01785)
(0.125394 0 0.895327)
(0.185738 0 -1.2317)
(-0.161595 0 -1.22412)
(-0.130773 0 0.859213)
(-0.0719088 0 1.03022)
(-0.0619854 0 0.866014)
(-0.0452621 0 0.777121)
(-0.0363136 0 0.731916)
(-0.033605 0 0.717854)
(-0.0422132 0 0.66579)
(-0.0116125 0 0.284529)
(-0.0149584 0 -0.236889)
(-0.0271429 0 0.273182)
(-0.0077348 0 0.565857)
(-0.0172826 0 0.556474)
(-0.0199136 0 0.491474)
(-0.0204424 0 0.434316)
(-0.020114 0 0.383087)
(-0.0191237 0 0.333777)
(-0.0177184 0 0.284492)
(-0.0159717 0 0.23411)
(-0.0139486 0 0.182496)
(-0.0117963 0 0.131109)
(-0.0097363 0 0.0830415)
(-0.00798014 0 0.0420498)
(-0.00663344 0 0.010961)
(-0.00567242 0 -0.00946635)
(-0.00500013 0 -0.0205313)
(-0.00451457 0 -0.0246836)
(-0.00414537 0 -0.0244827)
(-0.00385697 0 -0.0219514)
(-0.00363511 0 -0.018392)
(-0.0034749 0 -0.0144908)
(-0.00336622 0 -0.0105246)
(-0.00329205 0 -0.00650758)
(-0.00329061 0 -0.00221037)
(-0.0206311 0 0.82824)
(0.0839078 0 0.360422)
(-0.00468412 0 -0.854722)
(-0.117911 0 0.366799)
(-0.0123644 0 0.73628)
(-0.0342224 0 0.637966)
(-0.0113331 0 0.574895)
(-0.00226859 0 0.547558)
(0.0101956 0 0.548155)
(0.0231498 0 0.576358)
(0.0377291 0 0.630453)
(0.0546912 0 0.709451)
(0.075608 0 0.823369)
(0.101296 0 0.995924)
(0.140156 0 0.861342)
(0.182037 0 -1.13397)
(-0.15662 0 -1.11056)
(-0.141919 0 0.822479)
(-0.0835164 0 1.01133)
(-0.071058 0 0.853191)
(-0.0529721 0 0.767232)
(-0.0431058 0 0.726859)
(-0.0386336 0 0.717821)
(-0.0469803 0 0.65907)
(-0.012093 0 0.264231)
(-0.0181806 0 -0.219847)
(-0.0363033 0 0.263589)
(-0.0167742 0 0.56494)
(-0.0248892 0 0.5606)
(-0.0262704 0 0.493515)
(-0.0261368 0 0.434229)
(-0.0252801 0 0.381825)
(-0.023769 0 0.331722)
(-0.0218842 0 0.281736)
(-0.0196721 0 0.230704)
(-0.017196 0 0.178589)
(-0.0146228 0 0.127014)
(-0.0121963 0 0.0791766)
(-0.0101393 0 0.0387629)
(-0.00855591 0 0.00839347)
(-0.00741469 0 -0.0113808)
(-0.00660828 0 -0.0219607)
(-0.00602439 0 -0.0257893)
(-0.00558431 0 -0.0253692)
(-0.00524522 0 -0.0226674)
(-0.00498766 0 -0.0189517)
(-0.00480349 0 -0.0148974)
(-0.00468055 0 -0.0107864)
(-0.00459932 0 -0.00664493)
(-0.00459409 0 -0.00224881)
(-0.0270913 0 0.808488)
(0.0770187 0 0.336532)
(-0.0064226 0 -0.765564)
(-0.116681 0 0.350907)
(-0.015604 0 0.720805)
(-0.0368997 0 0.63023)
(-0.0113482 0 0.566701)
(-0.00211584 0 0.538863)
(0.0122675 0 0.539276)
(0.0266298 0 0.566582)
(0.0427368 0 0.619218)
(0.0612028 0 0.696032)
(0.0827429 0 0.807798)
(0.107449 0 0.974974)
(0.146601 0 0.833974)
(0.172629 0 -1.03351)
(-0.148257 0 -0.999958)
(-0.145288 0 0.795104)
(-0.0903952 0 0.992234)
(-0.0769506 0 0.839885)
(-0.0582436 0 0.75656)
(-0.0480613 0 0.720988)
(-0.0418706 0 0.716387)
(-0.0487881 0 0.649297)
(-0.0112516 0 0.245384)
(-0.0224112 0 -0.198226)
(-0.0458118 0 0.258305)
(-0.0265259 0 0.562403)
(-0.032624 0 0.562599)
(-0.0323957 0 0.494159)
(-0.0314938 0 0.433092)
(-0.0300099 0 0.3797)
(-0.0279394 0 0.328915)
(-0.0255747 0 0.278289)
(-0.0229219 0 0.226644)
(-0.0200445 0 0.174071)
(-0.0171248 0 0.122374)
(-0.0144151 0 0.0748459)
(-0.0121339 0 0.0350892)
(-0.0103727 0 0.00550867)
(-0.00908932 0 -0.0135517)
(-0.00816973 0 -0.0235927)
(-0.00749785 0 -0.0270514)
(-0.00699131 0 -0.0263746)
(-0.00660314 0 -0.0234722)
(-0.00631012 0 -0.0195762)
(-0.00610112 0 -0.0153492)
(-0.0059624 0 -0.0110777)
(-0.00587314 0 -0.00679903)
(-0.00585952 0 -0.00229281)
(-0.0320469 0 0.789176)
(0.0674758 0 0.315424)
(-0.00939875 0 -0.68452)
(-0.112197 0 0.338506)
(-0.0178511 0 0.705624)
(-0.0379411 0 0.622143)
(-0.0107937 0 0.557853)
(-0.00176137 0 0.529471)
(0.014141 0 0.529608)
(0.0293403 0 0.555984)
(0.0463683 0 0.607321)
(0.0657386 0 0.682196)
(0.08716 0 0.792657)
(0.110573 0 0.955327)
(0.148005 0 0.812465)
(0.161812 0 -0.933499)
(-0.138924 0 -0.89483)
(-0.143475 0 0.774619)
(-0.0936641 0 0.973869)
(-0.0800669 0 0.826753)
(-0.0613226 0 0.745569)
(-0.0511867 0 0.714555)
(-0.0433568 0 0.713573)
(-0.0479613 0 0.637319)
(-0.0100378 0 0.229577)
(-0.0273159 0 -0.17258)
(-0.0547008 0 0.256769)
(-0.0360352 0 0.558388)
(-0.0398662 0 0.562528)
(-0.0379552 0 0.493414)
(-0.0362696 0 0.430935)
(-0.0341173 0 0.376724)
(-0.0314991 0 0.325347)
(-0.0286896 0 0.274133)
(-0.0256465 0 0.22192)
(-0.0224348 0 0.168949)
(-0.0192453 0 0.117208)
(-0.0163278 0 0.0700724)
(-0.0138867 0 0.0310433)
(-0.0119967 0 0.00230631)
(-0.0106047 0 -0.0159949)
(-0.0095933 0 -0.0254544)
(-0.00884628 0 -0.028502)
(-0.00828045 0 -0.0275301)
(-0.0078469 0 -0.0243936)
(-0.00752011 0 -0.0202887)
(-0.0072865 0 -0.0158652)
(-0.00713165 0 -0.0114137)
(-0.00703425 0 -0.00698052)
(-0.00701004 0 -0.00234623)
(-0.0344443 0 0.770301)
(0.0581885 0 0.2971)
(-0.0125365 0 -0.612279)
(-0.106976 0 0.328185)
(-0.0194671 0 0.690903)
(-0.0376888 0 0.613743)
(-0.00978951 0 0.548643)
(-0.001221 0 0.519657)
(0.0157976 0 0.51943)
(0.0313464 0 0.544857)
(0.0487601 0 0.595088)
(0.0686368 0 0.668237)
(0.0892934 0 0.778001)
(0.112412 0 0.936896)
(0.146945 0 0.795462)
(0.152316 0 -0.836787)
(-0.128651 0 -0.795985)
(-0.138874 0 0.759184)
(-0.0944598 0 0.956731)
(-0.0808339 0 0.814048)
(-0.0625438 0 0.734545)
(-0.0526151 0 0.707613)
(-0.0433256 0 0.709167)
(-0.0451857 0 0.623903)
(-0.00901958 0 0.21814)
(-0.032127 0 -0.143242)
(-0.0620955 0 0.258372)
(-0.0444664 0 0.552951)
(-0.0460367 0 0.560362)
(-0.0426189 0 0.491263)
(-0.0402356 0 0.427809)
(-0.0374584 0 0.372974)
(-0.0343575 0 0.321105)
(-0.031164 0 0.269371)
(-0.0277932 0 0.216654)
(-0.0243155 0 0.163361)
(-0.0209249 0 0.111665)
(-0.0178621 0 0.0649989)
(-0.0153134 0 0.0267498)
(-0.0133355 0 -0.0011142)
(-0.0118659 0 -0.0186365)
(-0.0107854 0 -0.027494)
(-0.00997931 0 -0.0301065)
(-0.00936519 0 -0.0288137)
(-0.00889381 0 -0.0254177)
(-0.00853834 0 -0.021081)
(-0.00828335 0 -0.0164413)
(-0.0081146 0 -0.0117925)
(-0.00801091 0 -0.0071887)
(-0.00797547 0 -0.00240902)
(-0.0343164 0 0.751528)
(0.05077 0 0.281845)
(-0.0150887 0 -0.547626)
(-0.102062 0 0.319352)
(-0.0204934 0 0.676429)
(-0.0363951 0 0.60501)
(-0.00838075 0 0.539326)
(-0.000500762 0 0.509686)
(0.0172438 0 0.509031)
(0.0327313 0 0.533501)
(0.0500643 0 0.582791)
(0.0701566 0 0.654422)
(0.0895947 0 0.763545)
(0.113449 0 0.919517)
(0.144933 0 0.781902)
(0.144889 0 -0.744789)
(-0.117003 0 -0.702601)
(-0.132944 0 0.747893)
(-0.0933846 0 0.941016)
(-0.0797614 0 0.801806)
(-0.0622702 0 0.723699)
(-0.0526157 0 0.700191)
(-0.0421419 0 0.703104)
(-0.0412205 0 0.609815)
(-0.00830413 0 0.211652)
(-0.0360762 0 -0.111044)
(-0.0674263 0 0.262502)
(-0.0511728 0 0.546358)
(-0.0506959 0 0.556303)
(-0.0460957 0 0.48783)
(-0.0431708 0 0.42383)
(-0.0398896 0 0.368561)
(-0.0364196 0 0.316305)
(-0.0329288 0 0.26413)
(-0.0293071 0 0.210984)
(-0.0256359 0 0.157453)
(-0.0221093 0 0.105884)
(-0.0189571 0 0.0597534)
(-0.0163467 0 0.0223196)
(-0.0143182 0 -0.00465952)
(-0.0128007 0 -0.0213997)
(-0.0116747 0 -0.0296497)
(-0.0108277 0 -0.031816)
(-0.0101792 0 -0.0301873)
(-0.0096805 0 -0.0265156)
(-0.00930411 0 -0.0219316)
(-0.00903324 0 -0.0170618)
(-0.00885455 0 -0.0122035)
(-0.0087475 0 -0.0074175)
(-0.00870086 0 -0.00247932)
(-0.0325072 0 0.732653)
(0.0454731 0 0.269487)
(-0.0166554 0 -0.488894)
(-0.0973494 0 0.311791)
(-0.0207427 0 0.661919)
(-0.0341858 0 0.596012)
(-0.00656685 0 0.530126)
(0.000408463 0 0.499801)
(0.0185118 0 0.498672)
(0.0335832 0 0.5222)
(0.0504538 0 0.570665)
(0.0704522 0 0.641022)
(0.0884452 0 0.749081)
(0.113219 0 0.902951)
(0.142459 0 0.770767)
(0.138732 0 -0.658126)
(-0.10432 0 -0.613574)
(-0.126313 0 0.740393)
(-0.0907931 0 0.926627)
(-0.0773481 0 0.790079)
(-0.0608435 0 0.713213)
(-0.051526 0 0.692396)
(-0.0402349 0 0.69559)
(-0.0368301 0 0.595715)
(-0.00784833 0 0.209811)
(-0.0386639 0 -0.0772133)
(-0.0703984 0 0.268561)
(-0.0557873 0 0.539037)
(-0.0536308 0 0.550795)
(-0.0482294 0 0.483416)
(-0.0449457 0 0.419223)
(-0.0413215 0 0.363662)
(-0.0376183 0 0.311096)
(-0.0339321 0 0.258542)
(-0.0301468 0 0.205031)
(-0.0263577 0 0.151336)
(-0.0227584 0 0.0999659)
(-0.0195682 0 0.0544211)
(-0.0169377 0 0.0178254)
(-0.0148925 0 -0.00826665)
(-0.0133554 0 -0.0242293)
(-0.0122074 0 -0.0318736)
(-0.0113389 0 -0.0335897)
(-0.0106714 0 -0.0316172)
(-0.0101573 0 -0.0276599)
(-0.00976909 0 -0.0228189)
(-0.00948883 0 -0.0177105)
(-0.00930473 0 -0.0126356)
(-0.00919754 0 -0.00766063)
(-0.00913967 0 -0.00255518)
(-0.0303495 0 0.713561)
(0.0414414 0 0.259432)
(-0.0171045 0 -0.43502)
(-0.092104 0 0.305291)
(-0.019954 0 0.647216)
(-0.0310963 0 0.586919)
(-0.00434893 0 0.521212)
(0.0015141 0 0.490251)
(0.0196526 0 0.488567)
(0.0339926 0 0.511197)
(0.0501131 0 0.558913)
(0.0696195 0 0.628267)
(0.0861219 0 0.734685)
(0.11083 0 0.887067)
(0.139114 0 0.761111)
(0.132327 0 -0.577224)
(-0.0918561 0 -0.528407)
(-0.119287 0 0.736297)
(-0.0871233 0 0.913326)
(-0.0740137 0 0.778962)
(-0.0585778 0 0.70323)
(-0.0496817 0 0.684425)
(-0.0380121 0 0.687029)
(-0.032671 0 0.582064)
(-0.00763871 0 0.211713)
(-0.0397892 0 -0.0430018)
(-0.0710289 0 0.276016)
(-0.0582404 0 0.531446)
(-0.0548404 0 0.544348)
(-0.0490111 0 0.478384)
(-0.0455469 0 0.414255)
(-0.0417461 0 0.358488)
(-0.0379433 0 0.305651)
(-0.0341643 0 0.252752)
(-0.0303027 0 0.19892)
(-0.0264689 0 0.145115)
(-0.0228562 0 0.0939989)
(-0.0196753 0 0.0490759)
(-0.0170623 0 0.0133297)
(-0.0150309 0 -0.0118811)
(-0.0134996 0 -0.0270769)
(-0.0123506 0 -0.0341228)
(-0.0114776 0 -0.0353908)
(-0.0108048 0 -0.0330721)
(-0.0102861 0 -0.0288253)
(-0.00989384 0 -0.0237232)
(-0.00960951 0 -0.0183731)
(-0.0094235 0 -0.0130796)
(-0.00931857 0 -0.00791321)
(-0.00924888 0 -0.00263527)
(-0.0290351 0 0.694203)
(0.0375114 0 0.250997)
(-0.0166182 0 -0.385783)
(-0.0855652 0 0.299585)
(-0.0179205 0 0.632423)
(-0.0271766 0 0.577983)
(-0.00173333 0 0.512621)
(0.00283614 0 0.481377)
(0.0206916 0 0.478892)
(0.0340449 0 0.500692)
(0.0492205 0 0.54772)
(0.0677583 0 0.616352)
(0.0828232 0 0.720787)
(0.105616 0 0.872016)
(0.134061 0 0.752249)
(0.124262 0 -0.502089)
(-0.0811618 0 -0.447387)
(-0.112168 0 0.734924)
(-0.0828946 0 0.900893)
(-0.0700979 0 0.768501)
(-0.0557474 0 0.693836)
(-0.0473564 0 0.676509)
(-0.035753 0 0.677893)
(-0.0291206 0 0.569139)
(-0.00765938 0 0.216228)
(-0.0396546 0 -0.00950401)
(-0.0696164 0 0.284375)
(-0.0586842 0 0.523972)
(-0.054465 0 0.537421)
(-0.0485307 0 0.473056)
(-0.0450412 0 0.409168)
(-0.0412147 0 0.35324)
(-0.0374294 0 0.30014)
(-0.0336504 0 0.246904)
(-0.0297929 0 0.192775)
(-0.0259814 0 0.138899)
(-0.0224096 0 0.0880721)
(-0.0192813 0 0.0437914)
(-0.0167195 0 0.00889354)
(-0.014728 0 -0.0154513)
(-0.0132229 0 -0.0298987)
(-0.0120889 0 -0.0363604)
(-0.0112237 0 -0.0371885)
(-0.0105549 0 -0.0345274)
(-0.010038 0 -0.0299925)
(-0.00964618 0 -0.0246305)
(-0.00936026 0 -0.0190407)
(-0.00917358 0 -0.0135306)
(-0.0090718 0 -0.00817341)
(-0.00898885 0 -0.00271941)
(-0.0291792 0 0.674679)
(0.0329021 0 0.243429)
(-0.0155893 0 -0.341608)
(-0.07739 0 0.294317)
(-0.0145841 0 0.617877)
(-0.0226124 0 0.569532)
(0.00131155 0 0.504649)
(0.00444518 0 0.47324)
(0.0215623 0 0.469764)
(0.0338145 0 0.490844)
(0.0479329 0 0.537256)
(0.0650256 0 0.605461)
(0.0787256 0 0.708043)
(0.0976227 0 0.858195)
(0.126717 0 0.743842)
(0.113785 0 -0.432351)
(-0.0733017 0 -0.371368)
(-0.105215 0 0.735338)
(-0.0785007 0 0.889154)
(-0.0658516 0 0.758643)
(-0.0525521 0 0.685066)
(-0.0447184 0 0.668859)
(-0.0335447 0 0.668626)
(-0.0262064 0 0.557089)
(-0.00781752 0 0.222311)
(-0.0385702 0 0.022391)
(-0.066604 0 0.293132)
(-0.0573803 0 0.516877)
(-0.052707 0 0.530389)
(-0.0469198 0 0.467698)
(-0.0435302 0 0.404156)
(-0.0398024 0 0.34808)
(-0.036129 0 0.294704)
(-0.0324289 0 0.241124)
(-0.0286455 0 0.186707)
(-0.0249155 0 0.132783)
(-0.0214338 0 0.0822685)
(-0.0183967 0 0.0386356)
(-0.0159152 0 0.00457143)
(-0.0139851 0 -0.0189343)
(-0.0125212 0 -0.0326611)
(-0.0114126 0 -0.0385608)
(-0.0105621 0 -0.0389636)
(-0.00990142 0 -0.0359693)
(-0.00938876 0 -0.0311527)
(-0.00899801 0 -0.0255364)
(-0.00870992 0 -0.0197122)
(-0.00852155 0 -0.01399)
(-0.0084223 0 -0.00844322)
(-0.00832398 0 -0.00280871)
(-0.0306198 0 0.655539)
(0.0275307 0 0.235691)
(-0.0144684 0 -0.303152)
(-0.0678053 0 0.289015)
(-0.0100615 0 0.60399)
(-0.0175275 0 0.561916)
(0.00462596 0 0.497687)
(0.0062181 0 0.465729)
(0.0223194 0 0.461283)
(0.0333811 0 0.481757)
(0.0463853 0 0.527662)
(0.0616564 0 0.595738)
(0.0740539 0 0.697071)
(0.0877002 0 0.84608)
(0.11718 0 0.735948)
(0.101014 0 -0.367609)
(-0.0684375 0 -0.30137)
(-0.0984693 0 0.73649)
(-0.0740248 0 0.877985)
(-0.0613995 0 0.749281)
(-0.0490883 0 0.676919)
(-0.041825 0 0.661622)
(-0.0313079 0 0.659559)
(-0.0236964 0 0.54599)
(-0.00793958 0 0.229175)
(-0.0368033 0 0.0520508)
(-0.062433 0 0.30178)
(-0.0546172 0 0.510276)
(-0.0497699 0 0.52353)
(-0.0443083 0 0.462516)
(-0.0411148 0 0.399366)
(-0.0375814 0 0.343134)
(-0.034092 0 0.289455)
(-0.0305352 0 0.235515)
(-0.0268849 0 0.180811)
(-0.0232879 0 0.126854)
(-0.019939 0 0.0766608)
(-0.0170264 0 0.0336666)
(-0.0146494 0 0.000407303)
(-0.0127968 0 -0.0222985)
(-0.0113847 0 -0.0353427)
(-0.0103077 0 -0.0407101)
(-0.00947489 0 -0.0407086)
(-0.0088232 0 -0.037395)
(-0.00831408 0 -0.0323067)
(-0.00792275 0 -0.0264444)
(-0.00763013 0 -0.020393)
(-0.00743769 0 -0.0144635)
(-0.00733952 0 -0.00872743)
(-0.00722357 0 -0.00290512)
(-0.0328729 0 0.63749)
(0.0216221 0 0.226989)
(-0.0133401 0 -0.270843)
(-0.0574624 0 0.283162)
(-0.00464243 0 0.591056)
(-0.0121147 0 0.55554)
(0.00800446 0 0.491661)
(0.00802929 0 0.458982)
(0.023015 0 0.453553)
(0.032807 0 0.473488)
(0.0446981 0 0.519028)
(0.0579452 0 0.587258)
(0.0691092 0 0.688222)
(0.0772121 0 0.835992)
(0.106246 0 0.728939)
(0.0868567 0 -0.307354)
(-0.0658943 0 -0.238248)
(-0.0916963 0 0.737388)
(-0.0692301 0 0.867342)
(-0.0567297 0 0.740344)
(-0.0453521 0 0.669378)
(-0.038655 0 0.654866)
(-0.028888 0 0.650886)
(-0.0212739 0 0.535874)
(-0.00782631 0 0.236336)
(-0.0345173 0 0.0791251)
(-0.057455 0 0.309868)
(-0.0506644 0 0.504151)
(-0.0458264 0 0.51703)
(-0.0408006 0 0.457662)
(-0.0378751 0 0.394911)
(-0.0346072 0 0.338497)
(-0.0313564 0 0.284482)
(-0.0279955 0 0.230159)
(-0.0245276 0 0.175168)
(-0.0211072 0 0.121183)
(-0.0179274 0 0.0713095)
(-0.0151669 0 0.0289315)
(-0.0129134 0 -0.00356503)
(-0.0111508 0 -0.0255213)
(-0.00979776 0 -0.0379299)
(-0.00875594 0 -0.042802)
(-0.00794211 0 -0.042422)
(-0.00729898 0 -0.0388068)
(-0.00679178 0 -0.0334597)
(-0.00639753 0 -0.0273616)
(-0.0060977 0 -0.021091)
(-0.00589865 0 -0.0149586)
(-0.00579997 0 -0.00903145)
(-0.0056646 0 -0.00301072)
(-0.0352609 0 0.620693)
(0.0156929 0 0.21726)
(-0.0122018 0 -0.244648)
(-0.047193 0 0.276343)
(0.00134578 0 0.579046)
(-0.00671644 0 0.550576)
(0.0112052 0 0.486668)
(0.00990372 0 0.453169)
(0.0236413 0 0.446624)
(0.032139 0 0.466055)
(0.0429747 0 0.51138)
(0.0541937 0 0.579998)
(0.0642349 0 0.681475)
(0.0675417 0 0.82796)
(0.0951159 0 0.723282)
(0.0727225 0 -0.251105)
(-0.0644606 0 -0.182493)
(-0.0844826 0 0.737252)
(-0.0637134 0 0.857292)
(-0.0517381 0 0.731861)
(-0.0412792 0 0.662437)
(-0.0351605 0 0.648605)
(-0.0261518 0 0.642693)
(-0.0186888 0 0.526744)
(-0.00731963 0 0.243541)
(-0.0317778 0 0.103493)
(-0.0518973 0 0.317033)
(-0.0457407 0 0.498394)
(-0.0410041 0 0.510978)
(-0.0364699 0 0.453236)
(-0.0338665 0 0.390871)
(-0.0309182 0 0.334242)
(-0.0279495 0 0.279855)
(-0.024829 0 0.225129)
(-0.0215858 0 0.169845)
(-0.0183792 0 0.115832)
(-0.0153991 0 0.066265)
(-0.0128131 0 0.0244681)
(-0.0106983 0 -0.0073193)
(-0.00903533 0 -0.028586)
(-0.00774704 0 -0.0404132)
(-0.00674341 0 -0.0448321)
(-0.00594958 0 -0.0441036)
(-0.00531464 0 -0.0402077)
(-0.00480804 0 -0.0346168)
(-0.00440911 0 -0.0282944)
(-0.00409992 0 -0.021813)
(-0.00389174 0 -0.0154813)
(-0.00379119 0 -0.00935952)
(-0.003636 0 -0.00312705)
(-0.0371163 0 0.605135)
(0.0103568 0 0.206834)
(-0.0111352 0 -0.224242)
(-0.037784 0 0.268355)
(0.00749004 0 0.567974)
(-0.00141212 0 0.546744)
(0.0141205 0 0.482961)
(0.011725 0 0.448312)
(0.0241611 0 0.440493)
(0.0314183 0 0.459439)
(0.0412937 0 0.50467)
(0.0506537 0 0.573832)
(0.0597465 0 0.676483)
(0.0596757 0 0.821736)
(0.0849487 0 0.719337)
(0.0601341 0 -0.198701)
(-0.0627274 0 -0.134031)
(-0.0764194 0 0.735627)
(-0.0571137 0 0.848008)
(-0.0463013 0 0.723981)
(-0.0368 0 0.656125)
(-0.0313143 0 0.642841)
(-0.0230437 0 0.635007)
(-0.0158253 0 0.51858)
(-0.00633916 0 0.25066)
(-0.0285849 0 0.125164)
(-0.0458645 0 0.323009)
(-0.0399946 0 0.492854)
(-0.0353858 0 0.5054)
(-0.0313648 0 0.449299)
(-0.0291278 0 0.387305)
(-0.0265441 0 0.330427)
(-0.0238967 0 0.275633)
(-0.0210566 0 0.220484)
(-0.0180758 0 0.1649)
(-0.0151157 0 0.110852)
(-0.012361 0 0.0615694)
(-0.00996834 0 0.0203074)
(-0.00800484 0 -0.0108341)
(-0.00644955 0 -0.0314785)
(-0.00523117 0 -0.0427838)
(-0.00426878 0 -0.0467959)
(-0.00349647 0 -0.0457522)
(-0.00287008 0 -0.0415988)
(-0.00236353 0 -0.0357812)
(-0.00195889 0 -0.0292473)
(-0.00163932 0 -0.0225633)
(-0.00141992 0 -0.0160353)
(-0.00131602 0 -0.00971488)
(-0.00114162 0 -0.00325526)
(-0.0379857 0 0.590864)
(0.00592913 0 0.196047)
(-0.0103377 0 -0.208905)
(-0.029537 0 0.259193)
(0.0133508 0 0.557935)
(0.00366749 0 0.543823)
(0.0167836 0 0.480423)
(0.0133823 0 0.444323)
(0.0245569 0 0.435121)
(0.030675 0 0.45358)
(0.0397034 0 0.498796)
(0.0474864 0 0.568568)
(0.0558559 0 0.672714)
(0.0540144 0 0.816883)
(0.0765056 0 0.717204)
(0.0504139 0 -0.150003)
(-0.0594074 0 -0.0925053)
(-0.0673111 0 0.732388)
(-0.0492681 0 0.839709)
(-0.040343 0 0.716942)
(-0.031885 0 0.650515)
(-0.0271315 0 0.637597)
(-0.0195904 0 0.627848)
(-0.0126888 0 0.511341)
(-0.00487505 0 0.257586)
(-0.0249105 0 0.144181)
(-0.0393768 0 0.32761)
(-0.0335143 0 0.487375)
(-0.029026 0 0.500283)
(-0.0255255 0 0.445893)
(-0.0236969 0 0.384266)
(-0.0215209 0 0.327109)
(-0.0192323 0 0.271875)
(-0.0167107 0 0.216281)
(-0.0140264 0 0.160387)
(-0.0113417 0 0.10629)
(-0.00883483 0 0.0572586)
(-0.00665103 0 0.0164758)
(-0.00484946 0 -0.0140909)
(-0.0034091 0 -0.0341859)
(-0.00226561 0 -0.0450331)
(-0.00134785 0 -0.0486877)
(-0.000599192 0 -0.0473646)
(1.74534e-05 0 -0.0429794)
(0.000523535 0 -0.0369539)
(0.000934183 0 -0.0302224)
(0.00126427 0 -0.023345)
(0.00149344 0 -0.0166239)
(0.001602 0 -0.0101)
(0.00179647 0 -0.00339665)
(-0.0378172 0 0.577915)
(0.00243227 0 0.185075)
(-0.0099493 0 -0.197589)
(-0.0225128 0 0.248958)
(0.0186148 0 0.548535)
(0.00835935 0 0.541866)
(0.0192198 0 0.478899)
(0.014848 0 0.44113)
(0.0248335 0 0.430458)
(0.029923 0 0.448395)
(0.0382204 0 0.493624)
(0.0447463 0 0.563979)
(0.0526286 0 0.66961)
(0.0504184 0 0.812888)
(0.0701892 0 0.716612)
(0.0442343 0 -0.105031)
(-0.0538085 0 -0.0571744)
(-0.0571027 0 0.727745)
(-0.0402619 0 0.832615)
(-0.0338697 0 0.711008)
(-0.026564 0 0.645707)
(-0.0226676 0 0.632922)
(-0.0158693 0 0.621243)
(-0.00934928 0 0.504959)
(-0.00295705 0 0.264173)
(-0.020732 0 0.160571)
(-0.032429 0 0.33071)
(-0.0263671 0 0.48183)
(-0.021983 0 0.495603)
(-0.019008 0 0.443056)
(-0.0176297 0 0.381809)
(-0.0159027 0 0.324343)
(-0.0140105 0 0.268634)
(-0.0118425 0 0.212572)
(-0.00948491 0 0.156353)
(-0.00709994 0 0.102186)
(-0.00485895 0 0.0533626)
(-0.00289658 0 0.0129952)
(-0.00126541 0 -0.0170738)
(5.40333e-05 0 -0.0366965)
(0.00111806 0 -0.0471518)
(0.00198761 0 -0.0505007)
(0.00270994 0 -0.0489361)
(0.00331496 0 -0.0443463)
(0.0038192 0 -0.0381326)
(0.00423468 0 -0.0312181)
(0.00457428 0 -0.0241569)
(0.00481254 0 -0.017246)
(0.00492518 0 -0.0105132)
(0.00513584 0 -0.00355043)
(-0.036838 0 0.566342)
(-0.000357237 0 0.174236)
(-0.0100727 0 -0.189452)
(-0.0167757 0 0.237424)
(0.023145 0 0.539543)
(0.0127229 0 0.540918)
(0.0213928 0 0.478341)
(0.0161049 0 0.438705)
(0.0249862 0 0.426447)
(0.0291578 0 0.443803)
(0.0368307 0 0.489023)
(0.0423895 0 0.559855)
(0.0499829 0 0.66671)
(0.0483448 0 0.809261)
(0.0659059 0 0.716897)
(0.0416688 0 -0.0642756)
(-0.0457996 0 -0.0267112)
(-0.0460383 0 0.722185)
(-0.03043 0 0.826892)
(-0.0269821 0 0.706405)
(-0.0209236 0 0.641804)
(-0.0180008 0 0.628881)
(-0.0119702 0 0.615228)
(-0.00588235 0 0.499337)
(-0.000624671 0 0.270235)
(-0.0160617 0 0.174332)
(-0.0250476 0 0.332236)
(-0.0186481 0 0.476124)
(-0.0143499 0 0.491341)
(-0.0119025 0 0.440822)
(-0.0110142 0 0.379984)
(-0.0097716 0 0.322183)
(-0.00830935 0 0.26596)
(-0.00652396 0 0.209404)
(-0.00451678 0 0.152838)
(-0.00245016 0 0.0985686)
(-0.000487279 0 0.0499047)
(0.00124628 0 0.00988217)
(0.00270148 0 -0.0197705)
(0.00389559 0 -0.0390002)
(0.00487663 0 -0.0491319)
(0.00569517 0 -0.0522282)
(0.00638897 0 -0.0504611)
(0.00698083 0 -0.0456951)
(0.0074822 0 -0.0393139)
(0.00790169 0 -0.0322306)
(0.00824987 0 -0.024994)
(0.00849703 0 -0.0178953)
(0.00861385 0 -0.0109484)
(0.00883799 0 -0.00371344)
(-0.0353438 0 0.556286)
(-0.0028468 0 0.163977)
(-0.0110006 0 -0.183932)
(-0.0120951 0 0.224289)
(0.0271066 0 0.530957)
(0.0167104 0 0.540861)
(0.023272 0 0.478701)
(0.0171356 0 0.437007)
(0.0249989 0 0.423026)
(0.02836 0 0.439727)
(0.0354969 0 0.484882)
(0.040303 0 0.556041)
(0.0477268 0 0.663724)
(0.0470483 0 0.805627)
(0.0630686 0 0.717267)
(0.0422526 0 -0.0278178)
(-0.0357575 0 -0.000212078)
(-0.0347022 0 0.71625)
(-0.0202862 0 0.822592)
(-0.0198625 0 0.70326)
(-0.0150892 0 0.63888)
(-0.0132133 0 0.625531)
(-0.00796641 0 0.609833)
(-0.00233249 0 0.494378)
(0.00208252 0 0.275542)
(-0.010963 0 0.185477)
(-0.0173191 0 0.332163)
(-0.0105036 0 0.470199)
(-0.00627551 0 0.487481)
(-0.00434449 0 0.439211)
(-0.00396859 0 0.378838)
(-0.00323595 0 0.320671)
(-0.00222927 0 0.263893)
(-0.000844738 0 0.20681)
(0.000797649 0 0.149868)
(0.00253767 0 0.0954588)
(0.00421746 0 0.0468976)
(0.00571909 0 0.00714487)
(0.00699724 0 -0.0221749)
(0.00806494 0 -0.0410918)
(0.00896165 0 -0.0509682)
(0.00972772 0 -0.0538657)
(0.0103918 0 -0.0519363)
(0.0109698 0 -0.0470236)
(0.0114681 0 -0.0404964)
(0.0118917 0 -0.0332593)
(0.0122489 0 -0.0258558)
(0.0125065 0 -0.0185712)
(0.0126306 0 -0.0114065)
(0.012869 0 -0.00388718)
(-0.0335484 0 0.547966)
(-0.00542239 0 0.154762)
(-0.0129036 0 -0.180667)
(-0.00829311 0 0.209501)
(0.0306569 0 0.522469)
(0.0203036 0 0.541561)
(0.0248567 0 0.479928)
(0.0179244 0 0.43598)
(0.0248558 0 0.420134)
(0.0275055 0 0.436104)
(0.0341725 0 0.481123)
(0.0383475 0 0.552453)
(0.0456232 0 0.660565)
(0.0458069 0 0.801784)
(0.0610378 0 0.716941)
(0.0448028 0 0.00445906)
(-0.0247729 0 0.0229566)
(-0.0236533 0 0.710432)
(-0.0103965 0 0.819629)
(-0.0127349 0 0.701555)
(-0.00920038 0 0.636954)
(-0.00837596 0 0.622891)
(-0.0038842 0 0.60506)
(0.00126916 0 0.489942)
(0.00512178 0 0.279886)
(-0.00551986 0 0.194099)
(-0.00939721 0 0.330547)
(-0.00212356 0 0.464)
(0.00204109 0 0.483985)
(0.00349766 0 0.438224)
(0.00336238 0 0.378391)
(0.00357268 0 0.31983)
(0.00412039 0 0.262455)
(0.00509781 0 0.204807)
(0.00637289 0 0.147453)
(0.00778768 0 0.0928605)
(0.00918817 0 0.0443403)
(0.0104625 0 0.00478104)
(0.0115674 0 -0.0242888)
(0.0125112 0 -0.0429715)
(0.0133246 0 -0.0526598)
(0.0140384 0 -0.0554116)
(0.0146726 0 -0.0533606)
(0.0152364 0 -0.0483315)
(0.0157316 0 -0.041681)
(0.0161599 0 -0.0343069)
(0.0165276 0 -0.0267481)
(0.0167994 0 -0.0192844)
(0.0169372 0 -0.0119003)
(0.0171926 0 -0.00407894)
(-0.0314964 0 0.541648)
(-0.00827995 0 0.147021)
(-0.015764 0 -0.179463)
(-0.0053306 0 0.192914)
(0.0338399 0 0.513851)
(0.0235034 0 0.542972)
(0.026137 0 0.48199)
(0.0184511 0 0.435568)
(0.0245439 0 0.417712)
(0.0265724 0 0.432881)
(0.032817 0 0.477705)
(0.0363985 0 0.549079)
(0.0434549 0 0.657315)
(0.0440385 0 0.797704)
(0.0591443 0 0.715256)
(0.0479635 0 0.032342)
(-0.0141183 0 0.0437002)
(-0.0134697 0 0.705172)
(-0.00129894 0 0.817673)
(-0.00582751 0 0.701191)
(-0.00338235 0 0.63596)
(-0.00354684 0 0.620937)
(0.000249295 0 0.600882)
(0.00492391 0 0.485895)
(0.00852216 0 0.283194)
(0.000181055 0 0.200254)
(-0.00152978 0 0.32751)
(0.00624643 0 0.457509)
(0.0104075 0 0.480798)
(0.0114459 0 0.437834)
(0.0108249 0 0.378628)
(0.0105259 0 0.319661)
(0.0106273 0 0.261644)
(0.0112067 0 0.203389)
(0.0121262 0 0.145584)
(0.0132285 0 0.0907603)
(0.0143627 0 0.0422185)
(0.0154216 0 0.00277737)
(0.0163625 0 -0.0261222)
(0.0171885 0 -0.0446458)
(0.0179223 0 -0.05421)
(0.0185856 0 -0.0568673)
(0.0191904 0 -0.0547339)
(0.0197399 0 -0.0496184)
(0.0202315 0 -0.042868)
(0.0206644 0 -0.0353766)
(0.0210438 0 -0.0276802)
(0.0213337 0 -0.0200507)
(0.021492 0 -0.0124474)
(0.0217671 0 -0.00429721)
(-0.0290421 0 0.537615)
(-0.0113425 0 0.141178)
(-0.0194098 0 -0.180167)
(-0.00325062 0 0.174317)
(0.0365974 0 0.505001)
(0.0262371 0 0.545074)
(0.0270655 0 0.484854)
(0.0186854 0 0.435719)
(0.0240509 0 0.415703)
(0.0255467 0 0.430013)
(0.0314081 0 0.474611)
(0.0343753 0 0.545966)
(0.0410748 0 0.654178)
(0.0414102 0 0.793486)
(0.0568185 0 0.71187)
(0.0505168 0 0.055891)
(-0.00489014 0 0.0625586)
(-0.00475238 0 0.700626)
(0.00660989 0 0.816334)
(0.000732986 0 0.701909)
(0.00222543 0 0.635744)
(0.00125134 0 0.619596)
(0.00444818 0 0.597241)
(0.00868172 0 0.482153)
(0.0121748 0 0.285472)
(0.00601054 0 0.204134)
(0.00618108 0 0.323133)
(0.0143805 0 0.450724)
(0.0186241 0 0.477844)
(0.0193267 0 0.437967)
(0.0182771 0 0.379502)
(0.0175086 0 0.320132)
(0.0171921 0 0.261433)
(0.0173985 0 0.202528)
(0.0179871 0 0.144232)
(0.0188004 0 0.089128)
(0.0196896 0 0.0405036)
(0.0205514 0 0.00110911)
(0.0213424 0 -0.0276946)
(0.0220607 0 -0.046128)
(0.0227213 0 -0.055627)
(0.0233376 0 -0.0582367)
(0.0239146 0 -0.056057)
(0.0244497 0 -0.050883)
(0.0249368 0 -0.0440556)
(0.0253729 0 -0.0364683)
(0.0257634 0 -0.028657)
(0.0260722 0 -0.0208814)
(0.0262539 0 -0.0130613)
(0.0265493 0 -0.00454905)
(-0.0258816 0 0.536121)
(-0.0142654 0 0.137681)
(-0.0235245 0 -0.182536)
(-0.00216445 0 0.153623)