/*--------------------------------*- C++ -*----------------------------------*\
  =========                 |
  \\      /  F ield         | OpenFOAM: The Open Source CFD Toolbox
   \\    /   O peration     | Website:  https://openfoam.org
    \\  /    A nd           | Version:  9
     \\/     M anipulation  |
\*---------------------------------------------------------------------------*/
FoamFile
{
    format      ascii;
    class       volScalarField;
    location    "0.08";
    object      alpha.water;
}
// * * * * * * * * * * * * * * * * * * * * * * * * * * * * * * * * * * * * * //

dimensions      [0 0 0 0 0 0 0];

internalField   nonuniform List<scalar> 
20000
(
4.05628e-319
7.78341e-319
3.7328e-318
1.61084e-317
7.51648e-317
3.50086e-316
1.68599e-315
8.37096e-315
4.2818e-314
2.25013e-313
1.21145e-312
6.66899e-312
3.75445e-311
2.16875e-310
1.29314e-309
8.01128e-309
5.18471e-308
3.52294e-307
2.53724e-306
1.98135e-305
1.75373e-304
1.85108e-303
2.28978e-302
7.58465e-302
1.46208e-301
1.31331e-300
1.4309e-299
1.56472e-298
1.72137e-297
1.96473e-296
2.4239e-295
3.15215e-294
1.60587e-295
1.00136e-296
1.32843e-297
2.20064e-297
6.21384e-298
1.04483e-298
2.5883e-299
4.10968e-299
7.59214e-299
8.1369e-299
4.12236e-298
3.73212e-297
3.38935e-296
2.97082e-295
2.49379e-294
1.99124e-293
1.49789e-292
1.04466e-291
6.58315e-291
3.65168e-290
1.80198e-289
8.2504e-289
3.43398e-288
1.20027e-287
3.12884e-287
5.89445e-287
2.40351e-286
2.91652e-285
3.81589e-284
4.8896e-283
6.0728e-282
7.29146e-281
8.5538e-280
9.90073e-279
8.57463e-278
7.52616e-279
5.57079e-280
4.2432e-281
3.62888e-282
3.06904e-283
2.58515e-284
2.19065e-285
1.88383e-286
1.65957e-287
1.51837e-288
1.46743e-289
1.50215e-290
1.58024e-291
1.65845e-292
1.75004e-293
1.895e-294
2.12756e-295
2.48026e-296
2.99756e-297
3.7496e-298
4.84999e-299
6.48458e-300
8.96191e-301
1.28041e-301
1.89142e-302
2.88913e-303
4.56375e-304
7.45547e-305
1.25964e-305
2.20115e-306
3.97805e-307
7.42244e-308
1.36711e-308
2.43435e-318
1.08993e-317
4.62981e-317
1.99796e-316
8.81631e-316
4.02721e-315
1.90101e-314
9.25947e-314
4.64525e-313
2.39427e-312
1.26454e-311
6.83047e-311
3.77367e-310
2.13896e-309
1.25096e-308
7.59793e-308
4.8174e-307
3.20186e-306
2.24702e-305
1.69788e-304
1.44861e-303
1.51852e-302
1.9594e-301
7.54428e-301
1.80966e-300
1.47075e-299
1.48174e-298
1.50804e-297
1.53603e-296
1.59791e-295
1.78366e-294
2.06151e-293
1.16334e-294
7.93237e-296
2.26195e-296
5.79893e-296
1.67216e-296
2.90873e-297
9.22452e-298
1.78587e-297
3.366e-297
4.21432e-297
2.41609e-296
2.19126e-295
1.97735e-294
1.72029e-293
1.4323e-292
1.13372e-291
8.45055e-291
5.83978e-290
3.64919e-289
2.00988e-288
9.85829e-288
4.48707e-287
1.85505e-286
6.42156e-286
1.62998e-285
2.53709e-285
4.4781e-285
4.31829e-284
5.45721e-283
6.78793e-282
8.17114e-281
9.45689e-280
1.0562e-278
1.15821e-277
9.3941e-277
8.88672e-278
6.9188e-279
5.52568e-280
4.89407e-281
4.2777e-282
3.72654e-283
3.26662e-284
2.90399e-285
2.64188e-286
2.49513e-287
2.49201e-288
2.63909e-289
2.87062e-290
3.11232e-291
3.39081e-292
3.78649e-293
4.37453e-294
5.23353e-295
6.47494e-296
8.27515e-297
1.09202e-297
1.48803e-298
2.09426e-299
3.04516e-300
4.5757e-301
7.10639e-302
1.14085e-302
1.89329e-303
3.24812e-304
5.76078e-305
1.05617e-305
1.99789e-306
3.72419e-307
1.82626e-317
7.55377e-317
3.08495e-316
1.29908e-315
5.64974e-315
2.53928e-314
1.17865e-313
5.64407e-313
2.78364e-312
1.41093e-311
7.33238e-311
3.90019e-310
2.12351e-309
1.18682e-308
6.84624e-308
4.10191e-307
2.56607e-306
1.68298e-305
1.1649e-304
8.66456e-304
7.24893e-303
7.41733e-302
9.19602e-301
3.98161e-300
1.15305e-299
8.71878e-299
8.20797e-298
7.83425e-297
7.45178e-296
7.1474e-295
7.23398e-294
7.15075e-293
4.7112e-294
3.67215e-295
2.63649e-295
7.84542e-295
2.29266e-295
4.14861e-296
1.75039e-296
3.94068e-296
7.58576e-296
1.12272e-295
7.11571e-295
6.45004e-294
5.78308e-293
4.99494e-292
4.12615e-291
3.23891e-290
2.3936e-289
1.63997e-288
1.01641e-287
5.55734e-287
2.70897e-286
1.22577e-285
5.03884e-285
1.73391e-284
4.35662e-284
6.35995e-284
5.80873e-284
3.40684e-283
4.09301e-282
4.93025e-281
5.73633e-280
6.38775e-279
6.80406e-278
7.03528e-277
5.21143e-276
5.46461e-277
4.48873e-278
3.75165e-279
3.45229e-280
3.12841e-281
2.82343e-282
2.56254e-283
2.35694e-284
2.21684e-285
2.16387e-286
2.23287e-287
2.43994e-288
2.73598e-289
3.05894e-290
3.43548e-291
3.94881e-292
4.68606e-293
5.74641e-294
7.27326e-295
9.49427e-296
1.27803e-296
1.77458e-297
2.54283e-298
3.76181e-299
5.74754e-300
9.0714e-301
1.47922e-301
2.49222e-302
4.33864e-303
7.80434e-304
1.45043e-304
2.77952e-305
5.24011e-306
9.33666e-317
3.74287e-316
1.50481e-315
6.24943e-315
2.68071e-314
1.18784e-313
5.43417e-313
2.56439e-312
1.24654e-311
6.22995e-311
3.19478e-310
1.67853e-309
9.03665e-309
4.99852e-308
2.85561e-307
1.69545e-306
1.0518e-305
6.84591e-305
4.70244e-304
3.46439e-303
2.85991e-302
2.86203e-301
3.25176e-300
1.5226e-299
5.10562e-299
3.64803e-298
3.24514e-297
2.93094e-296
2.62324e-295
2.34394e-294
2.16972e-293
1.82079e-292
1.42285e-293
1.4434e-294
2.36934e-294
7.20983e-294
2.13359e-294
4.07232e-295
2.34413e-295
5.88e-295
1.16034e-294
2.0461e-294
1.4046e-293
1.27067e-292
1.13203e-291
9.70857e-291
7.95906e-290
6.19779e-289
4.54272e-288
3.08675e-287
1.89752e-286
1.02979e-285
4.98866e-285
2.24462e-284
9.18119e-284
3.14531e-283
7.86318e-283
1.12517e-282
7.27453e-283
1.97357e-282
2.15408e-281
2.50739e-280
2.81573e-279
3.01345e-278
3.06587e-277
2.98846e-276
2.00176e-275
2.34751e-276
2.03839e-277
1.78231e-278
1.70687e-279
1.60584e-280
1.50284e-281
1.41303e-282
1.34508e-283
1.30804e-284
1.31901e-285
1.40444e-286
1.58037e-287
1.82343e-288
2.09975e-289
2.42822e-290
2.86874e-291
3.49183e-292
4.38352e-293
5.67034e-294
7.55416e-295
1.03659e-295
1.46586e-296
2.13743e-297
3.21552e-298
4.99284e-299
8.00397e-300
1.32494e-300
2.26495e-301
3.99862e-302
7.29042e-303
1.37259e-303
2.66301e-304
5.07467e-305
3.86947e-316
1.53567e-315
6.11637e-315
2.51142e-314
1.06467e-313
4.66029e-313
2.10549e-312
9.81141e-312
4.71037e-311
2.32622e-310
1.17972e-309
6.1362e-309
3.2742e-308
1.79676e-307
1.01904e-306
6.00964e-306
3.70514e-305
2.39766e-304
1.63677e-303
1.19598e-302
9.75255e-302
9.48245e-301
9.7289e-300
4.77937e-299
1.7863e-298
1.22172e-297
1.03506e-296
8.90804e-296
7.55103e-295
6.33643e-294
5.40323e-293
3.88138e-292
3.61416e-293
5.86682e-294
1.69091e-293
5.04812e-293
1.51519e-293
3.11347e-294
2.46545e-294
6.66717e-294
1.35748e-293
2.8614e-293
2.09052e-292
1.88553e-291
1.66927e-290
1.42177e-289
1.15696e-288
8.9397e-288
6.50051e-287
4.38172e-286
2.67211e-285
1.4394e-284
6.92903e-284
3.10052e-283
1.26242e-282
4.30896e-282
1.07384e-281
1.5273e-281
8.66593e-282
1.01934e-281
8.9913e-281
1.00781e-279
1.09165e-278
1.12247e-277
1.0916e-276
1.00304e-275
6.06808e-275
7.96296e-276
7.32207e-277
6.69664e-278
6.67779e-279
6.52593e-280
6.33432e-281
6.16976e-282
6.07643e-283
6.10601e-284
6.3554e-285
6.97453e-286
8.07072e-287
9.56719e-288
1.13279e-288
1.34655e-289
1.63259e-290
2.03553e-291
2.61304e-292
3.45133e-293
4.68889e-294
6.5545e-295
9.4337e-296
1.39898e-296
2.13895e-297
3.37332e-298
5.48937e-299
9.21888e-300
1.59798e-300
2.85905e-301
5.28e-302
1.00638e-302
1.97546e-303
3.80286e-304
1.42739e-315
5.61881e-315
2.21707e-314
9.01288e-314
3.7811e-313
1.6371e-312
7.31367e-312
3.3696e-311
1.59963e-310
7.81484e-310
3.92347e-309
2.02226e-308
1.07036e-307
5.83121e-307
3.28479e-306
1.92439e-305
1.17873e-304
7.57756e-304
5.13521e-303
3.71689e-302
2.98406e-301
2.79035e-300
2.60581e-299
1.3179e-298
5.31491e-298
3.51329e-297
2.85234e-296
2.3512e-295
1.89764e-294
1.50468e-293
1.18763e-292
7.41322e-292
8.30259e-293
2.56989e-293
9.89997e-293
2.86768e-292
8.7581e-293
1.9926e-293
2.14955e-293
6.12361e-293
1.29759e-292
3.26562e-292
2.50234e-291
2.24852e-290
1.97835e-289
1.67372e-288
1.3522e-287
1.03698e-286
7.4825e-286
5.00448e-285
3.02808e-284
1.61908e-283
7.74422e-283
3.44633e-282
1.39718e-281
4.75365e-281
1.18191e-280
1.67819e-280
9.16002e-281
5.59527e-281
3.1993e-280
3.42024e-279
3.57262e-278
3.53018e-277
3.28336e-276
2.84298e-275
1.55844e-274
2.28013e-275
2.22387e-276
2.12647e-277
2.20784e-278
2.24157e-279
2.2564e-280
2.27589e-281
2.31757e-282
2.40437e-283
2.58046e-284
2.91517e-285
3.46467e-286
4.21388e-287
5.12172e-288
6.24738e-289
7.76113e-290
9.89875e-291
1.29797e-291
1.74887e-292
2.42105e-293
3.44519e-294
5.04346e-295
7.60162e-296
1.18046e-296
1.88968e-297
3.11944e-298
5.31139e-299
9.32904e-300
1.69041e-300
3.15994e-301
6.09337e-302
1.20938e-302
2.35054e-303
4.89069e-315
1.91073e-314
7.47508e-314
3.01109e-313
1.251e-312
5.36125e-312
2.36972e-311
1.07994e-310
5.0709e-310
2.45092e-309
1.218e-308
6.2187e-308
3.26295e-307
1.76322e-306
9.85376e-306
5.72608e-305
3.47754e-304
2.21529e-303
1.48599e-302
1.06194e-301
8.35536e-301
7.47395e-300
6.44931e-299
3.32315e-298
1.41255e-297
9.07483e-297
7.09248e-296
5.6213e-295
4.33763e-294
3.26513e-293
2.39634e-292
1.32142e-291
1.83501e-292
1.13171e-292
4.9019e-292
1.37554e-291
4.29491e-292
1.12085e-292
1.6048e-292
4.74528e-292
1.05733e-291
3.15944e-291
2.50931e-290
2.2452e-289
1.96344e-288
1.65021e-287
1.32388e-286
1.00784e-285
7.21792e-285
4.7909e-284
2.87653e-283
1.52668e-282
7.25541e-282
3.21128e-281
1.2965e-280
4.39823e-280
1.0914e-279
1.54918e-279
8.39817e-280
3.53605e-280
1.02889e-279
1.0214e-278
1.02849e-277
9.77124e-277
8.6967e-276
7.09591e-275
3.54168e-274
5.74549e-275
5.94988e-276
5.9447e-277
6.4252e-278
6.77703e-279
7.07294e-280
7.38348e-281
7.76752e-282
8.31114e-283
9.18656e-284
1.067e-284
1.30087e-285
1.62138e-286
2.02016e-287
2.52491e-288
3.20953e-289
4.18216e-290
5.59513e-291
7.6829e-292
1.0828e-292
1.56728e-293
2.33187e-294
3.56952e-295
5.62592e-296
9.13488e-297
1.52864e-297
2.63698e-298
4.68998e-299
8.60071e-300
1.62635e-300
3.17083e-301
6.35947e-302
1.24731e-302
1.60155e-314
6.21309e-314
2.41114e-313
9.62814e-313
3.96285e-312
1.68142e-311
7.35392e-311
3.31462e-310
1.53889e-309
7.35391e-309
3.61402e-308
1.82546e-307
9.48012e-307
5.07181e-306
2.80592e-305
1.61335e-304
9.68698e-304
6.09427e-303
4.03093e-302
2.83253e-301
2.17522e-300
1.85974e-299
1.50516e-298
7.86004e-298
3.46903e-297
2.17257e-296
1.63957e-295
1.25318e-294
9.27655e-294
6.65479e-293
4.56641e-292
2.26161e-291
4.13655e-292
4.6887e-292
2.10459e-291
5.72931e-291
1.84099e-291
5.73489e-292
1.04883e-291
3.19233e-291
7.56573e-291
2.65888e-290
2.16833e-289
1.93124e-288
1.67883e-287
1.40197e-286
1.11704e-285
8.44307e-285
6.00253e-284
3.95443e-283
2.35617e-282
1.24127e-281
5.86113e-281
2.58023e-280
1.03754e-279
3.50995e-279
8.69382e-279
1.23409e-278
6.71374e-279
2.40827e-279
3.20467e-279
2.76155e-278
2.67738e-277
2.44706e-276
2.08556e-275
1.60446e-274
7.32976e-274
1.31022e-274
1.44098e-275
1.50363e-276
1.6915e-277
1.85319e-278
2.00449e-279
2.16418e-280
2.34988e-281
2.5903e-282
2.94516e-283
3.51253e-284
4.3882e-285
5.5991e-286
7.14298e-287
9.13634e-288
1.18686e-288
1.57817e-289
2.15184e-290
3.00821e-291
4.31222e-292
6.34309e-293
9.58364e-294
1.48871e-294
2.37953e-295
3.91595e-296
6.63791e-297
1.15929e-297
2.08639e-298
3.86978e-299
7.39762e-300
1.45743e-300
2.95227e-301
5.84088e-302
5.10681e-314
1.96766e-313
7.57682e-313
2.99999e-312
1.22344e-311
5.13948e-311
2.22387e-310
9.91001e-310
4.54622e-309
2.14583e-308
1.04144e-307
5.19524e-307
2.66496e-306
1.40827e-305
7.69317e-305
4.36458e-304
2.58292e-303
1.59936e-302
1.03931e-301
7.15487e-301
5.34658e-300
4.37449e-299
3.36126e-298
1.77371e-297
8.05467e-297
4.92812e-296
3.59906e-295
2.65967e-294
1.89457e-293
1.30067e-292
8.40073e-292
3.80283e-291
9.89345e-292
1.77694e-291
7.99382e-291
2.11611e-290
7.06169e-291
2.73071e-291
6.10073e-291
1.90479e-290
4.85932e-290
1.98304e-289
1.64835e-288
1.46113e-287
1.26275e-286
1.0479e-285
8.29338e-285
6.22462e-284
4.3935e-283
2.87302e-282
1.69882e-281
8.88366e-281
4.16783e-280
1.82501e-279
7.30953e-279
2.46602e-278
6.09687e-278
8.65485e-278
4.74034e-278
1.60662e-278
1.05997e-278
6.91109e-278
6.42641e-277
5.65358e-276
4.61739e-275
3.35292e-274
1.40938e-273
2.75829e-274
3.2205e-275
3.50857e-276
4.10718e-277
4.67248e-278
5.23508e-279
5.84119e-280
6.5396e-281
7.41824e-282
8.66612e-283
1.06012e-283
1.3558e-284
1.76932e-285
2.30867e-286
3.01848e-287
4.00272e-288
5.42534e-289
7.53148e-290
1.07085e-290
1.55983e-291
2.32963e-292
3.57117e-293
5.62469e-294
9.11016e-295
1.51836e-295
2.6052e-296
4.60321e-297
8.37762e-298
1.57065e-298
3.03371e-299
6.03658e-300
1.23451e-300
2.46289e-301
1.60182e-313
6.1298e-313
2.34236e-312
9.19669e-312
3.71616e-311
1.54548e-310
6.61448e-310
2.91283e-309
1.31943e-308
6.14508e-308
2.94133e-307
1.44663e-306
7.31475e-306
3.80926e-305
2.04967e-304
1.14437e-303
6.65661e-303
4.04554e-302
2.57573e-301
1.73278e-300
1.25777e-299
9.86802e-299
7.26164e-298
3.86289e-297
1.7946e-296
1.0751e-295
7.61454e-295
5.45543e-294
3.75368e-293
2.4778e-292
1.51853e-291
6.40962e-291
2.51342e-291
6.13301e-291
2.7304e-290
7.04796e-290
2.47325e-290
1.22607e-290
3.20038e-290
1.02526e-289
2.84833e-289
1.32944e-288
1.11996e-287
9.87929e-287
8.48921e-286
7.00155e-285
5.50478e-284
4.10314e-283
2.87551e-282
1.86658e-281
1.09535e-280
5.68569e-280
2.65033e-279
1.15435e-278
4.60514e-278
1.54935e-277
3.82315e-277
5.42654e-277
2.99483e-277
9.99193e-278
4.03177e-278
1.63534e-277
1.44274e-276
1.22222e-275
9.57326e-275
6.57112e-274
2.55453e-273
5.44003e-274
6.73751e-275
7.66178e-276
9.32983e-277
1.10162e-277
1.27769e-278
1.47205e-279
1.69764e-280
1.97967e-281
2.37376e-282
2.97552e-283
3.89229e-284
5.19063e-285
6.92043e-286
9.23904e-287
1.24932e-287
1.72433e-288
2.43465e-289
3.51736e-290
5.20147e-291
7.88055e-292
1.22463e-292
1.95411e-293
3.20469e-294
5.40528e-295
9.38127e-296
1.67596e-296
3.08269e-297
5.83888e-298
1.13898e-298
2.28815e-299
4.7226e-300
9.49868e-301
4.95855e-313
1.88426e-312
7.14456e-312
2.78136e-311
1.11344e-310
4.58336e-310
1.93974e-309
8.43809e-309
3.77192e-308
1.732e-307
8.16722e-307
3.95489e-306
1.96797e-305
1.00808e-304
5.33204e-304
2.92369e-303
1.66825e-302
9.93213e-302
6.18539e-301
4.06104e-300
2.86185e-299
2.15799e-298
1.52966e-297
8.18185e-297
3.87286e-296
2.27764e-295
1.56846e-294
1.09291e-293
7.29663e-293
4.65803e-292
2.73454e-291
1.10118e-290
6.5833e-291
1.9378e-290
8.50254e-290
2.14688e-289
8.05572e-290
5.22146e-290
1.53114e-289
5.0482e-289
1.54307e-288
8.10181e-288
6.88707e-287
6.04528e-286
5.16559e-285
4.23464e-284
3.30779e-283
2.44875e-282
1.70401e-281
1.09806e-280
6.3949e-280
3.29492e-279
1.52598e-278
6.61093e-278
2.62681e-277
8.81251e-277
2.17008e-276
3.07915e-276
1.71235e-276
5.7092e-277
1.75749e-277
3.75944e-277
3.06305e-276
2.49896e-275
1.87874e-274
1.22105e-273
4.41178e-273
1.01643e-273
1.33386e-274
1.58286e-275
2.004e-276
2.45444e-277
2.94478e-278
3.50033e-279
4.15439e-280
4.97573e-281
6.11838e-282
7.85219e-283
1.04976e-283
1.42939e-284
1.94543e-285
2.64941e-286
3.64969e-287
5.12459e-288
7.35239e-289
1.07831e-289
1.61744e-290
2.48381e-291
3.9097e-292
6.31561e-293
1.04799e-293
1.78767e-294
3.13651e-295
5.66239e-296
1.05212e-296
2.01247e-297
3.96333e-298
8.03641e-299
1.67364e-299
3.39332e-300
1.51309e-312
5.70722e-312
2.14658e-311
8.2832e-311
3.28415e-310
1.33772e-309
5.59654e-309
2.40414e-308
1.06011e-307
4.79686e-307
2.22689e-306
1.0608e-305
5.18919e-305
2.61148e-304
1.35608e-303
7.2933e-303
4.0774e-302
2.37568e-301
1.44615e-300
9.2639e-300
6.34112e-299
4.60717e-298
3.15788e-297
1.69393e-296
8.14282e-296
4.71465e-295
3.16635e-294
2.15359e-293
1.40235e-292
8.71689e-292
4.95365e-291
1.9494e-290
1.71775e-290
5.6521e-290
2.44294e-289
6.05645e-289
2.48249e-289
2.11232e-289
6.74589e-289
2.30095e-288
7.8005e-288
4.52939e-287
3.87217e-286
3.38211e-285
2.87408e-284
2.3421e-283
1.81775e-282
1.33659e-281
9.23584e-281
5.90823e-280
3.41483e-279
1.74641e-278
8.03554e-278
3.46245e-277
1.3702e-276
4.58318e-276
1.12608e-275
1.59688e-275
8.94629e-276
2.99671e-276
8.15465e-277
8.74889e-277
6.2064e-276
4.8723e-275
3.51898e-274
2.1695e-273
7.31974e-273
1.81481e-273
2.52007e-274
3.11935e-275
4.10351e-276
5.20968e-277
6.46101e-278
7.91699e-279
9.6623e-280
1.18766e-280
1.49651e-281
1.96489e-282
2.68273e-283
3.72701e-284
5.17375e-285
7.18105e-286
1.00685e-286
1.43693e-287
2.09304e-288
3.11358e-289
4.73332e-290
7.36171e-291
1.17292e-291
1.91681e-292
3.21632e-293
5.54568e-294
9.83154e-295
1.79285e-295
3.36403e-296
6.49638e-297
1.29139e-297
2.6426e-298
5.55265e-299
1.13487e-299
4.538e-312
1.69793e-311
6.33111e-311
2.42029e-310
9.49942e-310
3.82715e-309
1.58219e-308
6.70955e-308
2.9176e-307
1.30055e-306
5.94212e-306
2.78336e-305
1.33784e-304
6.61075e-304
3.36809e-303
1.77576e-302
9.72268e-302
5.54261e-301
3.29814e-300
2.06247e-299
1.37302e-298
9.63877e-298
6.40774e-297
3.4391e-296
1.67428e-295
9.57206e-295
6.29187e-294
4.19411e-293
2.67802e-292
1.63243e-291
9.07426e-291
3.56572e-290
4.36313e-290
1.53569e-289
6.54622e-289
1.60086e-288
7.3523e-289
8.11625e-289
2.76085e-288
9.80887e-288
3.70612e-287
2.34072e-286
2.00732e-285
1.74463e-284
1.47456e-283
1.19457e-282
9.21246e-282
6.72848e-281
4.61694e-280
2.93202e-279
1.68178e-278
8.53675e-278
3.90208e-277
1.6722e-276
6.58989e-276
2.19742e-275
5.38594e-275
7.63129e-275
4.30554e-275
1.4515e-275
3.75979e-276
2.18067e-276
1.21061e-275
9.11865e-275
6.33227e-274
3.71011e-273
1.17414e-272
3.11748e-273
4.57377e-274
5.9018e-275
8.06114e-276
1.06008e-276
1.35799e-277
1.71411e-278
2.14966e-279
2.70993e-280
3.4968e-281
4.69403e-282
6.54107e-283
9.26535e-284
1.31086e-284
1.85281e-285
2.64189e-286
3.82915e-287
5.65809e-288
8.53072e-289
1.31341e-289
2.06751e-290
3.33226e-291
5.50618e-292
9.33815e-293
1.62682e-293
2.91318e-294
5.36469e-295
1.01631e-295
1.98119e-296
3.97501e-297
8.20892e-298
1.74039e-298
3.58617e-299
1.33443e-311
4.9485e-311
1.82775e-310
6.91678e-310
2.68552e-309
1.06948e-308
4.36678e-308
1.82732e-307
7.83364e-307
3.43933e-306
1.54633e-305
7.12163e-305
3.36305e-304
1.63152e-303
8.15497e-303
4.21484e-302
2.26037e-301
1.26118e-300
7.34068e-300
4.48598e-299
2.90975e-298
1.97956e-297
1.27991e-296
6.86175e-296
3.3755e-295
1.91084e-294
1.23385e-293
8.09504e-293
5.0949e-292
3.06582e-291
1.68218e-290
6.70543e-290
1.06726e-289
3.92158e-289
1.65234e-288
4.0093e-288
2.12002e-288
2.96179e-288
1.05795e-287
3.94614e-287
1.66378e-286
1.12545e-285
9.6627e-285
8.35696e-284
7.02565e-283
5.65861e-282
4.33636e-281
3.14598e-280
2.14367e-279
1.35143e-278
7.69256e-278
3.87533e-277
1.75958e-276
7.49868e-276
2.94247e-275
9.77978e-275
2.39074e-274
3.38368e-274
1.92186e-274
6.52371e-275
1.66152e-275
6.11001e-276
2.29607e-275
1.647e-274
1.10054e-273
6.13925e-273
1.83009e-272
5.1799e-273
8.01613e-274
1.07749e-274
1.52687e-275
2.0783e-276
2.74812e-277
3.57079e-278
4.59871e-279
5.94223e-280
7.84777e-281
1.07646e-281
1.53015e-282
2.20865e-283
3.18255e-284
4.57741e-285
6.63271e-286
9.75614e-287
1.46139e-287
2.23168e-288
3.47772e-289
5.53786e-290
9.02462e-291
1.50718e-291
2.58263e-292
4.54477e-293
8.21892e-294
1.52825e-294
2.92291e-295
5.75189e-296
1.16488e-296
2.42802e-297
5.19488e-298
1.0794e-298
3.84516e-311
1.41174e-310
5.15957e-310
1.93087e-309
7.40898e-309
2.91406e-308
1.17431e-307
4.84638e-307
2.04746e-306
8.85193e-306
3.91606e-305
1.77336e-304
8.22858e-304
3.91991e-303
1.9227e-302
9.74485e-302
5.12131e-301
2.79862e-300
1.5949e-299
9.5381e-299
6.04039e-298
3.99454e-297
2.519e-296
1.34774e-295
6.6876e-295
3.75768e-294
2.39163e-293
1.55046e-292
9.66407e-292
5.77195e-291
3.14736e-290
1.28415e-289
2.50719e-289
9.4921e-289
3.96548e-288
9.61791e-288
6.00439e-288
1.02731e-287
3.82385e-287
1.50986e-286
7.08559e-286
5.06288e-285
4.34539e-284
3.7398e-283
3.12749e-282
2.50445e-281
1.9072e-280
1.37442e-279
9.29995e-279
5.82006e-278
3.28739e-277
1.6435e-276
7.41172e-276
3.14074e-275
1.22698e-274
4.06406e-274
9.90661e-274
1.40021e-273
8.00341e-274
2.73537e-274
6.94308e-275
1.92723e-275
4.29393e-275
2.88408e-274
1.85542e-273
9.87201e-273
2.78291e-272
8.36074e-273
1.36242e-273
1.90606e-274
2.79995e-275
3.94186e-276
5.37661e-277
7.1872e-278
9.50024e-279
1.25765e-279
1.69917e-280
2.38048e-281
3.45022e-282
5.07246e-283
7.43991e-284
1.08818e-284
1.60132e-285
2.38889e-286
3.62542e-287
5.60461e-288
8.83605e-289
1.42277e-289
2.34356e-290
3.95484e-291
6.84588e-292
1.21675e-292
2.22208e-293
4.17202e-294
8.05643e-295
1.60062e-295
3.27257e-296
6.8861e-297
1.48716e-297
3.11675e-298
1.08778e-310
3.94902e-310
1.4262e-309
5.27112e-309
1.99642e-308
7.74641e-308
3.07793e-307
1.25178e-306
5.20863e-306
2.2167e-305
9.64811e-305
4.2962e-304
1.95921e-303
9.16791e-303
4.4147e-302
2.19535e-301
1.13138e-300
6.06057e-300
3.38547e-299
1.98429e-298
1.22946e-297
7.92631e-297
4.88906e-296
2.60981e-295
1.30465e-294
7.29115e-294
4.58772e-293
2.94797e-292
1.82668e-291
1.08713e-290
5.91683e-290
2.47933e-289
5.66555e-289
2.1952e-288
9.12861e-288
2.23294e-287
1.67701e-287
3.39304e-287
1.31263e-286
5.53015e-286
2.87133e-285
2.14131e-284
1.83517e-283
1.57171e-282
1.30753e-281
1.04106e-280
7.87835e-280
5.63964e-279
3.78933e-278
2.35395e-277
1.31928e-276
6.54471e-276
2.93115e-275
1.2349e-274
4.80238e-274
1.58491e-273
3.85157e-273
5.43508e-273
3.1253e-273
1.07525e-273
2.73511e-274
6.53814e-275
8.0903e-275
4.91618e-274
3.0452e-273
1.54802e-272
4.14203e-272
1.3155e-272
2.25326e-273
3.27829e-274
4.98796e-275
7.25779e-276
1.02052e-276
1.40266e-277
1.90205e-278
2.57858e-279
3.56258e-280
5.09583e-281
7.52839e-282
1.12691e-282
1.68163e-283
2.4999e-284
3.73405e-285
5.64707e-286
8.67902e-287
1.35775e-287
2.16494e-288
3.5241e-289
5.86635e-290
1.0002e-290
1.74894e-291
3.13959e-292
5.79058e-293
1.09793e-293
2.14101e-294
4.29542e-295
8.8683e-296
1.88429e-296
4.10872e-297
8.68765e-298
3.0341e-310
1.08754e-309
3.87498e-309
1.41213e-308
5.27097e-308
2.01472e-307
7.88272e-307
3.15571e-306
1.29213e-305
5.40982e-305
2.31579e-304
1.01393e-303
4.54519e-303
2.08999e-302
9.8855e-302
4.82639e-301
2.44096e-300
1.28294e-299
7.03267e-299
4.04559e-298
2.45707e-297
1.54837e-296
9.3672e-296
4.9896e-295
2.51064e-294
1.3977e-293
8.71429e-293
5.56342e-292
3.43648e-291
2.04297e-290
1.11244e-289
4.78692e-289
1.23602e-288
4.8867e-288
2.03217e-287
5.06397e-287
4.61769e-287
1.07003e-286
4.30732e-286
1.9492e-285
1.10985e-284
8.55147e-284
7.31173e-283
6.2316e-282
5.15737e-281
4.08292e-280
3.07047e-279
2.18327e-278
1.45664e-277
8.98143e-277
4.99415e-276
2.45812e-275
1.09318e-274
4.57836e-274
1.77208e-273
5.82606e-273
1.41119e-272
1.98769e-272
1.14947e-272
3.98001e-273
1.01683e-273
2.26262e-274
1.58406e-274
8.18972e-274
4.87966e-273
2.37395e-272
6.0502e-272
2.0236e-272
3.63689e-273
5.49801e-274
8.65732e-275
1.30103e-275
1.88474e-276
2.66223e-277
3.70194e-278
5.13773e-279
7.25667e-280
1.05949e-280
1.59509e-281
2.43033e-282
3.68848e-283
5.57093e-284
8.44313e-285
1.29398e-285
2.01343e-286
3.18675e-287
5.13829e-288
8.45473e-289
1.42226e-289
2.45004e-290
4.3279e-291
7.84799e-292
1.46207e-292
2.80011e-293
5.51534e-294
1.11766e-294
2.33073e-295
5.00188e-296
1.10147e-296
2.35031e-297
8.39498e-310
2.96619e-309
1.04081e-308
3.73294e-308
1.37066e-307
5.15162e-307
1.98141e-306
7.79621e-306
3.13724e-305
1.29087e-304
5.43104e-304
2.33732e-303
1.02993e-302
4.65512e-302
2.1639e-301
1.03796e-300
5.15593e-300
2.66131e-299
1.43313e-298
8.10139e-298
4.83062e-297
2.98219e-296
1.77377e-295
9.43092e-295
4.77328e-294
2.64995e-293
1.63973e-292
1.0417e-291
6.42549e-291
3.82102e-290
2.08387e-289
9.19304e-289
2.61505e-288
1.05416e-287
4.40652e-287
1.13027e-286
1.24999e-286
3.233e-286
1.35932e-285
6.63782e-285
4.10026e-284
3.23695e-283
2.75933e-282
2.34027e-281
1.92688e-280
1.51677e-279
1.13351e-278
8.00577e-278
5.30347e-277
3.2455e-276
1.79032e-275
8.74185e-275
3.85985e-274
1.60676e-273
6.18875e-273
2.02656e-272
4.89164e-272
6.87563e-272
3.99757e-272
1.39263e-272
3.57655e-273
7.7101e-274
3.33625e-274
1.33935e-273
7.6526e-273
3.56879e-272
8.69204e-272
3.05089e-272
5.74318e-273
9.01356e-274
1.46765e-274
2.27635e-275
3.39551e-276
4.92677e-277
7.02281e-278
9.97535e-279
1.4401e-279
2.1458e-280
3.29167e-281
5.10406e-282
7.87654e-283
1.20836e-283
1.85776e-284
2.88476e-285
4.54382e-286
7.27534e-287
1.18617e-287
1.97294e-288
3.35414e-289
5.83849e-290
1.04206e-290
1.90915e-291
3.59345e-292
6.95311e-293
1.38369e-293
2.83296e-294
5.96864e-295
1.29403e-295
2.87838e-296
6.19924e-297
2.31991e-309
8.06745e-309
2.78266e-308
9.80321e-308
3.53368e-307
1.30329e-306
4.91763e-306
1.89808e-305
7.49322e-305
3.02557e-304
1.24966e-303
5.28223e-303
2.28721e-302
1.0162e-301
4.64419e-301
2.19006e-300
1.06935e-299
5.42567e-299
2.873e-298
1.5976e-297
9.3636e-297
5.67301e-296
3.3238e-295
1.76433e-294
8.97708e-294
4.97345e-293
3.05735e-292
1.93451e-291
1.19273e-290
7.09944e-290
3.87949e-289
1.75109e-288
5.38993e-288
2.21663e-287
9.36258e-287
2.49552e-286
3.3148e-286
9.39553e-286
4.1483e-285
2.19007e-284
1.45048e-283
1.16532e-282
9.89854e-282
8.35443e-281
6.84336e-280
5.3562e-279
3.97763e-278
2.79036e-277
1.83529e-276
1.1146e-275
6.09892e-275
2.95391e-274
1.29472e-273
5.35614e-273
2.05264e-272
6.69348e-272
1.60969e-271
2.25734e-271
1.31916e-271
4.6226e-272
1.1937e-272
2.54152e-273
7.71445e-274
2.1636e-273
1.17702e-272
5.26969e-272
1.23045e-271
4.51774e-272
8.89242e-273
1.44763e-273
2.43547e-274
3.89596e-275
5.9806e-276
8.91026e-277
1.30164e-277
1.89198e-278
2.79149e-279
4.24466e-280
6.63421e-281
1.04684e-281
1.64245e-282
2.55902e-283
3.99061e-284
6.27803e-285
1.00097e-285
1.62135e-286
2.67312e-287
4.49485e-288
7.72384e-289
1.3588e-289
2.45091e-290
4.53781e-291
8.63153e-292
1.68782e-292
3.39435e-293
7.02288e-294
1.49516e-294
3.27531e-295
7.35979e-296
1.60006e-296
6.44224e-309
2.20213e-308
7.45501e-308
2.57532e-307
9.09585e-307
3.28521e-306
1.21345e-305
4.58424e-305
1.77162e-304
7.00552e-304
2.83564e-303
1.17566e-302
4.99787e-302
2.18195e-301
9.80466e-301
4.54762e-300
2.18427e-299
1.09032e-298
5.68218e-298
3.11068e-297
1.79365e-296
1.0678e-295
6.17092e-295
3.27009e-294
1.67161e-293
9.2458e-293
5.65028e-292
3.56249e-291
2.19652e-290
1.30901e-289
7.16867e-289
3.30485e-288
1.08684e-287
4.56535e-287
1.9578e-286
5.46369e-286
8.58713e-286
2.6375e-285
1.23009e-284
7.01352e-284
4.92161e-283
4.00219e-282
3.38613e-281
2.84398e-280
2.31763e-279
1.80363e-278
1.33096e-277
9.27335e-277
6.05536e-276
3.64928e-275
1.9805e-274
9.51321e-274
4.13854e-273
1.70119e-272
6.48561e-272
2.10567e-271
5.04414e-271
7.05579e-271
4.14333e-271
1.46013e-271
3.79135e-272
8.04575e-273
1.94133e-273
3.48451e-273
1.77898e-272
7.65611e-272
1.71894e-271
6.58273e-272
1.35255e-272
2.28193e-273
3.96351e-274
6.53487e-275
1.03186e-275
1.57802e-276
2.36207e-277
3.5132e-278
5.29759e-279
8.22069e-280
1.30917e-280
2.1023e-281
3.35346e-282
5.30618e-283
8.39274e-284
1.33768e-284
2.15898e-285
3.53805e-286
5.89942e-287
1.00301e-287
1.74244e-288
3.09872e-289
5.64984e-290
1.05739e-290
2.03306e-291
4.01845e-292
8.16855e-293
1.70817e-293
3.67527e-294
8.13538e-295
1.84674e-295
4.05283e-296
1.80481e-308
6.06015e-308
2.01171e-307
6.80652e-307
2.35227e-306
8.30599e-306
2.9975e-305
1.106e-304
4.17446e-304
1.61277e-303
6.38302e-303
2.59057e-302
1.07952e-301
4.62625e-301
2.04308e-300
9.32135e-300
4.40627e-299
2.16547e-298
1.11153e-297
5.99458e-297
3.40255e-296
1.99204e-295
1.1364e-294
6.00941e-294
3.08389e-293
1.70335e-292
1.03528e-291
6.506e-291
4.0123e-290
2.39441e-289
1.31437e-288
6.1803e-288
2.15173e-287
9.24346e-287
4.04026e-286
1.18644e-285
2.16994e-285
7.18349e-285
3.55812e-284
2.18225e-283
1.60437e-282
1.31491e-281
1.10774e-280
9.25835e-280
7.50605e-279
5.80791e-278
4.25863e-277
2.94683e-276
1.91023e-275
1.14226e-274
6.14766e-274
2.92821e-273
1.26413e-272
5.16246e-272
1.95758e-271
6.32675e-271
1.50937e-270
2.10557e-270
1.24215e-270
4.40131e-271
1.14907e-271
2.44107e-272
5.1528e-273
5.67312e-273
2.6476e-272
1.09609e-271
2.37294e-271
9.45283e-272
2.02422e-272
3.53614e-273
6.33613e-274
1.07608e-274
1.74697e-275
2.74179e-276
4.20494e-277
6.39989e-278
9.86375e-279
1.56222e-279
2.53529e-280
4.14365e-281
6.72032e-282
1.07991e-282
1.7325e-283
2.79772e-284
4.57126e-285
7.57993e-286
1.27845e-286
2.19817e-287
3.86142e-288
6.94341e-289
1.28001e-289
2.42208e-290
4.70838e-291
9.40862e-292
1.93342e-292
4.08674e-293
8.88649e-294
1.9876e-294
4.55757e-295
1.00956e-295
5.10554e-308
1.68403e-307
5.48111e-307
1.81586e-306
6.13708e-306
2.11682e-305
7.45476e-305
2.68211e-304
9.867e-304
3.71572e-303
1.43429e-302
5.68393e-302
2.31649e-301
9.72734e-301
4.21705e-300
1.89157e-299
8.80052e-299
4.26003e-298
2.15501e-297
1.14553e-296
6.40336e-296
3.68865e-295
2.07784e-294
1.0957e-293
5.63955e-293
3.11085e-292
1.88117e-291
1.17853e-290
7.27086e-290
4.34569e-289
2.39172e-288
1.14581e-287
4.19432e-287
1.84432e-286
8.23885e-286
2.55223e-285
5.34904e-285
1.90654e-284
1.00693e-283
6.60059e-283
5.03263e-282
4.14316e-281
3.47455e-280
2.8897e-279
2.33069e-278
1.79302e-277
1.30632e-276
8.97679e-276
5.77621e-275
3.42678e-274
1.82874e-273
8.63603e-273
3.69913e-272
1.50057e-271
5.65861e-271
1.82017e-270
4.32376e-270
6.01397e-270
3.56345e-270
1.26931e-270
3.33155e-271
7.09983e-272
1.39431e-272
9.51546e-273
3.88914e-272
1.54847e-271
3.2406e-271
1.33959e-271
2.98501e-272
5.39444e-273
9.96395e-274
1.7422e-274
2.90715e-275
4.68171e-276
7.35673e-277
1.1459e-277
1.8054e-278
2.91889e-279
4.82812e-280
8.03243e-281
1.32462e-281
2.16175e-282
3.51775e-283
5.7558e-284
9.52183e-285
1.59781e-285
2.72643e-286
4.74186e-287
8.42487e-288
1.53211e-288
2.85635e-289
5.46571e-290
1.07439e-290
2.17076e-291
4.50973e-292
9.6353e-293
2.11733e-293
4.78458e-294
1.10804e-294
2.47709e-295
1.45534e-307
4.71862e-307
1.50687e-306
4.8912e-306
1.61739e-305
5.4506e-305
1.87286e-304
6.56629e-304
2.35168e-303
8.61682e-303
3.23654e-302
1.24904e-301
4.96489e-301
2.03769e-300
8.65449e-300
3.81158e-299
1.74431e-298
8.31648e-298
4.14734e-297
2.17372e-296
1.197e-295
6.78693e-295
3.77527e-294
1.98333e-293
1.02271e-292
5.6336e-292
3.39063e-291
2.11812e-290
1.30751e-289
7.82868e-289
4.32124e-288
2.10727e-287
8.06546e-287
3.63139e-286
1.66044e-285
5.43013e-285
1.28806e-284
4.95097e-284
2.79315e-283
1.94119e-282
1.52142e-281
1.25487e-280
1.04736e-279
8.66763e-279
6.95465e-278
5.31929e-277
3.85042e-276
2.62747e-275
1.67809e-274
9.87583e-274
5.22515e-273
2.44602e-272
1.03936e-271
4.18735e-271
1.57005e-270
5.02547e-270
1.18844e-269
1.64785e-269
9.80484e-270
3.51037e-270
9.26187e-271
1.98203e-271
3.75229e-272
1.6787e-272
5.65532e-272
2.16135e-271
4.38235e-271
1.87561e-271
4.34252e-272
8.11141e-273
1.54344e-273
2.77709e-274
4.76223e-275
7.86921e-276