/*--------------------------------*- C++ -*----------------------------------*\
  =========                 |
  \\      /  F ield         | OpenFOAM: The Open Source CFD Toolbox
   \\    /   O peration     | Website:  https://openfoam.org
    \\  /    A nd           | Version:  9
     \\/     M anipulation  |
\*---------------------------------------------------------------------------*/
FoamFile
{
    format      ascii;
    class       surfaceScalarField;
    location    "0.08";
    object      alphaPhi0.water;
}
// * * * * * * * * * * * * * * * * * * * * * * * * * * * * * * * * * * * * * //

dimensions      [0 3 -1 0 0 0 0];

internalField   nonuniform List<scalar> 
39700
(
0
0
-4.94066e-324
0
-2.47033e-323
9.88131e-324
-1.08694e-322
4.94066e-323
-5.13828e-322
2.37152e-322
-2.47033e-321
1.14623e-321
-1.22676e-320
5.77563e-321
-6.27365e-320
2.99601e-320
-3.29675e-319
1.60255e-319
-1.77482e-318
8.82134e-319
-9.76791e-318
4.99118e-318
-5.49494e-317
2.90304e-317
-3.16882e-316
1.73911e-316
-1.88404e-315
1.07707e-315
-1.16265e-314
6.92708e-315
-7.49035e-314
4.64456e-314
-5.06474e-313
3.2563e-313
-3.62808e-312
2.39682e-312
-2.81575e-311
1.87124e-311
-2.47301e-310
1.5881e-310
-2.55021e-309
1.51416e-309
-2.77923e-308
1.53014e-308
-1.0588e-307
9.74223e-308
-2.50784e-307
3.05103e-307
-2.01325e-306
1.41411e-306
-2.14568e-305
1.4731e-305
-2.3262e-304
1.64957e-304
-2.54057e-303
1.85884e-303
-2.89065e-302
2.1388e-302
-3.54336e-301
2.56894e-301
-4.26831e-300
3.36415e-300
-2.55358e-301
2.36425e-299
-1.50038e-302
2.22607e-300
-1.98177e-303
1.54614e-301
-3.25837e-303
1.90659e-302
-9.13049e-304
2.93118e-302
-1.52919e-304
8.57653e-303
-3.7954e-305
1.49494e-303
-6.03824e-305
3.70628e-304
-1.11529e-304
5.80505e-304
-1.19396e-304
1.06127e-303
-6.04476e-304
1.14005e-303
-5.47348e-303
5.81293e-303
-4.97307e-302
5.27674e-302
-4.3604e-301
4.78752e-301
-3.66091e-300
4.18586e-300
-2.92372e-299
3.50305e-299
-2.19995e-298
2.78641e-298
-1.53468e-297
2.08343e-297
-9.66951e-297
1.43834e-296
-5.35989e-296
8.94951e-296
-2.64281e-295
4.93475e-295
-1.20951e-294
2.45198e-294
-5.03559e-294
1.13383e-293
-1.76095e-293
4.73805e-293
-4.59051e-293
1.65072e-292
-8.64213e-293
4.27685e-292
-3.51974e-292
8.0657e-292
-4.26659e-291
3.33323e-291
-5.57947e-290
4.11523e-290
-7.14713e-289
5.46677e-289
-8.87283e-288
7.10186e-288
-1.06544e-286
8.94891e-287
-1.25379e-285
1.09352e-285
-1.45046e-284
1.29372e-284
-1.21567e-283
1.32041e-283
-1.13933e-284
8.03014e-283
-8.18054e-286
1.01086e-283
-6.2322e-287
8.44124e-285
-5.34625e-288
6.35715e-286
-4.52054e-289
4.36597e-287
-3.80547e-290
3.47954e-288
-3.22343e-291
2.7688e-289
-2.77174e-292
2.21977e-290
-2.44253e-293
1.8068e-291
-2.2358e-294
1.50416e-292
-2.16053e-295
1.29326e-293
-2.20888e-296
1.16396e-294
-2.32061e-297
1.10593e-295
-2.43357e-298
1.09619e-296
-2.56573e-299
1.10895e-297
-2.77687e-300
1.13718e-298
-3.11839e-301
1.1901e-299
-3.63753e-302
1.28134e-300
-4.39882e-303
1.42506e-301
-5.50486e-304
1.6385e-302
-7.12239e-305
1.947e-303
-9.5243e-306
2.39022e-304
-1.31636e-306
3.03142e-305
-1.88065e-307
3.97265e-306
-2.77788e-308
5.38121e-307
-4.24272e-309
7.53686e-308
-6.70108e-310
1.09178e-308
-1.09457e-310
1.63607e-309
-1.84913e-311
2.53663e-310
-3.23096e-312
4.06945e-311
-5.83877e-313
6.75537e-312
-1.08938e-313
1.16029e-312
-2.00645e-314
2.0583e-313
3.6055e-314
-1.4822e-323
4.94066e-324
-6.91692e-323
2.96439e-323
-2.91499e-322
1.33398e-322
-1.28951e-321
5.97819e-322
-5.88926e-321
2.76677e-321
-2.77764e-320
1.31965e-320
-1.35221e-319
6.50931e-320
-6.77967e-319
3.31325e-319
-3.49191e-318
1.73812e-318
-1.84257e-317
9.38322e-318
-9.9386e-317
5.20728e-317
-5.47721e-316
2.97087e-316
-3.09128e-315
1.74567e-315
-1.79594e-314
1.06022e-314
-1.08093e-313
6.68488e-314
-6.7782e-313
4.39303e-313
-4.44858e-312
3.01711e-312
-3.07747e-311
2.17204e-311
-2.28656e-310
1.65206e-310
-1.90567e-309
1.35559e-309
-1.88076e-308
1.23957e-308
-2.06537e-307
1.22722e-307
-1.03799e-306
8.96703e-307
-3.29963e-306
3.37239e-306
-2.39576e-305
1.7151e-305
-2.29824e-304
1.63824e-304
-2.28894e-303
1.70326e-303
-2.29442e-302
1.78788e-302
-2.36204e-301
1.90612e-301
-2.55718e-300
2.08219e-300
-2.6515e-299
2.44925e-299
-1.94868e-300
1.62639e-298
-1.24192e-301
1.5999e-299
-3.4624e-302
1.22202e-300
-8.70257e-302
3.23961e-301
-2.47492e-302
7.71201e-301
-4.2624e-303
2.30551e-301
-1.35303e-303
4.16217e-302
-2.62787e-303
1.32133e-302
-4.95171e-303
2.52253e-302
-6.18787e-303
4.70424e-302
-3.54261e-302
5.90379e-302
-3.21333e-301
3.40696e-301
-2.90224e-300
3.09845e-300
-2.52697e-299
2.79328e-299
-2.10511e-298
2.42402e-298
-1.66716e-297
2.01208e-297
-1.24346e-296
1.58655e-296
-8.59593e-296
1.17543e-295
-5.36779e-295
8.0399e-295
-2.95175e-294
4.96008e-294
-1.44565e-293
2.71564e-293
-6.57399e-293
1.3413e-292
-2.71857e-292
6.16665e-292
-9.41713e-292
2.5597e-291
-2.38957e-291
8.83118e-291
-3.71295e-291
2.22762e-290
-6.53734e-291
3.47072e-290
-6.28832e-290
6.20868e-290
-7.93429e-289
6.09215e-289
-9.85894e-288
7.81736e-288
-1.18577e-286
9.85821e-287
-1.37435e-285
1.20428e-285
-1.54493e-284
1.41917e-284
-1.67454e-283
1.59566e-283
-1.29365e-282
1.53669e-282
-1.37346e-283
8.9558e-282
-1.0287e-284
1.18838e-282
-8.14504e-286
1.0475e-283
-7.25175e-287
8.28282e-285
-6.34131e-288
5.88848e-286
-5.51814e-289
4.84916e-287
-4.83302e-290
3.99082e-288
-4.29587e-291
3.30996e-289
-3.91006e-292
2.78545e-290
-3.69426e-293
2.39464e-291
-3.68515e-294
2.12475e-292
-3.89063e-295
1.97551e-293
-4.22169e-296
1.94204e-294
-4.57243e-297
1.99088e-295
-4.97484e-298
2.08049e-296
-5.54897e-299
2.20279e-297
-6.41065e-300
2.378e-298
-7.6759e-301
2.63515e-299
-9.5065e-302
3.00777e-300
-1.21602e-302
3.54012e-301
-1.60567e-303
4.29766e-302
-2.18872e-304
5.38236e-303
-3.08081e-305
6.95656e-304
-4.47951e-306
9.28336e-305
-6.73001e-307
1.27973e-305
-1.045e-307
1.82317e-306
-1.67722e-308
2.6852e-307
-2.78278e-309
4.08947e-308
-4.77312e-310
6.44111e-309
-8.46398e-311
1.04927e-309
-1.55156e-311
1.76788e-310
-2.93475e-312
3.08044e-311
-5.47047e-313
5.54026e-312
9.82239e-313
-1.08694e-322
4.94066e-323
-4.496e-322
2.07508e-322
-1.89721e-321
8.84378e-322
-8.24101e-321
3.89818e-321
-3.70105e-320
1.77123e-320
-1.71663e-319
8.31809e-320
-8.21211e-319
4.03414e-319
-4.04545e-318
2.01863e-318
-2.04761e-317
1.04099e-317
-1.06222e-316
5.5258e-317
-5.63585e-316
3.01675e-316
-3.05649e-315
1.69416e-315
-1.69764e-314
9.80416e-315
-9.70191e-314
5.86697e-314
-5.74022e-313
3.64638e-313
-3.53601e-312
2.36289e-312
-2.27826e-311
1.60088e-311
-1.5456e-310
1.13714e-310
-1.1239e-309
8.53009e-310
-9.13681e-309
6.88602e-309
-8.74036e-308
6.14339e-308
-9.22418e-307
5.86444e-307
-5.45193e-306
4.54526e-306
-2.12249e-305
1.96756e-305
-1.44813e-304
1.07206e-304
-1.29419e-303
9.6383e-304
-1.2037e-302
9.40199e-303
-1.12105e-301
9.26292e-302
-1.06012e-300
9.23146e-301
-1.02614e-299
9.26733e-300
-9.03733e-299
9.82151e-299
-8.08874e-300
5.96544e-298
-5.95212e-301
6.43389e-299
-4.1183e-301
5.63554e-300
-1.19129e-300
3.76455e-300
-3.41411e-301
1.04107e-299
-6.09548e-302
3.15648e-300
-2.57119e-302
5.93621e-301
-5.80688e-302
2.50809e-301
-1.11718e-301
5.56584e-301
-1.64948e-301
1.0599e-300
-1.0436e-300
1.57252e-300
-9.46076e-300
1.00341e-299
-8.49214e-299
9.12146e-299
-7.34293e-298
8.17032e-298
-6.0709e-297
7.03885e-297
-4.76932e-296
5.79685e-296
-3.5275e-295
4.533e-295
-2.4176e-294
3.32949e-294
-1.49669e-293
2.25756e-293
-8.16514e-293
1.38119e-292
-3.97217e-292
7.50713e-292
-1.79515e-291
3.68529e-291
-7.38063e-291
1.68462e-290
-2.54115e-290
6.95328e-290
-6.37973e-290
2.38434e-289
-9.28932e-290
5.95236e-289
-8.45457e-290
8.69712e-289
-4.94122e-289
8.05057e-289
-5.92225e-288
4.80511e-288
-7.12238e-287
5.86222e-287
-8.2767e-286
7.15941e-286
-9.23301e-285
8.45576e-285
-9.9148e-284
9.59343e-284
-1.00669e-282
1.02614e-282
-7.06689e-282
9.28158e-282
-8.52331e-283
5.07444e-281
-6.74851e-284
7.27683e-282
-5.56151e-285
6.78646e-283
-5.14441e-286
5.62651e-284
-4.6628e-287
4.15385e-285
-4.20187e-288
3.54564e-286
-3.80935e-289
3.02319e-287
-3.50275e-290
2.59643e-288
-3.29585e-291
2.26087e-289
-3.21724e-292
2.0094e-290
-3.31296e-293
1.84201e-291
-3.60477e-294
1.76867e-292
-4.02883e-295
1.79431e-293
-4.49834e-296
1.89696e-294
-5.0445e-297
2.04413e-295
-5.79049e-298
2.23114e-296
-6.87084e-299
2.47988e-297
-8.43301e-300
2.82341e-298
-1.06862e-300
3.30352e-299
-1.39638e-301
3.97769e-300
-1.88104e-302
4.93182e-301
-2.61298e-303
6.29998e-302
-3.7448e-304
8.29659e-303
-5.53975e-305
1.12716e-303
-8.46243e-306
1.58081e-304
-1.33527e-306
2.28986e-305
-2.17669e-307
3.42728e-306
-3.66624e-308
5.30173e-307
-6.38072e-309
8.47772e-308
-1.14751e-309
1.4014e-308
-2.13226e-310
2.39482e-309
-4.08567e-311
4.23011e-310
-7.70223e-312
7.70756e-311
1.38207e-311
-5.43472e-322
2.47033e-322
-2.19365e-321
1.02766e-321
-9.10069e-321
4.31813e-321
-3.90065e-320
1.8735e-320
-1.72696e-319
8.39961e-320
-7.8924e-319
3.88924e-319
-3.71968e-318
1.85893e-318
-1.80534e-317
9.16597e-318
-9.00593e-317
4.65827e-317
-4.6074e-316
2.43779e-316
-2.41279e-315
1.31291e-315
-1.29259e-314
7.27934e-315
-7.09617e-314
4.16249e-314
-4.00962e-313
2.46322e-313
-2.34588e-312
1.51508e-312
-1.42946e-311
9.72489e-312
-9.11635e-311
6.533e-311
-6.12454e-310
4.6056e-310
-4.40663e-309
3.42908e-309
-3.53003e-308
2.74022e-308
-3.29126e-307
2.39962e-307
-3.30974e-306
2.22501e-306
-2.09209e-305
1.72305e-305
-9.23607e-305
8.18636e-305
-6.08443e-304
4.67496e-304
-5.13017e-303
4.00104e-303
-4.51593e-302
3.7042e-302
-3.95687e-301
3.45594e-301
-3.47912e-300
3.24342e-300
-3.05373e-299
3.02114e-299
-2.3135e-298
2.91613e-298
-2.46747e-299
1.60338e-297
-2.39599e-300
1.93256e-298
-3.76003e-300
2.20461e-299
-1.10537e-299
3.37034e-299
-3.19193e-300
9.54049e-299
-5.99592e-301
2.93243e-299
-3.44894e-301
5.82661e-300
-8.67824e-301
3.35991e-300
-1.71092e-300
8.30414e-300
-3.00784e-300
1.62073e-299
-2.06058e-299
2.86522e-299
-1.86438e-298
1.9807e-298
-1.66322e-297
1.7972e-297
-1.42835e-296
1.59955e-296
-1.1722e-295
1.36828e-295
-9.13709e-295
1.11829e-294
-6.70352e-294
8.67498e-294
-4.55624e-293
6.3191e-293
-2.79692e-292
4.24853e-292
-1.51372e-291
2.57776e-291
-7.31414e-291
1.39071e-290
-3.28588e-290
6.78544e-290
-1.34408e-289
3.08488e-289
-4.60651e-289
1.267e-288
-1.15024e-288
4.32462e-288
-1.64044e-288
1.07395e-287
-1.05588e-288
1.53792e-287
-2.85203e-288
1.00775e-287
-3.10339e-287
2.78271e-287
-3.60494e-286
3.08455e-286
-4.04158e-285
3.64048e-285
-4.33299e-284
4.1513e-284
-4.44136e-283
4.52898e-283
-4.2336e-282
4.61391e-282
-2.70149e-281
3.9226e-281
-3.67498e-282
1.99236e-280
-3.09318e-283
3.11474e-281
-2.65827e-284
3.07652e-282
-2.55643e-285
2.67412e-283
-2.40479e-286
2.0537e-284
-2.24618e-287
1.81954e-285
-2.10897e-288
1.60885e-286
-2.00664e-289
1.43162e-287
-1.95189e-290
1.29031e-288
-1.96782e-291
1.18559e-289
-2.0898e-292
1.1223e-290
-2.33997e-293
1.11143e-291
-2.68906e-294
1.16126e-292
-3.09052e-295
1.26373e-293
-3.56755e-296
1.4026e-294
-4.20877e-297
1.57647e-295
-5.12231e-298
1.80153e-296
-6.43649e-299
2.10436e-297
-8.33662e-300
2.52084e-298
-1.11187e-300
3.102e-299
-1.52694e-301
3.92491e-300
-2.16025e-302
5.11053e-301
-3.1505e-303
6.85359e-302
-4.73927e-304
9.47443e-303
-7.35721e-305
1.35114e-303
-1.17906e-305
1.98895e-304
-1.95108e-306
3.02359e-305
-3.33417e-307
4.74811e-306
-5.88444e-308
7.70359e-307
-1.07259e-308
1.29143e-307
-2.01901e-309
2.23691e-308
-3.91663e-310
4.00284e-309
-7.4631e-311
7.38424e-310
1.33842e-310
-2.23318e-321
1.01778e-321
-8.89318e-321
4.21438e-321
-3.65016e-320
1.75393e-320
-1.54638e-319
7.52709e-320
-6.76257e-319
3.33465e-319
-3.05174e-318
1.52509e-318
-1.42005e-317
7.19814e-318
-6.80574e-317
3.50446e-317
-3.3539e-316
1.75881e-316
-1.69629e-315
9.09345e-316
-8.79037e-315
4.84181e-315
-4.66488e-314
2.65631e-314
-2.53908e-313
1.50437e-313
-1.42324e-312
8.82462e-313
-8.26362e-312
5.38463e-312
-4.99949e-311
3.4316e-311
-3.16754e-310
2.29089e-310
-2.11451e-309
1.60603e-309
-1.5096e-308
1.1887e-308
-1.19376e-307
9.41411e-308
-1.0846e-306
8.10466e-307
-1.03419e-305
7.29528e-306
-6.61952e-305
5.46848e-305
-3.14505e-304
2.74919e-304
-2.03045e-303
1.618e-303
-1.63029e-302
1.32933e-302
-1.36883e-301
1.1775e-301
-1.13802e-300
1.04774e-300
-9.38585e-300
9.3167e-300
-7.56113e-299
8.11523e-299
-5.01913e-298
7.20458e-298
-6.26564e-299
3.58891e-297
-9.88355e-300
4.89119e-298
-2.7129e-299
8.91372e-299
-7.79456e-299
2.39508e-298
-2.27486e-299
6.65844e-298
-4.59248e-300
2.0785e-298
-3.6325e-300
4.45418e-299
-9.85347e-300
3.53492e-299
-2.00386e-299
9.41466e-299
-4.20902e-299
1.89538e-298
-3.06785e-298
4.00592e-298
-2.76747e-297
2.948e-297
-2.45387e-296
2.66726e-296
-2.09331e-295
2.35906e-295
-1.70553e-294
2.00403e-294
-1.31933e-293
1.62579e-293
-9.60357e-293
1.25142e-292
-6.47493e-292
9.04269e-292
-3.94221e-291
6.02984e-291
-2.11683e-290
3.62879e-290
-1.01587e-289
1.94323e-289
-4.53707e-289
9.42275e-289
-1.84708e-288
4.26112e-288
-6.30628e-288
1.74219e-287
-1.56922e-287
5.92362e-287
-2.22309e-287
1.46603e-286
-1.25473e-287
2.0864e-286
-1.46826e-287
1.19985e-286
-1.29037e-286
1.43672e-286
-1.4427e-285
1.28719e-285
-1.55959e-284
1.46295e-284
-1.606e-283
1.60968e-283
-1.57048e-282
1.68788e-282
-1.40781e-281
1.63894e-281
-8.20177e-281
1.31137e-280
-1.24702e-281
6.16968e-280
-1.11976e-282
1.05362e-280
-1.00452e-283
1.10297e-281
-1.00437e-284
1.00501e-282
-9.81076e-286
8.03424e-284
-9.5014e-287
7.39218e-285
-9.23922e-288
6.77957e-286
-9.09368e-289
6.25036e-287
-9.13876e-290
5.82907e-288
-9.50722e-291
5.53395e-289
-1.0402e-291
5.40473e-290
-1.19733e-292
5.51394e-291
-1.41306e-293
5.92505e-292
-1.66892e-294
6.62702e-293
-1.9796e-295
7.56328e-294
-2.39631e-296
8.73908e-295
-2.98716e-297
1.0252e-295
-3.83832e-298
1.227e-296
-5.07643e-299
1.50319e-297
-6.9049e-300
1.88868e-298
-9.66039e-301
2.43679e-299
-1.39107e-301
3.23191e-300
-2.06326e-302
4.41096e-301
-3.15438e-303
6.20099e-302
-4.97359e-304
8.98696e-303
-8.09078e-305
1.34363e-303
-1.35827e-305
2.07337e-304
-2.35353e-306
3.30322e-305
-4.20949e-307
5.43431e-306
-7.77185e-308
9.23267e-307
-1.48103e-308
1.61989e-307
-2.90677e-309
2.93466e-308
-5.59525e-310
5.47751e-309
1.00297e-309
-8.16691e-321
3.74502e-321
-3.22081e-320
1.54099e-320
-1.30863e-319
6.35517e-320
-5.48596e-319
2.70027e-319
-2.37298e-318
1.18376e-318
-1.05884e-317
5.35456e-318
-4.87104e-317
2.49878e-317
-2.3082e-316
1.20267e-316
-1.12513e-315
5.96774e-316
-5.63267e-315
3.05171e-315
-2.89195e-314
1.60809e-314
-1.52207e-313
8.73794e-314
-8.22343e-313
4.9053e-313
-4.57788e-312
2.85427e-312
-2.64035e-311
1.72859e-311
-1.58702e-310
1.09392e-310
-9.99094e-310
7.25519e-310
-6.62589e-309
5.05431e-309
-4.69154e-308
3.71503e-308
-3.65666e-307
2.91206e-307
-3.22113e-306
2.45865e-306
-2.89953e-305
2.13512e-305
-1.84135e-304
1.53882e-304
-9.11205e-304
7.99894e-304
-5.77971e-303
4.7773e-303
-4.45749e-302
3.7938e-302
-3.59229e-301
3.23492e-301
-2.85136e-300
2.75947e-300
-2.22179e-299
2.33644e-299
-1.65757e-298
1.91492e-298
-9.7793e-298
1.57448e-297
-1.43124e-298
7.15461e-297
-4.35866e-299
1.12131e-297
-1.59849e-298
3.88363e-298
-4.44778e-298
1.39598e-297
-1.31822e-298
3.7693e-297
-2.94352e-299
1.19897e-297
-3.17059e-299
2.85021e-298
-9.05999e-299
3.08296e-298
-1.91732e-298
8.64593e-298
-4.80662e-298
1.81102e-297
-3.67359e-297
4.57057e-297
-3.30152e-296
3.5288e-296
-2.90979e-295
3.18132e-295
-2.46601e-294
2.79637e-294
-1.99504e-293
2.3595e-293
-1.53186e-292
1.90039e-292
-1.10656e-291
1.45178e-291
-7.40244e-291
1.04089e-290
-4.47095e-290
6.88552e-290
-2.38217e-289
4.11062e-289
-1.13543e-288
2.18495e-288
-5.04152e-288
1.05288e-287
-2.04316e-287
4.7362e-287
-6.95214e-287
1.92818e-286
-1.72542e-286
6.5337e-286
-2.43904e-286
1.6128e-285
-1.32336e-286
2.29106e-285
-8.03625e-287
1.26748e-285
-4.57558e-286
7.88293e-286
-4.87736e-285
4.57877e-285
-5.083e-284
4.96376e-284
-5.02777e-283
5.26847e-283
-4.69182e-282
5.31006e-282
-3.95897e-281
4.91772e-281
-2.11355e-280
3.70655e-280
-3.56601e-281
1.61691e-279
-3.42075e-282
3.01108e-280
-3.20494e-283
3.34306e-281
-3.33169e-284
3.19174e-282
-3.38011e-285
2.65607e-283
-3.39428e-286
2.5383e-284
-3.41731e-287
2.41439e-285
-3.47711e-288
2.30535e-286
-3.60698e-289
2.2232e-287
-3.8681e-290
2.17882e-288
-4.35538e-291
2.19318e-289
-5.14812e-292
2.30231e-290
-6.23219e-293
2.54116e-291
-7.55288e-294
2.91708e-292
-9.19039e-295
3.41776e-293
-1.1397e-295
4.0529e-294
-1.45313e-296
4.87331e-295
-1.9071e-297
5.96817e-296
-2.573e-298
7.46932e-297
-3.56624e-299
9.57349e-298
-5.07924e-300
1.25852e-298
-7.43932e-301
1.69902e-299
-1.12148e-301
2.35833e-300
-1.74143e-302
3.36936e-301
-2.78703e-303
4.95937e-302
-4.5992e-304
7.52589e-303
-7.828e-305
1.17806e-303
-1.37442e-305
1.90284e-304
-2.48961e-306
3.17211e-305
-4.65267e-307
5.45812e-306
-8.97001e-308
9.69367e-307
-1.78007e-308
1.77674e-307
-3.45945e-309
3.35319e-308
6.19922e-309
-2.77615e-320
1.28358e-320
-1.08566e-319
5.23957e-320
-4.37105e-319
2.14222e-319
-1.8147e-318
9.01808e-319
-7.7696e-318
3.91479e-318
-3.43006e-317
1.75259e-317
-1.56082e-316
8.09121e-317
-7.3155e-316
3.85167e-316
-3.5279e-315
1.89016e-315
-1.74822e-314
9.56082e-315
-8.89131e-314
4.98539e-314
-4.63938e-313
2.68209e-313
-2.48668e-312
1.4916e-312
-1.37375e-311
8.60212e-312
-7.86235e-311
5.1647e-311
-4.68805e-310
3.24068e-310
-2.92667e-309
2.13109e-309
-1.92341e-308
1.47169e-308
-1.34679e-307
1.07115e-307
-1.03097e-306
8.2835e-307
-8.76833e-306
6.83349e-306
-7.46365e-305
5.70703e-305
-4.67094e-304
3.96866e-304
-2.3612e-303
2.10537e-303
-1.47085e-302
1.26249e-302
-1.09638e-301
9.73134e-302
-8.52373e-301
8.02286e-301
-6.48978e-300
6.58607e-300
-4.80393e-299
5.32984e-299
-3.34459e-298
4.13066e-298
-1.77546e-297
3.16442e-297
-3.13776e-298
1.32373e-296
-1.92138e-298
2.47606e-297
-7.93631e-298
1.70133e-297
-2.13822e-297
6.88043e-297
-6.4733e-298
1.80152e-296
-1.65735e-298
5.8674e-297
-2.36891e-298
1.60298e-297
-7.02662e-298
2.30241e-297
-1.56357e-297
6.69894e-297
-4.65294e-297
1.47506e-296
-3.68522e-296
4.42067e-296
-3.29794e-295
3.53869e-295
-2.88937e-294
3.17723e-294
-2.43304e-293
2.77583e-293
-1.95483e-292
2.32674e-292
-1.49015e-291
1.86084e-291
-1.06842e-290
1.41115e-290
-7.09277e-290
1.0041e-289
-4.25029e-289
6.59028e-289
-2.24722e-288
3.90329e-288
-1.06383e-287
2.05939e-287
-4.69643e-287
9.86146e-287
-1.895e-286
4.41289e-286
-6.42799e-286
1.78922e-285
-1.5918e-285
6.04387e-285
-2.24847e-285
1.48852e-284
-1.21091e-285
2.11347e-284
-5.06569e-286
1.16129e-284
-1.46701e-285
4.97939e-285
-1.4516e-284
1.47205e-284
-1.45802e-283
1.48198e-283
-1.38596e-282
1.51678e-282
-1.23542e-281
1.46999e-281
-9.82204e-281
1.2994e-280
-4.82121e-280
9.23508e-280
-8.96299e-281
3.74494e-279
-9.18637e-282
7.57814e-280
-8.99122e-283
8.9255e-281
-9.7197e-284
8.92289e-282
-1.02423e-284
7.72872e-283
-1.06628e-285
7.67159e-284
-1.1109e-286
7.56605e-285
-1.1676e-287
7.47802e-286
-1.24899e-288
7.45091e-287
-1.37913e-289
7.53022e-288
-1.59617e-290
7.80296e-289
-1.93523e-291
8.41792e-290
-2.40044e-292
9.53191e-291
-2.98128e-293
1.12164e-291
-3.71618e-294
1.34727e-292
-4.71466e-295
1.63728e-293
-6.1406e-296
2.01509e-294
-8.22178e-297
2.522e-295
-1.13043e-297
3.22084e-296
-1.59511e-298
4.20706e-297
-2.31084e-299
5.63006e-298
-3.43992e-300
7.73035e-299
-5.26666e-301
1.09045e-299
-8.30023e-302
1.58213e-300
-1.34739e-302
2.36338e-301
-2.25398e-303
3.63762e-302
-3.88676e-304
5.77207e-303
-6.91025e-305
9.44572e-304
-1.26682e-305
1.59449e-304
-2.39485e-306
2.77673e-305
-4.66822e-307
4.98863e-306
-9.36139e-308
9.24504e-307
-1.83594e-308
1.76319e-307
3.28954e-308
-9.0335e-320
4.20252e-320
-3.50451e-319
1.70344e-319
-1.39871e-318
6.90817e-319
-5.75285e-318
2.88259e-318
-2.43861e-317
1.23956e-317
-1.06529e-316
5.49364e-317
-4.79454e-316
2.50937e-316
-2.22203e-315
1.18133e-315
-1.05953e-314
5.73134e-315
-5.1926e-314
2.86577e-314
-2.61303e-313
1.47731e-313
-1.34979e-312
7.85919e-313
-7.16537e-312
4.32322e-312
-3.92079e-311
2.46652e-311
-2.22183e-310
1.46502e-310
-1.3108e-309
9.09207e-310
-8.08913e-309
5.9113e-309
-5.2482e-308
4.03318e-308
-3.61832e-307
2.89571e-307
-2.70863e-306
2.20035e-306
-2.21917e-305
1.76772e-305
-1.79502e-304
1.41995e-304
-1.10587e-303
9.58486e-304
-5.65787e-303
5.15578e-303
-3.46328e-302
3.08772e-302
-2.50469e-301
2.3153e-301
-1.88466e-300
1.85075e-300
-1.38135e-299
1.4664e-299
-9.76035e-299
1.13777e-298
-6.38085e-298
8.37271e-298
-3.08636e-297
6.01512e-297
-7.01084e-298
2.34024e-296
-7.94338e-298
5.58134e-297
-3.40806e-297
7.01358e-297
-8.90926e-297
2.94052e-296
-2.77547e-297
7.47639e-296
-8.48295e-298
2.50979e-296
-1.54884e-297
8.20032e-297
-4.72989e-297
1.50528e-296
-1.11952e-296
4.50601e-296
-3.91757e-296
1.055e-295
-3.18552e-295
3.71916e-295
-2.83783e-294
3.05791e-294
-2.4718e-293
2.7335e-293
-2.06838e-292
2.37396e-292
-1.65067e-291
1.97706e-291
-1.2494e-290
1.57034e-290
-8.89289e-290
1.18232e-289
-5.85924e-289
8.35038e-289
-3.4838e-288
5.43842e-288
-1.82788e-287
3.19577e-287
-8.5946e-287
1.67362e-286
-3.7727e-286
7.9639e-286
-1.51584e-285
3.54541e-285
-5.12669e-285
1.4318e-284
-1.26693e-284
4.82206e-284
-1.78897e-284
1.18505e-283
-9.66349e-285
1.68234e-283
-3.44224e-285
9.27692e-284
-4.55699e-285
3.38951e-284
-3.91296e-284
4.58336e-284
-3.78365e-283
4.00579e-283
-3.45874e-282
3.94855e-282
-2.94819e-281
3.68141e-281
-2.21131e-280
3.10873e-280
-1.00155e-279
2.08625e-279
-2.03692e-280
7.88841e-279
-2.22936e-281
1.72715e-279
-2.27979e-282
2.15717e-280
-2.56308e-283
2.25678e-281
-2.80509e-284
2.0344e-282
-3.0264e-285
2.0971e-283
-3.26077e-286
2.14361e-284
-3.53694e-287
2.19156e-285
-3.89737e-288
2.25397e-286
-4.42594e-289
2.34644e-287
-5.25903e-290
2.49994e-288
-6.53321e-291
2.76821e-289
-8.29498e-292
3.21217e-290
-1.05459e-292
3.8705e-291
-1.34502e-293
4.76072e-292
-1.74365e-294
5.9217e-293
-2.31721e-295
7.45066e-294
-3.16181e-296
9.51862e-295
-4.42566e-297
1.23911e-295
-6.35174e-298
1.64779e-296
-9.35134e-299
2.24271e-297
-1.41359e-299
3.1291e-298
-2.19626e-300
4.48185e-299
-3.5102e-301
6.59829e-300
-5.77527e-302
9.99525e-301
-9.78628e-303
1.55918e-301
-1.7085e-303
2.50607e-302
-3.07368e-304
4.15198e-303
-5.69913e-305
7.09225e-304
-1.08918e-305
1.2492e-304
-2.1454e-306
2.26892e-305
-4.3453e-307
4.24906e-306
-8.59621e-308
8.18493e-307
1.54039e-307
-2.86573e-319
1.34e-319
-1.10316e-318
5.39386e-319
-4.36571e-318
2.17029e-318
-1.77916e-317
8.9787e-318
-7.46716e-317
3.82523e-317
-3.22735e-316
1.67835e-316
-1.43614e-315
7.58395e-316
-6.57709e-315
3.52947e-315
-3.09797e-314
1.6918e-314
-1.4996e-313
8.35404e-314
-7.45437e-313
4.25186e-313
-3.80463e-312
2.23298e-312
-1.9959e-311
1.21254e-311
-1.07912e-310
6.82819e-311
-6.03886e-310
4.00205e-310
-3.51474e-309
2.4497e-309
-2.13694e-308
1.56981e-308
-1.36354e-307
1.05459e-307
-9.21809e-307
7.4416e-307
-6.72289e-306
5.53586e-306
-5.30049e-305
4.32051e-305
-4.09401e-304
3.34277e-304
-2.4864e-303
2.20223e-303
-1.28359e-302
1.19748e-302
-7.73394e-302
7.14979e-302
-5.43948e-301
5.22332e-301
-3.96918e-300
4.05579e-300
-2.80813e-299
3.10949e-299
-1.90114e-298
2.3198e-298
-1.17538e-297
1.62831e-297
-5.25579e-297
1.10516e-296
-1.66227e-297
4.04841e-296
-2.99927e-297
1.33566e-296
-1.29245e-296
2.64541e-296
-3.28695e-296
1.11181e-295
-1.06392e-296
2.75152e-295
-4.03846e-297
9.60755e-296
-9.00963e-297
3.90406e-296
-2.82327e-296
8.75898e-296
-7.1939e-296
2.6883e-295
-2.92282e-295
6.77286e-295
-2.42227e-294
2.77293e-294
-2.14776e-293
2.32466e-293
-1.8601e-292
2.06855e-292
-1.54699e-291
1.78601e-291
-1.22644e-290
1.47801e-290
-9.21859e-290
1.16607e-289
-6.51451e-289
8.71774e-289
-4.26032e-288
6.11204e-288
-2.51351e-287
3.95023e-287
-1.30874e-286
2.30311e-286
-6.11213e-286
1.1972e-285
-2.66797e-285
5.66119e-285
-1.06753e-284
2.50743e-284
-3.60006e-284
1.00867e-283
-8.87837e-284
3.38699e-283
-1.25328e-283
8.30565e-283
-6.8125e-284
1.1789e-282
-2.29182e-284
6.54506e-283
-1.50371e-284
2.25997e-283
-9.7672e-284
1.51541e-283
-9.05748e-283
1.00223e-282
-7.96742e-282
9.47747e-282
-6.50114e-281
8.50465e-281
-4.60757e-280
6.86706e-280
-1.9328e-279
4.35881e-279
-4.27132e-280
1.54176e-278
-4.98665e-281
3.636e-279
-5.32846e-282
4.81158e-280
-6.22941e-283
5.26528e-281
-7.07867e-284
4.93905e-282
-7.9109e-285
5.28565e-283
-8.80815e-286
5.59677e-284
-9.85078e-287
5.91414e-285
-1.11694e-287
6.27225e-286
-1.30307e-288
6.71837e-287
-1.58791e-289
7.35108e-288
-2.01928e-290
8.34573e-289
-2.62193e-291
9.91432e-290
-3.40884e-292
1.22214e-290
-4.44355e-293
1.53769e-291
-5.8798e-294
1.95547e-292
-7.96435e-295
2.51237e-293
-1.10633e-295
3.27278e-294
-1.57493e-296
4.33825e-295
-2.29683e-297
5.86758e-296
-3.43334e-298
8.11442e-297
-5.26574e-299
1.1494e-297
-8.29512e-300
1.67017e-298
-1.34343e-300
2.49292e-299
-2.23848e-301
3.8264e-300
-3.83945e-302
6.04474e-301
-6.78144e-303
9.8342e-302
-1.23373e-303
1.64838e-302
-2.31227e-304
2.8474e-303
-4.46497e-305
5.0696e-304
-8.88281e-306
9.30379e-305
-1.81633e-306
1.75982e-305
-3.62336e-307
3.42244e-306
6.49514e-307
-8.95183e-319
4.20282e-319
-3.41967e-318
1.68005e-318
-1.34199e-317
6.70773e-318
-5.41897e-317
2.75158e-317
-2.25165e-316
1.16143e-316
-9.62617e-316
5.04442e-316
-4.23339e-315
2.2544e-315
-1.91452e-314
1.03672e-314
-8.89918e-314
4.90629e-314
-4.24909e-313
2.39018e-313
-2.08294e-312
1.19945e-312
-1.04832e-311
6.20809e-312
-5.42247e-311
3.32109e-311
-2.88985e-310
1.8418e-310
-1.59296e-309
1.06258e-309
-9.12233e-309
6.39827e-309
-5.4493e-308
4.03007e-308
-3.41002e-307
2.65822e-307
-2.25428e-306
1.83834e-306
-1.59821e-305
1.33544e-305
-1.21255e-304
1.01112e-304
-8.97772e-304
7.54811e-304
-5.38295e-303
4.87183e-303
-2.80199e-302
2.67277e-302
-1.6654e-301
1.59079e-301
-1.14122e-300
1.13408e-300
-8.09022e-300
8.56884e-300
-5.54202e-299
6.37453e-299
-3.61168e-298
4.58913e-298
-2.12764e-297
3.08795e-297
-8.95111e-297
1.997e-296
-4.18812e-297
6.99646e-296
-1.03015e-296
3.39658e-296
-4.40086e-296
9.08884e-296
-1.09219e-295
3.78059e-295
-3.72114e-296
9.13245e-295
-1.81219e-296
3.35835e-295
-4.72545e-296
1.75272e-295
-1.51993e-295
4.59678e-295
-4.21814e-295
1.44683e-294
-1.95997e-294
3.96807e-294
-1.64616e-293
1.8584e-293
-1.45264e-292
1.57955e-292
-1.2511e-291
1.39897e-291
-1.03426e-290
1.20099e-290
-8.14642e-290
9.87724e-290
-6.08151e-289
7.74109e-289
-4.26721e-288
5.74729e-288
-2.77007e-287
4.00029e-287
-1.62168e-286
2.56578e-286
-8.37945e-286
1.48424e-285
-3.88711e-285
7.65822e-285
-1.68732e-284
3.59865e-284
-6.72374e-284
1.58581e-283
-2.2609e-283
6.35445e-283
-5.56392e-283
2.12736e-282
-7.8506e-283
5.20491e-282
-4.29812e-283
7.3854e-282
-1.42284e-283
4.13166e-282
-5.70791e-284
1.4047e-282
-2.30601e-283
5.76186e-283
-2.02886e-282
2.3709e-282
-1.71831e-281
2.12765e-281
-1.34357e-280
1.83829e-280
-9.0132e-280
1.4207e-279
-3.51527e-279
8.54541e-279
-8.39013e-280
2.83694e-278
-1.04324e-280
7.17441e-279
-1.16475e-281
1.00472e-279
-1.41554e-282
1.14957e-280
-1.66936e-283
1.12178e-281
-1.93131e-284
1.24577e-282
-2.22037e-285
1.36555e-283
-2.55787e-286
1.4902e-284
-2.9814e-287
1.62812e-285
-3.56971e-288
1.79247e-286
-4.45696e-289
2.01215e-287
-5.79679e-290
2.33992e-288
-7.69098e-291
2.84329e-289
-1.02157e-291
3.58249e-290
-1.35965e-292
4.6062e-291
-1.83451e-293
5.98236e-292
-2.5302e-294
7.84026e-293
-3.5746e-295
1.04033e-293
-5.17038e-296
1.40282e-294
-7.65492e-297
1.92791e-295
-1.16077e-297
2.70652e-296
-1.80472e-298
3.88869e-297
-2.88021e-299
5.72766e-298
-4.72303e-300
8.66053e-299
-7.96412e-301
1.34589e-299
-1.38174e-301
2.15161e-300
-2.46751e-302
3.54074e-301
-4.53692e-303
6.0006e-302
-8.5905e-304
1.0476e-302
-1.67529e-304
1.88439e-303
-3.3649e-305
3.4927e-304
-6.94399e-306
6.67011e-305
-1.39655e-306
1.30919e-305
2.50494e-306
-2.76194e-318
1.30091e-318
-1.04691e-317
5.16349e-318
-4.07362e-317
2.04545e-317
-1.62967e-316
8.3189e-317
-6.70266e-316
3.47848e-316
-2.83365e-315
1.4953e-315
-1.23111e-314
6.60757e-315
-5.49485e-314
3.00139e-314
-2.51854e-313
1.40158e-313
-1.18491e-312
6.73103e-313
-5.7204e-312
3.32692e-312
-2.83435e-311
1.69477e-311
-1.44291e-310
8.91758e-311
-7.56507e-310
4.86146e-310
-4.09941e-309
2.75534e-309
-2.30536e-308
1.62875e-308
-1.35056e-307
1.00631e-307
-8.27501e-307
6.50435e-307
-5.34266e-306
4.40087e-306
-3.67988e-305
3.11772e-305
-2.68914e-304
2.28927e-304
-1.9146e-303
1.65185e-303
-1.13414e-302
1.04682e-302
-5.94743e-302
5.78343e-302
-3.49399e-301
3.43239e-301
-2.33732e-300
2.39263e-300
-1.6134e-299
1.76284e-299
-1.07421e-298
1.27659e-298
-6.77813e-298
8.90819e-298
-3.83882e-297
5.78114e-297
-1.55142e-296
3.59754e-296
-1.08815e-296
1.22887e-295
-3.2349e-296
8.90739e-296
-1.36415e-295
2.85915e-295
-3.31577e-295
1.17219e-294
-1.20976e-295
2.77267e-294
-7.71105e-296
1.09185e-294
-2.25997e-295
7.46385e-295
-7.48429e-295
2.20022e-294
-2.28566e-294
7.12326e-294
-1.19465e-293
2.14865e-293
-1.01246e-292
1.13218e-292
-8.89143e-292
9.71373e-292
-7.61631e-291
8.56266e-291
-6.2592e-290
7.30978e-290
-4.89865e-289
5.97511e-289
-3.63231e-288
4.65237e-288
-2.53081e-287
3.43044e-287
-1.63083e-286
2.37055e-286
-9.47381e-286
1.50896e-285
-4.85792e-285
8.66078e-285
-2.23836e-284
4.43554e-284
-9.66249e-284
2.07119e-283
-3.83451e-283
9.08063e-283
-1.28557e-282
3.62439e-282
-3.15659e-282
1.20965e-281
-4.45104e-282
2.95242e-281
-2.45464e-282
4.18694e-281
-8.11746e-283
2.36036e-281
-2.48375e-283
8.02128e-282
-5.29119e-283
2.51064e-282
-4.29946e-282
5.44897e-282
-3.50656e-281
4.51704e-281
-2.63014e-280
3.75776e-280
-1.67304e-279
2.78252e-279
-6.09043e-279
1.58917e-278
-1.56153e-279
4.96824e-278
-2.06406e-280
1.34162e-278
-2.40717e-281
1.98554e-279
-3.03977e-282
2.37428e-280
-3.71824e-283
2.40913e-281
-4.45005e-284
2.77469e-282
-5.27836e-285
3.14634e-283
-6.25805e-286
3.54291e-284
-7.49167e-287
3.98395e-285
-9.19802e-288
4.50407e-286
-1.17569e-288
5.1826e-287
-1.56272e-289
6.16811e-288
-2.11691e-290
7.66034e-289
-2.87013e-291
9.85733e-290
-3.89655e-292
1.29398e-290
-5.35578e-293
1.71465e-291
-7.5144e-294
2.29e-292
-1.0787e-294
3.0922e-293
-1.58386e-295
4.23762e-294
-2.37851e-296
5.91219e-295
-3.65565e-297
8.41821e-296
-5.75705e-298
1.22582e-296
-9.30113e-299
1.82867e-297
-1.54322e-299
2.79895e-298
-2.63173e-300
4.40085e-299
-4.61572e-301
7.11499e-300
-8.32951e-302
1.18362e-300
-1.5471e-302
2.02704e-301
-2.95828e-303
3.57494e-302
-5.82442e-304
6.49409e-303
-1.18078e-304
1.21524e-303
-2.45871e-305
2.3425e-304
-4.98465e-306
4.63942e-305
8.94847e-306
-8.40434e-318
3.96938e-318
-3.15998e-317
1.56369e-317