/*--------------------------------*- C++ -*----------------------------------*\
  =========                 |
  \\      /  F ield         | OpenFOAM: The Open Source CFD Toolbox
   \\    /   O peration     | Website:  https://openfoam.org
    \\  /    A nd           | Version:  9
     \\/     M anipulation  |
\*---------------------------------------------------------------------------*/
FoamFile
{
    format      ascii;
    class       volScalarField;
    location    "0.08";
    object      p;
}
// * * * * * * * * * * * * * * * * * * * * * * * * * * * * * * * * * * * * * //

dimensions      [1 -1 -2 0 0 0 0];

internalField   nonuniform List<scalar> 
20000
(
1.47805
1.47799
1.47779
1.47748
1.47702
1.47642
1.47561
1.47457
1.47324
1.47156
1.46951
1.46701
1.46383
1.45947
1.45308
1.44368
1.43033
1.41214
1.38814
1.35749
1.32638
1.30145
1.10318
1.03776
1.2308
1.27491
1.32312
1.34783
1.35939
1.36445
1.4534
1.13315
1.4037
1.393
1.45069
1.46091
1.45905
1.45508
1.45723
1.46134
1.46313
1.46255
1.46153
1.46137
1.46207
1.46322
1.46468
1.46656
1.46911
1.47205
1.47395
1.47373
1.47231
1.47097
1.47067
1.4712
1.47095
1.46851
1.46399
1.45807
1.45145
1.44413
1.43604
1.42875
1.42978
1.47917
1.33031
1.44057
1.41101
1.42989
1.43877
1.4454
1.45071
1.45524
1.45964
1.46454
1.47
1.4744
1.4754
1.47386
1.47237
1.47143
1.47103
1.47116
1.47169
1.47248
1.47341
1.47438
1.47533
1.47619
1.47692
1.47751
1.47796
1.47827
1.47847
1.47856
1.47858
1.47852
1.4784
1.47816
1.47597
1.47568
1.47526
1.47468
1.47392
1.47294
1.47167
1.47003
1.46791
1.4652
1.46177
1.45757
1.45257
1.44676
1.43996
1.4318
1.4217
1.40907
1.39349
1.37389
1.35383
1.33781
1.25263
1.19978
1.26258
1.29774
1.34154
1.36329
1.37983
1.37892
1.46515
1.22352
1.40117
1.39475
1.45168
1.4513
1.45473
1.45801
1.46232
1.46488
1.46518
1.465
1.46523
1.46594
1.46692
1.4681
1.46955
1.47138
1.4736
1.47564
1.4762
1.47512
1.47404
1.47366
1.47381
1.47368
1.472
1.46852
1.46433
1.45974
1.45471
1.4491
1.44398
1.44277
1.44175
1.48305
1.35986
1.43429
1.41335
1.44022
1.4456
1.45092
1.45548
1.45965
1.46378
1.46805
1.47203
1.47422
1.47339
1.47102
1.46962
1.4697
1.4706
1.47171
1.47275
1.47367
1.4745
1.47524
1.47588
1.47641
1.47682
1.47711
1.47729
1.47738
1.47737
1.47729
1.47715
1.47695
1.4767
1.4763
1.4738
1.47324
1.47262
1.4719
1.47106
1.47005
1.46884
1.46737
1.4656
1.46347
1.46093
1.45793
1.45441
1.45027
1.44532
1.43938
1.43225
1.42387
1.41457
1.40349
1.39348
1.39308
1.34078
1.32289
1.36428
1.34937
1.37117
1.38288
1.39937
1.38738
1.46784
1.29474
1.43545
1.40063
1.45352
1.45165
1.45752
1.45983
1.46351
1.466
1.46685
1.46719
1.46756
1.46829
1.46929
1.47045
1.4718
1.47336
1.47508
1.47662
1.4772
1.47668
1.476
1.4755
1.47522
1.47469
1.47312
1.47032
1.46683
1.46282
1.45859
1.45398
1.44993
1.4505
1.44092
1.47474
1.38632
1.44966
1.42037
1.44505
1.44798
1.45313
1.45715
1.46071
1.46404
1.46716
1.46989
1.47155
1.4716
1.47085
1.47037
1.4703
1.4706
1.47115
1.47178
1.47241
1.473
1.47351
1.47395
1.47431
1.47458
1.47478
1.47489
1.47493
1.47492
1.47485
1.47474
1.4746
1.47444
1.4742
1.47182
1.47124
1.47062
1.46995
1.46919
1.46834
1.46737
1.46625
1.46497
1.4635
1.46182
1.45992
1.45773
1.45519
1.4522
1.44867
1.44459
1.44019
1.43623
1.43201
1.42925
1.4405
1.41354
1.4078
1.42745
1.39632
1.40446
1.40558
1.41961
1.40349
1.4757
1.35576
1.45851
1.41312
1.4597
1.45496
1.46125
1.46205
1.46496
1.46737
1.46863
1.46926
1.46963
1.47035
1.47132
1.47244
1.47369
1.47504
1.47645
1.47774
1.47843
1.47831
1.47783
1.4772
1.47666
1.47599
1.4747
1.4725
1.46956
1.46601
1.46239
1.45847
1.45465
1.45596
1.443
1.47152
1.40967
1.45902
1.42875
1.44996
1.45051
1.45531
1.45866
1.46157
1.46419
1.46654
1.4686
1.47007
1.47062
1.47061
1.47049
1.47034
1.47031
1.4705
1.4708
1.47116
1.47152
1.47186
1.47214
1.47238
1.47255
1.47267
1.47273
1.47275
1.47272
1.47266
1.47257
1.47246
1.47235
1.47219
1.4699
1.46942
1.46892
1.46838
1.4678
1.46716
1.46645
1.46566
1.46478
1.4638
1.46271
1.46152
1.46022
1.4588
1.45728
1.45568
1.45408
1.45273
1.45246
1.45269
1.45381
1.46947
1.46008
1.45695
1.4592
1.42967
1.43207
1.42684
1.43859
1.42247
1.48294
1.40293
1.47122
1.42813
1.46633
1.45833
1.46488
1.46513
1.46753
1.46944
1.47066
1.47145
1.47203
1.4728
1.47374
1.4748
1.47595
1.47716
1.47835
1.47942
1.48006
1.48009
1.47979
1.47924
1.47864
1.47789
1.47668
1.47481
1.47236
1.46935
1.46634
1.4631
1.45951
1.4615
1.44843
1.47146
1.42856
1.46389
1.43776
1.45555
1.45406
1.45817
1.46069
1.46295
1.465
1.46679
1.46829
1.46936
1.46983
1.46996
1.46999
1.46994
1.46995
1.47002
1.47014
1.47029
1.47045
1.4706
1.47071
1.4708
1.47085
1.47087
1.47086
1.47082
1.47075
1.47067
1.47057
1.47046
1.47036
1.47021
1.46801
1.46769
1.46735
1.46699
1.4666
1.46619
1.46574
1.46526
1.46473
1.46416
1.46356
1.46294
1.46232
1.46175
1.46128
1.46099
1.46101
1.46155
1.46341
1.46639
1.47025
1.48597
1.48469
1.48238
1.4783
1.4536
1.45258
1.44437
1.45432
1.43974
1.48915
1.43551
1.48019
1.44226
1.47205
1.46204
1.46859
1.46845
1.4705
1.47188
1.47294
1.47381
1.47455
1.47538
1.47631
1.47732
1.47839
1.47949
1.48053
1.48141
1.48195
1.48204
1.48189
1.48147
1.48091
1.48012
1.47895
1.47732
1.47528
1.47277
1.4703
1.46774
1.46442
1.4668
1.45478
1.47323
1.44289
1.46805
1.44633
1.46082
1.45797
1.46133
1.46298
1.46462
1.46613
1.46739
1.4684
1.46907
1.46935
1.46944
1.46948
1.46947
1.46947
1.46948
1.46948
1.46948
1.46948
1.46946
1.46943
1.46939
1.46932
1.46924
1.46915
1.46904
1.46893
1.4688
1.46867
1.46854
1.46841
1.46825
1.46613
1.46598
1.46583
1.46566
1.46549
1.46532
1.46513
1.46494
1.46474
1.46455
1.46438
1.46426
1.46422
1.46431
1.46461
1.46522
1.46629
1.46801
1.47109
1.47568
1.48135
1.49546
1.49746
1.49638
1.49157
1.47121
1.46788
1.45851
1.46704
1.454
1.49441
1.45764
1.48735
1.45434
1.47707
1.46638
1.47243
1.47163
1.47339
1.47438
1.47534
1.47619
1.477
1.47786
1.47878
1.47976
1.48078
1.48179
1.48272
1.4835
1.48399
1.48412
1.48406
1.48374
1.48323
1.48248
1.48141
1.47999
1.47829
1.47618
1.47413
1.47213
1.46902
1.47149
1.46098
1.47595
1.45416
1.4722
1.4539
1.46537
1.46174
1.4644
1.46525
1.46632
1.4673
1.4681
1.46871
1.46909
1.46921
1.4692
1.46915
1.46905
1.46895
1.46883
1.46871
1.46859
1.46846
1.46832
1.46817
1.46802
1.46786
1.4677
1.46753
1.46735
1.46718
1.467
1.46683
1.46665
1.46649
1.4663
1.46425
1.46428
1.46431
1.46435
1.46439
1.46444
1.4645
1.46457
1.46467
1.4648
1.46499
1.46527
1.46569
1.46629
1.46715
1.4684
1.4702
1.47271
1.47648
1.48183
1.48826
1.50029
1.5039
1.50414
1.5
1.4835
1.47924
1.46978
1.47678
1.46588
1.49853
1.47299
1.49281
1.46435
1.48151
1.47092
1.47619
1.47468
1.47619
1.47687
1.47775
1.47857
1.47937
1.48024
1.48116
1.48211
1.48309
1.48405
1.48492
1.48564
1.48613
1.48631
1.48631
1.48606
1.48561
1.48494
1.484
1.4828
1.48137
1.47957
1.47782
1.47628
1.47335
1.47577
1.46684
1.479
1.4633
1.47606
1.46056
1.46938
1.46528
1.46729
1.46745
1.46801
1.46851
1.46889
1.46917
1.46929
1.46925
1.46911
1.46893
1.4687
1.46845
1.4682
1.46795
1.4677
1.46745
1.46719
1.46694
1.46669
1.46644
1.46619
1.46595
1.46571
1.46547
1.46524
1.46501
1.46479
1.46458
1.46435
1.46237
1.46256
1.46277
1.46298
1.46321
1.46347
1.46374
1.46405
1.46439
1.46478
1.46525
1.46583
1.46657
1.46753
1.46879
1.47047
1.47274
1.47573
1.47984
1.48542
1.49197
1.502
1.50632
1.50746
1.50426
1.49129
1.48725
1.47852
1.48437
1.47514
1.50151
1.48368
1.49681
1.4725
1.48526
1.47518
1.4797
1.47765
1.47894
1.47935
1.48016
1.48092
1.48172
1.48259
1.4835
1.48445
1.4854
1.48633
1.48717
1.48787
1.48836
1.48859
1.48865
1.48846
1.48809
1.48751
1.48672
1.4857
1.48449
1.48296
1.48144
1.48026
1.47754
1.47984
1.47236
1.48217
1.47078
1.4796
1.46648
1.47305
1.46865
1.47003
1.46961
1.46972
1.46978
1.46979
1.46975
1.46962
1.46938
1.46909
1.46877
1.4684
1.46801
1.46763
1.46724
1.46686
1.46648
1.46612
1.46576
1.46541
1.46506
1.46473
1.46441
1.46409
1.46379
1.4635
1.46321
1.46294
1.46268
1.46241
1.46048
1.46082
1.46117
1.46155
1.46194
1.46237
1.46283
1.46332
1.46386
1.46445
1.46513
1.46592
1.46688
1.46808
1.46959
1.47152
1.47404
1.47727
1.48149
1.48705
1.4935
1.50195
1.50629
1.50775
1.50545
1.49567
1.49243
1.48481
1.48948
1.4826
1.50362
1.49105
1.49971
1.47899
1.4883
1.47897
1.48286
1.48049
1.48162
1.4818
1.48255
1.48326
1.48406
1.48494
1.48586
1.48681
1.48775
1.48866
1.48949
1.49018
1.49069
1.49097
1.49108
1.49097
1.49068
1.49019
1.48953
1.48866
1.48765
1.48636
1.48502
1.48413
1.48161
1.48377
1.47753
1.48538
1.477
1.48292
1.47177
1.47645
1.47185
1.47266
1.47174
1.47143
1.47111
1.47077
1.47042
1.47003
1.46959
1.46914
1.46866
1.46815
1.46763
1.4671
1.46658
1.46607
1.46557
1.46508
1.46461
1.46416
1.46372
1.4633
1.4629
1.46251
1.46214
1.46178
1.46143
1.4611
1.46079
1.46047
1.45858
1.45904
1.45952
1.46003
1.46056
1.46113
1.46174
1.46238
1.46307
1.46382
1.46465
1.46559
1.4667
1.46804
1.46969
1.47176
1.47439
1.4777
1.48194
1.48738
1.4937
1.50103
1.50501
1.50633
1.50474
1.4977
1.49547
1.4891
1.49315
1.48789
1.50491
1.49603
1.50175
1.48404
1.4907
1.4823
1.48566
1.48313
1.48417
1.48417
1.4849
1.48558
1.48638
1.48727
1.48821
1.48917
1.49012
1.49104
1.49187
1.49258
1.49311
1.49343
1.4936
1.49357
1.49337
1.49297
1.49242
1.49169
1.49084
1.48975
1.48855
1.4879
1.48557
1.48755
1.48232
1.48855
1.48227
1.48608
1.47649
1.47958
1.47489
1.47517
1.47381
1.47314
1.47244
1.47178
1.47114
1.47051
1.46987
1.46925
1.46862
1.46795
1.46728
1.46661
1.46595
1.46531
1.46468
1.46408
1.4635
1.46295
1.46241
1.4619
1.46142
1.46095
1.4605
1.46007
1.45966
1.45927
1.4589
1.45853
1.45667
1.45723
1.45783
1.45844
1.45909
1.45977
1.46048
1.46125
1.46205
1.46292
1.46386
1.46491
1.46611
1.46754
1.46926
1.47138
1.47404
1.47737
1.48157
1.4869
1.49308
1.49967
1.50316
1.50412
1.50304
1.49824
1.49698
1.49187
1.49551
1.49152
1.50549
1.49927
1.50311
1.48792
1.49257
1.48518
1.48811
1.48556
1.48655
1.48645
1.48718
1.48784
1.48867
1.48959
1.49055
1.49153
1.49251
1.49344
1.4943
1.49503
1.49559
1.49597
1.49621
1.49626
1.49614
1.49583
1.49539
1.49478
1.49406
1.49313
1.49205
1.49157
1.48941
1.49116
1.48676
1.49164
1.48686
1.48913
1.48075
1.4825
1.47776
1.47755
1.47582
1.47481
1.47377
1.4728
1.4719
1.47103
1.4702
1.46941
1.46862
1.46781
1.46698
1.46616
1.46536
1.46458
1.46383
1.46311
1.46242
1.46176
1.46113
1.46053
1.45995
1.4594
1.45888
1.45838
1.45791
1.45745
1.45702
1.4566
1.45475
1.4554
1.45608
1.45679
1.45752
1.45829
1.45909
1.45994
1.46084
1.46179
1.46282
1.46394
1.4652
1.46666
1.46841
1.47054
1.47319
1.47649
1.48063
1.48584
1.49188
1.49794
1.50098
1.5016
1.50092
1.49786
1.4974
1.49357
1.49672
1.49389
1.50545
1.5012
1.5039
1.49084
1.49402
1.48763
1.4902
1.48777
1.48876
1.48862
1.48938
1.49005
1.49092
1.49187
1.49287
1.4939
1.49491
1.49588
1.49677
1.49754
1.49815
1.49858
1.49888
1.49901
1.49898
1.49877
1.49842
1.49792
1.49731
1.49652
1.49553
1.49516
1.49315
1.49466
1.49091
1.49465
1.49095
1.49208
1.48464
1.48525
1.48048
1.47983
1.47778
1.47645
1.4751
1.47384
1.47268
1.47159
1.47057
1.46962
1.46867
1.4677
1.46671
1.46574
1.4648
1.46388
1.463
1.46216
1.46136
1.46059
1.45986
1.45917
1.45851
1.45788
1.45728
1.4567
1.45616
1.45564
1.45514
1.45466
1.45282
1.45355
1.45431
1.45508
1.45588
1.45672
1.45759
1.4585
1.45946
1.46048
1.46156
1.46273
1.46403
1.46551
1.46725
1.46936
1.47197
1.47522
1.47928
1.48434
1.49018
1.49581
1.49852
1.49896
1.49869
1.49694
1.49701
1.49442
1.49712
1.49526
1.50489
1.50214
1.50419
1.49297
1.49511
1.48969
1.49198
1.48976
1.4908
1.49068
1.49151
1.4922
1.49312
1.49413
1.49518
1.49626
1.49732
1.49834
1.49928
1.5001
1.50077
1.50126
1.50163
1.50184
1.50189
1.50178
1.50152
1.50111
1.50059
1.49992
1.49899
1.49869
1.49682
1.49807
1.49482
1.49761
1.49469
1.49495
1.48824
1.48788
1.48309
1.48202
1.47968
1.47806
1.47641
1.47489
1.47348
1.47217
1.47098
1.46986
1.46875
1.46762
1.46648
1.46536
1.46427
1.46321
1.4622
1.46124
1.46032
1.45945
1.45862
1.45783
1.45708
1.45636
1.45568
1.45503
1.45441
1.45382
1.45326
1.45272
1.45089
1.45168
1.45249
1.45332
1.45418
1.45506
1.45598
1.45695
1.45795
1.45901
1.46014
1.46134
1.46266
1.46415
1.46588
1.46795
1.47051
1.47368
1.47763
1.48252
1.48809
1.49332
1.49582
1.49631
1.49648
1.4957
1.49602
1.49468
1.49686
1.49584
1.50395
1.50233
1.50404
1.49446
1.49591
1.4914
1.49346
1.49155
1.49267
1.49263
1.49355
1.49429
1.49529
1.49636
1.49749
1.49863
1.49975
1.50083
1.50184
1.50272
1.50345
1.504
1.50444
1.50473
1.50488
1.50485
1.50468
1.50435
1.5039
1.50332
1.50245
1.50219
1.50044
1.50142
1.49857
1.50055
1.49816
1.49776
1.4916
1.49041
1.48561
1.48415
1.48155
1.47965
1.47773
1.47595
1.4743
1.47279
1.47141
1.47013
1.46886
1.46758
1.46629
1.46501
1.46377
1.46257
1.46143
1.46034
1.45931
1.45832
1.45739
1.4565
1.45566
1.45486
1.4541
1.45337
1.45268
1.45202
1.45139
1.45079
1.44895
1.44979
1.45064
1.45152
1.45241
1.45334
1.4543
1.4553
1.45634
1.45744
1.45859
1.45982
1.46115
1.46264
1.46436
1.4664
1.46889
1.47198
1.4758
1.48047
1.48573
1.49056
1.49297
1.49369
1.49429
1.49427
1.49476
1.49423
1.49622
1.49584
1.50275
1.502
1.50357
1.49545
1.49648
1.49281
1.49469
1.49314
1.49439
1.49449
1.4955
1.49633
1.49742
1.49858
1.49978
1.501
1.5022
1.50335
1.50443
1.50539
1.50619
1.50681
1.50732
1.50769
1.50792
1.50798
1.5079
1.50765
1.50726
1.50676
1.50593
1.50567
1.50401
1.50474
1.5022
1.5035
1.50145
1.50052
1.49478
1.49289
1.48806
1.48623
1.4834
1.48123
1.47905
1.47702
1.47514
1.47343
1.47188
1.47043
1.46901
1.46757
1.46612
1.46469
1.4633
1.46196
1.46068
1.45947
1.45831
1.45722
1.45618
1.45519
1.45426
1.45337
1.45252
1.45171
1.45095
1.45022
1.44952
1.44885
1.447
1.44787
1.44876
1.44967
1.4506
1.45157
1.45256
1.45359
1.45466
1.45578
1.45695
1.4582
1.45954
1.46103
1.46274
1.46475
1.46719
1.47018
1.47386
1.4783
1.4832
1.48765
1.49006
1.4911
1.4921
1.49265
1.49335
1.4933
1.49529
1.49541
1.50142
1.50131
1.50286
1.49605
1.49686
1.49396
1.49571
1.49456
1.49597
1.49625
1.49738
1.49831
1.49951
1.50076
1.50207
1.50338
1.50466
1.5059
1.50707
1.50811
1.50899
1.50969
1.51027
1.51072
1.51104
1.51118
1.51118
1.51099
1.51066
1.51022
1.50942
1.50915
1.50757
1.50804
1.50574
1.50647
1.5046
1.50325
1.49782
1.49532
1.49046
1.48829
1.48524
1.48281
1.48038
1.47811
1.47601
1.4741
1.47237
1.47077
1.46919
1.4676
1.46599
1.4644
1.46285
1.46137
1.45996
1.45862
1.45734
1.45613
1.45498
1.45389
1.45286
1.45188
1.45095
1.45006
1.44922
1.44841
1.44765
1.44692
1.44505
1.44594
1.44686
1.4478
1.44876
1.44976
1.45078
1.45184
1.45293
1.45406
1.45525
1.4565
1.45786
1.45935
1.46105
1.46303
1.46542
1.46832
1.47185
1.47606
1.48063
1.48472
1.48716
1.48853
1.48986
1.49084
1.49177
1.49214
1.49415
1.49467
1.50001
1.50039
1.50201
1.49637
1.49709
1.4949
1.49656
1.49583
1.49743
1.49792
1.49919
1.50024
1.50157
1.50293
1.50435
1.50576
1.50714
1.50848
1.50974
1.51087
1.51184
1.51263
1.51329
1.51382
1.51423
1.51446
1.51452
1.5144
1.51412
1.51372
1.51295
1.51265
1.51113
1.51136
1.50923
1.50947
1.50768
1.50597
1.50077
1.49774
1.49283
1.49034
1.48708
1.48441
1.48173
1.47923
1.4769
1.4748
1.47291
1.47114
1.46941
1.46765
1.46589
1.46414
1.46244
1.46082
1.45926
1.45779
1.45639
1.45506
1.4538
1.45261
1.45148
1.45041
1.44939
1.44842
1.4475
1.44662
1.44578
1.44499
1.4431
1.44401
1.44495
1.44591
1.4469
1.44791
1.44896
1.45004
1.45115
1.4523
1.4535
1.45476
1.45612
1.45761
1.4593
1.46126
1.46359
1.46642
1.46982
1.47381
1.47807
1.48186
1.48432
1.48597
1.48757
1.48887
1.49006
1.4908
1.49285
1.49373
1.49857
1.49934
1.50109
1.49648
1.49721
1.49567
1.49729
1.49698
1.4988
1.49952
1.50094
1.50212
1.50359
1.50508
1.50662
1.50815
1.50964
1.51109
1.51245
1.51369
1.51475
1.51563
1.51638
1.517
1.51749
1.5178
1.51794
1.51788
1.51764
1.51728
1.51652
1.51618
1.5147
1.5147
1.51268
1.51249
1.51073
1.50873
1.50368
1.50018
1.4952
1.49241
1.48894
1.48603
1.48311
1.48038
1.47783
1.47554
1.47347
1.47156
1.46967
1.46775
1.46582
1.46392
1.46206
1.46029
1.45859
1.45698
1.45545
1.45401
1.45264
1.45134
1.45011
1.44894
1.44783
1.44678
1.44578
1.44482
1.44391
1.44305
1.44115
1.44208
1.44303
1.44401
1.44501
1.44605
1.44711
1.44821
1.44934
1.4505
1.45171
1.45299
1.45435
1.45584
1.45751
1.45945
1.46174
1.4645
1.46778
1.47158
1.47559
1.47913
1.4816
1.48344
1.48523
1.4868
1.48825
1.48934
1.49145
1.49266
1.49713
1.49822
1.50013
1.49646
1.49725
1.49631
1.49793
1.49802
1.50008
1.50105
1.50263
1.50397
1.50558
1.50721
1.50889
1.51054
1.51216
1.51373
1.51521
1.51655
1.51772
1.51869
1.51953
1.52024
1.52082
1.52122
1.52143
1.52143
1.52123
1.5209
1.52015
1.51977
1.51832
1.51808
1.51612
1.51555
1.51378
1.51153
1.50657
1.50266
1.49758
1.49451
1.49084
1.48769
1.48453
1.48157
1.47881
1.47632
1.47409
1.47201
1.46996
1.46789
1.4658
1.46373
1.46172
1.45979
1.45795
1.4562
1.45454
1.45297
1.45149
1.45008
1.44875
1.44749
1.44629
1.44515
1.44406
1.44303
1.44204
1.44111
1.4392
1.44014
1.4411
1.44209
1.44311
1.44416
1.44524
1.44636
1.4475
1.44868
1.4499
1.45119
1.45256
1.45405
1.45571
1.45763
1.45988
1.46257
1.46576
1.46941
1.47322
1.47656
1.47901
1.48096
1.48288
1.48468
1.48639
1.48779
1.49
1.49151
1.49571
1.49709
1.49917
1.49633
1.49724
1.49686
1.4985
1.499
1.50131
1.50253
1.50428
1.50578
1.50755
1.50933
1.51115
1.51295
1.51471
1.5164
1.518
1.51946
1.52074
1.52182
1.52276
1.52356
1.52424
1.52473
1.52501
1.52507
1.5249
1.52459
1.52386
1.52341
1.52198
1.52153
1.51957
1.51867
1.51686
1.51442
1.50948
1.50521
1.5
1.49666
1.49278
1.4894
1.486
1.48281
1.47983
1.47715
1.47475
1.47252
1.47031
1.46808
1.46582
1.46359
1.46141
1.45933
1.45734
1.45545
1.45366
1.45196
1.45036
1.44884
1.44741
1.44604
1.44475
1.44352
1.44235
1.44124
1.44018
1.43917
1.43724
1.43819
1.43917
1.44017
1.4412
1.44227
1.44336
1.44449
1.44565
1.44684
1.44808
1.44938
1.45075
1.45224
1.4539
1.4558
1.45802
1.46067
1.46378
1.46729
1.47097
1.47414
1.47655
1.47855
1.48055
1.48255
1.4845
1.4862
1.48853
1.49032
1.49433
1.49595
1.49822
1.49616
1.49722
1.49735
1.49904
1.49992
1.50248
1.50397
1.50589
1.50755
1.50949
1.51144
1.51342
1.51537
1.51727
1.51911
1.52085
1.52244
1.52383
1.52501
1.52605
1.52696
1.52774
1.52832
1.52867
1.52879
1.52865
1.52837
1.52765
1.52715
1.52572
1.52506
1.52308
1.52188
1.52001
1.5174
1.51244
1.50784
1.50248
1.49887
1.49479
1.49116
1.48754
1.48412
1.48092
1.47805
1.47548
1.47308
1.47071
1.46831
1.46589
1.46349
1.46115
1.4589
1.45676
1.45473
1.4528
1.45098
1.44925
1.44762
1.44608
1.44461
1.44322
1.4419
1.44065
1.43945
1.43831
1.43723
1.43529
1.43625
1.43724
1.43825
1.43929
1.44037
1.44148
1.44262
1.44379
1.445
1.44625
1.44755
1.44894
1.45043
1.45209
1.45398
1.45618
1.45879
1.46186
1.4653
1.46881
1.47187
1.47423
1.47623
1.47827
1.48046
1.48264
1.4846
1.48706
1.48911
1.493
1.49483
1.49727
1.49596
1.49723
1.49778
1.49955
1.50082
1.50362
1.50538
1.50747
1.50931
1.51142
1.51354
1.5157
1.51781
1.51987
1.52185
1.52374
1.52546
1.52697
1.52827
1.52942
1.53044
1.53133
1.532
1.53243
1.53261
1.53251
1.53225
1.53154
1.53098
1.52955
1.5287
1.52668
1.5252
1.52326
1.52048
1.51547
1.51055
1.5051
1.50114
1.49688
1.49302
1.48916
1.4855
1.48209
1.47902
1.47627
1.47371
1.47118
1.46861
1.46601
1.46344
1.46093
1.45852
1.45622
1.45404
1.45197
1.45002
1.44817
1.44642
1.44476
1.4432
1.44171
1.44029
1.43895
1.43766
1.43644
1.43529
1.43333
1.4343
1.4353
1.43633
1.43738
1.43847
1.43959
1.44074
1.44192
1.44314
1.4444
1.44572
1.44712
1.44862
1.45028
1.45216
1.45436
1.45694
1.45996
1.46334
1.46677
1.46975
1.47205
1.47401
1.47609
1.47843
1.48082
1.48302
1.4856
1.48789
1.4917
1.49374
1.49635
1.49574
1.49733
1.49817
1.50005
1.50169
1.50474
1.50675
1.50902
1.51104
1.51334
1.51564
1.51797
1.52026
1.52248
1.52463
1.52668
1.52854
1.53019
1.5316
1.53287
1.53401
1.53501
1.53578
1.5363
1.53653
1.53648
1.53624
1.53554
1.53493
1.53349
1.53247
1.53039
1.52867
1.52663
1.52366
1.51859
1.51334
1.50781
1.50355
1.4991
1.49498
1.49089
1.48699
1.48335
1.48008
1.47715
1.47441
1.47171
1.46897
1.4662
1.46345
1.46076
1.45819
1.45572
1.45339
1.45118
1.44909
1.44711
1.44524
1.44347
1.44179
1.4402
1.43869
1.43725
1.43588
1.43458
1.43335
1.43138
1.43236
1.43338
1.43441
1.43548
1.43658
1.43771
1.43887
1.44006
1.44129
1.44256
1.44388
1.44529
1.4468
1.44846
1.45035
1.45255
1.45512
1.45812
1.46146
1.46483
1.46775
1.47
1.47192
1.47404
1.47652
1.47909
1.48148
1.48417
1.48665
1.49043
1.49267
1.49545
1.49557
1.4974
1.49857
1.50055
1.50255
1.50583
1.5081
1.51054
1.51276
1.51525
1.51774
1.52026
1.52273
1.52513
1.52746
1.52966
1.53169
1.53347
1.53501
1.5364
1.53767
1.53879
1.53967
1.54027
1.54058
1.54057
1.54035
1.53967
1.53901
1.53756
1.53639
1.53424
1.5323
1.53014
1.52698
1.52185
1.51629
1.5106
1.50611
1.50143
1.49707
1.49272
1.48858
1.4847
1.48123
1.47811
1.4752
1.47233
1.46941
1.46645
1.46352
1.46066
1.4579
1.45528
1.45278
1.45042
1.44819
1.44608
1.44409
1.4422
1.44041
1.43871
1.4371
1.43556
1.4341
1.43271
1.4314
1.42942
1.43042
1.43145
1.4325
1.43358
1.43469
1.43582
1.43699
1.43819
1.43943
1.44071
1.44204
1.44345
1.44497
1.44665
1.44854
1.45075
1.45333
1.45632
1.45964
1.46297
1.46585
1.46808
1.47
1.47217
1.47477
1.47747
1.48
1.48276
1.48539
1.48918
1.49164
1.49461
1.49537
1.49753
1.49897
1.50108
1.50342
1.50691
1.50943
1.51206
1.51446
1.51715
1.51984
1.52256
1.52522
1.52781
1.53032
1.5327
1.53489
1.53682
1.5385
1.54002
1.54142
1.54267
1.54368
1.54437
1.54474
1.54478
1.54459
1.54393
1.54323
1.54178
1.54047
1.53825
1.53611
1.5338
1.53047
1.52525
1.51942
1.51354
1.5088
1.50391
1.49928
1.49469
1.49029
1.48618
1.48249
1.47918
1.47609
1.47303
1.46993
1.46679
1.46366
1.46061
1.45768
1.45488
1.45222
1.44971
1.44733
1.44508
1.44296
1.44094
1.43904
1.43723
1.43551
1.43388
1.43232
1.43084
1.42945
1.42747
1.42849
1.42953
1.43059
1.43168
1.4328
1.43395
1.43512
1.43633
1.43757
1.43886
1.4402
1.44161
1.44314
1.44482
1.44673
1.44895
1.45156
1.45457
1.45789
1.4612
1.46407
1.46629
1.46828
1.47053
1.47321
1.47599
1.4786
1.48139
1.48412
1.48795
1.49067
1.49383
1.49518
1.49768
1.49939
1.50165
1.50429
1.50798
1.51074
1.51355
1.51616
1.51904
1.52194
1.52487
1.52773
1.53052
1.53322
1.5358
1.53816
1.54025
1.54207
1.54373
1.54528
1.54667
1.5478
1.54859
1.54904
1.54914
1.54898
1.54835
1.54762
1.54617
1.54473
1.54244
1.54012
1.53764
1.53414
1.52882
1.52274
1.51666
1.51165
1.50653
1.50165
1.4968
1.49214
1.48778
1.48387
1.48037
1.47708
1.47384
1.47055
1.46721
1.46389
1.46064
1.45752
1.45454
1.45171
1.44903
1.4465
1.44411
1.44185
1.43971
1.43769
1.43576
1.43394
1.4322
1.43055
1.42897
1.42749
1.42552
1.42655
1.42761
1.42869
1.42979
1.43092
1.43207
1.43326
1.43447
1.43572
1.43701
1.43835
1.43977
1.4413
1.44299
1.44492
1.44716
1.4498
1.45286
1.45621
1.45952
1.46239
1.46468
1.46676
1.4691
1.47185
1.47465
1.47728
1.48006
1.48284
1.48674
1.48975
1.49315
1.49497
1.49782
1.49982
1.50225
1.50518
1.50904
1.51204
1.51503
1.51784
1.52093
1.52405
1.52719
1.53026
1.53326
1.53617
1.53894
1.5415
1.54375
1.54573
1.54754
1.54924
1.55078
1.55205
1.55295
1.55348
1.55364
1.55353
1.55293
1.55218
1.55073
1.5492
1.54684
1.54435
1.54171
1.53802
1.53259
1.52626
1.51997
1.5147
1.50934
1.50419
1.49907
1.49414
1.48953
1.48539
1.48168
1.4782
1.47476
1.47127
1.46773
1.4642
1.46075
1.45743
1.45426
1.45125
1.4484
1.44572
1.44318
1.44078
1.4385
1.43635
1.43431
1.43237
1.43053
1.42877
1.4271
1.42553
1.42357
1.42462
1.4257
1.42678
1.4279
1.42904
1.43021
1.4314
1.43262
1.43387
1.43516
1.43651
1.43793
1.43946
1.44116
1.4431
1.44537
1.44807
1.4512
1.45462
1.45796
1.46084
1.46321
1.46542
1.46789
1.47067
1.47344
1.47606
1.47879
1.4816
1.48556
1.48891
1.49262
1.4947
1.49794
1.50028
1.50289
1.50607
1.51009
1.51331
1.51649
1.51951
1.52281
1.52616
1.52953
1.53282
1.53604
1.53916
1.54215
1.5449
1.54733
1.54947
1.55145
1.55332
1.55502
1.55643
1.55745
1.55807
1.5583
1.55824
1.55769
1.55693
1.55549
1.55388
1.55145
1.54882
1.54601
1.54215
1.53658
1.53
1.52349
1.51795
1.51235
1.50692
1.50153
1.49631
1.49143
1.48705
1.48313
1.47945
1.47581
1.47211
1.46836
1.46461
1.46095
1.45741
1.45405
1.45085
1.44783
1.44497
1.44228
1.43973
1.43732
1.43504
1.43287
1.43081
1.42886
1.42699
1.42522
1.42356
1.42162
1.42269
1.42379
1.42489
1.42602
1.42717
1.42835
1.42955
1.43078
1.43203
1.43333
1.43467
1.43609
1.43762
1.43933
1.44129
1.44361
1.44637
1.44961
1.45313
1.45653
1.45944
1.46189
1.46424
1.46683
1.46963
1.47235
1.47491
1.47759
1.48042
1.48445
1.48811
1.49199
1.4946
1.49807
1.50074
1.50356
1.50697
1.51113
1.51456
1.51794
1.52116
1.52469
1.52827
1.53188
1.53541
1.53886
1.54221
1.54541
1.54838
1.551
1.55331
1.55546
1.5575
1.55938
1.56095
1.5621
1.56282
1.56313
1.56313
1.56263
1.56189
1.56046
1.55879
1.55631
1.55355
1.55058
1.54655
1.54083
1.53398
1.52723
1.52143
1.51557
1.50986
1.50418
1.49867
1.49352
1.48889
1.48473
1.48084
1.47699
1.47307
1.4691
1.46513
1.46124
1.45748
1.45391
1.45051
1.4473
1.44428
1.44142
1.43872
1.43616
1.43374
1.43145
1.42927
1.42719
1.42522
1.42333
1.42158
1.41968
1.42077
1.42188
1.423
1.42415
1.42532
1.42651
1.42772
1.42895
1.43021
1.43151
1.43285
1.43427
1.43581
1.43752
1.43951
1.44188
1.44474
1.44811
1.45176
1.45524
1.45818
1.46068
1.46317
1.46586
1.46865
1.47132
1.47384
1.47646
1.47931
1.48339
1.48736
1.49149
1.49447
1.49818
1.5012
1.50426
1.50788
1.51215
1.51579
1.51937
1.52281
1.52656
1.53039
1.53425
1.53802
1.54171
1.5453
1.54874
1.55192
1.55475
1.55724
1.55957
1.56181
1.56387
1.56561
1.5669
1.56774
1.56814
1.56821
1.56777
1.56705
1.56565
1.56394
1.56143
1.55854
1.55542
1.55124
1.54536
1.53824
1.53124
1.52515
1.51903
1.51304
1.50706
1.50125
1.49581
1.49091
1.48652
1.4824
1.47832
1.47418
1.46997
1.46576
1.46163
1.45764
1.45385
1.45024
1.44684
1.44363
1.4406
1.43774
1.43503
1.43247
1.43003
1.42772
1.42553
1.42344
1.42144
1.41958
1.41773
1.41885
1.41999
1.42113
1.42229
1.42347
1.42468
1.4259
1.42715
1.42842
1.42972
1.43107
1.43249
1.43403
1.43577
1.43779
1.44023
1.44321
1.44673
1.45052
1.45408
1.45704
1.45957
1.46213
1.46489
1.46769
1.47032
1.47281
1.47541
1.47828
1.4824
1.48662
1.49107
1.49433
1.49828
1.50164
1.50497
1.50877
1.51314
1.51699
1.52077
1.52444
1.52842
1.53251
1.53663
1.54065
1.5446
1.54844
1.55213
1.55555
1.55858
1.56127
1.5638
1.56623
1.5685
1.57043
1.57187
1.57283
1.57333
1.57348
1.57312
1.57244
1.57108
1.56935
1.56682
1.56382
1.56055
1.55623
1.55018
1.54278
1.53551
1.52915
1.52276
1.51647
1.51018
1.50406
1.49832
1.49314
1.48849
1.48413
1.47982
1.47544
1.47098
1.46651
1.46213
1.45791
1.45387
1.45005
1.44644
1.44304
1.43983
1.4368
1.43393
1.43121
1.42864
1.42619
1.42387
1.42165
1.41954
1.41758
1.41579
1.41693
1.41809
1.41926
1.42044
1.42164
1.42287
1.42411
1.42537
1.42666
1.42797
1.42933
1.43076
1.43233
1.43409
1.43618
1.43871
1.44182
1.44548
1.44941
1.45305
1.45602
1.45852
1.46108
1.46388
1.4667
1.46933
1.47182
1.47441
1.47733
1.48149
1.486
1.4906
1.49417
1.49835
1.50206
1.50566
1.50963
1.5141
1.51815
1.52215
1.52604
1.53028
1.53463
1.53902
1.54331
1.54753
1.55164
1.55559
1.55925
1.56251
1.5654
1.56813
1.57078
1.57327
1.57539
1.577
1.57809
1.57871
1.57895
1.57869
1.57805
1.57675
1.57503
1.57249
1.56939
1.56598
1.56153
1.55531
1.54763
1.54008
1.53344
1.52677
1.52018
1.51358
1.50714
1.50108
1.4956
1.49067
1.48606
1.4815
1.47686
1.47214
1.46741
1.46276
1.45828
1.454
1.44995
1.44612
1.44251
1.43911
1.4359
1.43286
1.42998
1.42726
1.42467
1.42221
1.41987
1.41763
1.41557
1.41385
1.41502
1.41621
1.4174
1.4186
1.41983
1.42108
1.42234
1.42363
1.42493
1.42627
1.42765
1.42912
1.43072
1.43254
1.4347
1.43734
1.44058
1.44439
1.44842
1.45211
1.45506
1.45751
1.46002
1.46281
1.46567
1.46834
1.47084
1.47346
1.47643
1.48062
1.48537
1.49014
1.49399
1.4984
1.50245
1.50633
1.51046
1.51502
1.51929
1.5235
1.52763
1.53211
1.53675
1.54142
1.546
1.55049
1.55488
1.55911
1.56303
1.56652
1.56963
1.57258
1.57546
1.57818
1.58052
1.58231
1.58354
1.58428
1.58464
1.58448
1.58391
1.58267
1.58097
1.57845
1.57524
1.5717
1.56713
1.56075
1.55278
1.54496
1.53803
1.53108
1.52418
1.51726
1.51049
1.5041
1.49831
1.49309
1.4882
1.48337
1.47847
1.47347
1.46845
1.46352
1.45877
1.45423
1.44993
1.44587
1.44205
1.43844
1.43504
1.43183
1.42878
1.4259
1.42316
1.42056
1.41808
1.41572
1.41354
1.41191
1.41312
1.41434
1.41555
1.41678
1.41803
1.41931
1.4206
1.42191
1.42325
1.42462
1.42604
1.42756
1.42922
1.43112
1.43338
1.43614
1.43951
1.44342
1.44751
1.45121
1.45413
1.4565
1.45895
1.46173
1.46463
1.46734
1.46988
1.47252
1.47554
1.47977
1.48472
1.48966
1.4938
1.49843
1.50278
1.50694
1.51123
1.51591
1.52038
1.52482
1.52918
1.53393
1.53887
1.54383
1.5487
1.55349
1.55817
1.56269
1.56688
1.57061
1.57395
1.57713
1.58026
1.58323
1.5858
1.58779
1.58918
1.59006
1.59054
1.59049
1.59001
1.58885
1.58718
1.58468
1.58139
1.57773
1.57305
1.56651
1.55826
1.55017
1.54295
1.53572
1.5285
1.52126
1.51414
1.50741
1.50129
1.49576
1.49057
1.48546
1.48027
1.47498
1.46966
1.46444
1.45939
1.45457
1.45002
1.44571
1.44166
1.43784
1.43424
1.43083
1.42762
1.42456
1.42167
1.41892
1.41629
1.41379
1.41149
1.40999
1.41123
1.41248
1.41371
1.41497
1.41625
1.41755
1.41888
1.42023
1.42161
1.42303
1.42451
1.42609
1.42783
1.42983
1.43221
1.4351
1.43857
1.44254
1.44664
1.4503
1.45318
1.4555
1.45789
1.46066
1.4636
1.46635
1.46892
1.47158
1.47465
1.47892
1.48405
1.48915
1.49356
1.49842
1.50305
1.50747
1.51194
1.51675
1.52144
1.5261
1.53071
1.53573
1.54097
1.54625
1.55143
1.55652
1.56151
1.56633
1.5708
1.5748
1.57838
1.5818
1.58519
1.58842
1.59124
1.59343
1.595
1.59603
1.59665
1.59674
1.59635
1.59528
1.59367
1.59119
1.58783
1.58406
1.57928
1.57258
1.56408
1.55571
1.54822
1.54069
1.53316
1.52558
1.51811
1.51103
1.50456
1.4987
1.4932
1.48779
1.48229
1.47668
1.47105
1.46551
1.46016
1.45505
1.45021
1.44565
1.44135
1.43731
1.43349
1.42989
1.42648
1.42325
1.42019
1.41728
1.4145
1.41186
1.40942
1.40828
1.40943
1.41063
1.41187
1.41315
1.41446
1.41581
1.41718
1.41857
1.42001
1.42149
1.42304
1.42471
1.42655
1.42866
1.43116
1.43416
1.43771
1.44169
1.44574
1.44934
1.45219
1.45449
1.45686
1.45964
1.46261
1.46539
1.46796
1.47062
1.47372
1.47804
1.48334
1.48857
1.49328
1.49838
1.50325
1.50792
1.51258
1.51754
1.52246
1.52734
1.5322
1.53751
1.54307
1.54867
1.55417
1.55958
1.56489
1.57002
1.5748
1.57906
1.58289
1.58657
1.59024
1.59376
1.59684
1.59926
1.60101
1.60221
1.60298
1.60321
1.60295
1.60198
1.60042
1.59798
1.59456
1.59069
1.58582
1.57898
1.57023
1.5616
1.55383
1.54601
1.53817
1.53025
1.52242
1.51497
1.50814
1.50193
1.4961
1.49037
1.48455
1.47861
1.47265
1.46677
1.46109
1.45567
1.45054
1.4457
1.44114
1.43685
1.43281
1.42899
1.42538
1.42197
1.41873
1.41565
1.41271
1.40991
1.40734
1.40641
1.40756
1.40878
1.41005
1.41136
1.4127
1.41408
1.41549
1.41694
1.41843
1.41999
1.42162
1.42338
1.42533
1.42756
1.43018
1.43327
1.43686
1.44081