/*--------------------------------*- C++ -*----------------------------------*\
  =========                 |
  \\      /  F ield         | OpenFOAM: The Open Source CFD Toolbox
   \\    /   O peration     | Website:  https://openfoam.org
    \\  /    A nd           | Version:  9
     \\/     M anipulation  |
\*---------------------------------------------------------------------------*/
FoamFile
{
    format      ascii;
    class       volScalarField;
    location    "0.08";
    object      p_rgh;
}
// * * * * * * * * * * * * * * * * * * * * * * * * * * * * * * * * * * * * * //

dimensions      [1 -1 -2 0 0 0 0];

internalField   nonuniform List<scalar> 
20000
(
8.17687e-05
2.52829e-05
-0.000170895
-0.00048973
-0.000941391
-0.00154998
-0.00235222
-0.00339493
-0.00472911
-0.00640114
-0.00845227
-0.0109561
-0.0141324
-0.0184971
-0.024886
-0.0342868
-0.0476395
-0.0658254
-0.0898243
-0.120479
-0.15159
-0.176518
-0.374781
-0.440207
-0.247165
-0.203058
-0.154841
-0.130133
-0.11858
-0.113512
-0.0245621
-0.344814
-0.0742608
-0.0849667
-0.0272765
-0.0170552
-0.0189121
-0.0228809
-0.0207377
-0.0166288
-0.0148306
-0.0154117
-0.0164392
-0.0165965
-0.0158959
-0.0147411
-0.0132866
-0.0114036
-0.00885235
-0.00591074
-0.00401497
-0.00423877
-0.00565509
-0.00699191
-0.00729121
-0.00676528
-0.0070106
-0.00945027
-0.0139737
-0.0198985
-0.026511
-0.0338321
-0.0419236
-0.0492116
-0.0481809
0.00120405
-0.147655
-0.0373977
-0.0669574
-0.0480771
-0.0391908
-0.0325609
-0.0272572
-0.0227222
-0.0183248
-0.0134207
-0.00796294
-0.00356946
-0.00256133
-0.00410539
-0.00559998
-0.00653518
-0.00693889
-0.00680937
-0.00627684
-0.00548535
-0.00455524
-0.00358038
-0.00263608
-0.00177886
-0.0010458
-0.000455081
-8.45238e-06
0.000304385
0.000500442
0.000598264
0.000613539
0.000558508
0.00043253
0.000196677
-3.7651e-05
-0.000319997
-0.000747066
-0.0013259
-0.00208443
-0.00306578
-0.00433289
-0.00597138
-0.00808912
-0.0108065
-0.0142325
-0.0184339
-0.0234304
-0.0292475
-0.0360415
-0.0441992
-0.0543007
-0.066936
-0.0825154
-0.102114
-0.122177
-0.138191
-0.223373
-0.276227
-0.213419
-0.178259
-0.134462
-0.112718
-0.0961756
-0.0970816
-0.0108531
-0.25248
-0.0748323
-0.0812556
-0.0243211
-0.0247066
-0.0212758
-0.0179924
-0.0136837
-0.0111267
-0.0108273
-0.0110036
-0.0107721
-0.0100643
-0.00908044
-0.00789839
-0.00645105
-0.00462232
-0.00240369
-0.000366356
0.000198956
-0.00088567
-0.00196255
-0.00234265
-0.00219465
-0.00232286
-0.00400544
-0.00748096
-0.0116737
-0.0162649
-0.021293
-0.0268996
-0.0320279
-0.0332373
-0.0342511
0.00705156
-0.116145
-0.0417147
-0.0626568
-0.0357834
-0.0304013
-0.0250803
-0.0205221
-0.0163553
-0.0122255
-0.00795112
-0.00397223
-0.0017806
-0.00260817
-0.00497941
-0.00638466
-0.00629823
-0.00540203
-0.00429129
-0.00325538
-0.00233202
-0.00150512
-0.000767378
-0.000127305
0.00040281
0.000815033
0.00110892
0.00129117
0.00137335
0.00136884
0.00129014
0.00114762
0.000950691
0.000693676
0.000295594
-0.000243118
-0.000803295
-0.00142276
-0.00213882
-0.00298263
-0.00398945
-0.00520157
-0.00666754
-0.00844017
-0.0105728
-0.013115
-0.0161135
-0.0196289
-0.0237751
-0.0287205
-0.0346589
-0.0417924
-0.0501721
-0.0594712
-0.0705534
-0.0805586
-0.0809639
-0.133263
-0.151148
-0.109758
-0.124667
-0.102871
-0.0911655
-0.0746711
-0.0866635
-0.0062056
-0.179305
-0.0385894
-0.0734092
-0.0205201
-0.0223959
-0.0165173
-0.0142117
-0.0105356
-0.00803774
-0.00718676
-0.00685212
-0.0064845
-0.0057465
-0.00475095
-0.0035877
-0.00224171
-0.00068326
0.00104162
0.00257943
0.00315484
0.00263461
0.00195616
0.00145539
0.00117413
0.000645403
-0.00092435
-0.0037207
-0.00721346
-0.0112247
-0.0154544
-0.0200594
-0.0241131
-0.0235414
-0.0331253
0.000699553
-0.087721
-0.0243843
-0.0536723
-0.0289904
-0.0260571
-0.0209132
-0.0168879
-0.0133276
-0.0100036
-0.00687798
-0.00415217
-0.00249446
-0.0024419
-0.00318666
-0.003669
-0.00373861
-0.00344386
-0.00289482
-0.00225832
-0.00162787
-0.00104479
-0.000527699
-8.72699e-05
0.00027058
0.000543853
0.000734475
0.000847854
0.000891905
0.000875745
0.000808378
0.000699419
0.000561308
0.000399404
0.000159202
-0.000263649
-0.000840448
-0.00145648
-0.0021329
-0.00288702
-0.00373902
-0.0047114
-0.00582737
-0.00710936
-0.00857807
-0.010254
-0.0121632
-0.0143477
-0.016884
-0.0198771
-0.0234079
-0.0274881
-0.0318931
-0.035853
-0.0400668
-0.0428267
-0.0315745
-0.0585395
-0.0642742
-0.0446333
-0.0757596
-0.0676228
-0.0664954
-0.0524732
-0.0685918
0.00362044
-0.116322
-0.0135654
-0.0589576
-0.0123763
-0.0171173
-0.0108284
-0.0100281
-0.00711533
-0.00470723
-0.00345221
-0.0028234
-0.00244822
-0.00172607
-0.000758453
0.000363797
0.00160807
0.00295695
0.00436634
0.00565872
0.00635379
0.00623463
0.00575587
0.00512376
0.00457633
0.00390974
0.0026166
0.000417064
-0.00252018
-0.00606995
-0.00968938
-0.0136066
-0.0174333
-0.0161191
-0.029075
-0.000554418
-0.0624041
-0.0130555
-0.04333
-0.0221173
-0.0215714
-0.0167721
-0.0134165
-0.0105117
-0.00788981
-0.0055341
-0.00347588
-0.0020051
-0.00145575
-0.00146675
-0.00159129
-0.00174034
-0.00177061
-0.00158252
-0.00127665
-0.000918824
-0.000557183
-0.000222765
6.59161e-05
0.000299291
0.000473792
0.000590171
0.000652284
0.000666094
0.000638737
0.000577367
0.000489319
0.000385496
0.000271804
0.000108956
-0.000217132
-0.000692775
-0.00119509
-0.00173398
-0.00231845
-0.00295913
-0.00366789
-0.00445681
-0.005337
-0.00631715
-0.00740291
-0.00859722
-0.00990062
-0.0113137
-0.0128355
-0.0144373
-0.0160397
-0.0173856
-0.0176574
-0.0174253
-0.0163066
-0.0006444
-0.0100346
-0.0131703
-0.0109126
-0.0404493
-0.0380507
-0.0432722
-0.0315307
-0.0476427
0.0128212
-0.0671835
0.00110013
-0.0419915
-0.0037871
-0.011785
-0.00523854
-0.00498679
-0.00258778
-0.000678204
0.000547675
0.0013365
0.00191405
0.00268083
0.00361922
0.00468113
0.00583434
0.00704031
0.00823696
0.00930676
0.0099441
0.00997735
0.00967551
0.00912427
0.00852421
0.00776912
0.00656011
0.00469796
0.00224571
-0.000768386
-0.00377992
-0.00701396
-0.0106029
-0.00861416
-0.0216876
0.00134444
-0.0415612
-0.00622671
-0.032356
-0.0145672
-0.0160615
-0.0119481
-0.00942981
-0.00716337
-0.00511221
-0.00332748
-0.00182955
-0.000761038
-0.00028256
-0.000153408
-0.000129302
-0.000172474
-0.000168583
-9.35387e-05
2.77586e-05
0.000177459
0.000333704
0.00047812
0.000597795
0.000685352
0.000737858
0.000755708
0.000741552
0.000699427
0.00063409
0.000550187
0.000452131
0.000346946
0.000239075
9.4333e-05
-0.000145315
-0.00046991
-0.000809374
-0.00116895
-0.0015526
-0.00196522
-0.00241217
-0.00289836
-0.00342665
-0.00399573
-0.00459812
-0.00521876
-0.00583334
-0.00640536
-0.00687954
-0.00716753
-0.00714915
-0.00660116
-0.00474855
-0.00176555
0.00209095
0.0178149
0.0165385
0.0142295
0.0101486
-0.0145583
-0.0155738
-0.0237856
-0.0138323
-0.0284167
0.0209901
-0.0326492
0.0120342
-0.025898
0.00389947
-0.00611858
0.000435077
0.000296946
0.0023449
0.0037219
0.00478893
0.00565052
0.00639369
0.00722657
0.00815128
0.00916176
0.0102374
0.0113335
0.0123741
0.0132599
0.0137961
0.013887
0.0137327
0.0133185
0.0127529
0.0119617
0.0107907
0.0091614
0.00712512
0.00461565
0.00214737
-0.000417332
-0.00373646
-0.00135299
-0.0133743
0.00507053
-0.0252601
-0.000103691
-0.0218279
-0.0073392
-0.010185
-0.00682647
-0.0051794
-0.00353571
-0.00202968
-0.000761608
0.000244725
0.000915101
0.00119919
0.00128702
0.00132637
0.00131834
0.00131759
0.00132179
0.00132383
0.00132502
0.00132097
0.00130661
0.00127789
0.00123244
0.00116952
0.00108984
0.000995105
0.000887649
0.000770133
0.000645068
0.000514739
0.000383539
0.000254167
9.67498e-05
-6.19658e-05
-0.000212455
-0.000367542
-0.000529858
-0.000699338
-0.000876538
-0.00106196
-0.00125496
-0.00145184
-0.00164351
-0.00181319
-0.00193523
-0.00197415
-0.00188156
-0.00158754
-0.00097715
9.51645e-05
0.00182141
0.0048936
0.00948292
0.0151573
0.0292632
0.031272
0.0301892
0.0253763
0.00501911
0.00169139
-0.0076871
0.000851633
-0.0121887
0.0282163
-0.00855551
0.0211575
-0.0118523
0.0108811
0.000182698
0.00623246
0.0054402
0.00720099
0.00819124
0.00914328
0.0100018
0.0108037
0.0116688
0.0125891
0.0135674
0.0145839
0.0155955
0.0165301
0.0173067
0.0177949
0.0179316
0.0178694
0.0175504
0.0170396
0.0162855
0.0152132
0.0138006
0.0120982
0.00998875
0.00793491
0.00593875
0.00282876
0.00530158
-0.00521053
0.00975773
-0.012028
0.00600537
-0.0122885
-0.000825897
-0.00445306
-0.00179314
-0.00094002
0.00012491
0.00110512
0.00190558
0.00251879
0.00289512
0.00301489
0.00300755
0.00295665
0.00285832
0.0027523
0.00264078
0.00252148
0.00239656
0.00226522
0.00212683
0.00198118
0.00182832
0.0016687
0.00150314
0.00133283
0.00115914
0.00098359
0.000807555
0.000632216
0.000460565
0.000294413
0.000107834
2.33795e-05
5.01408e-05
8.10538e-05
0.000115317
0.000156141
0.00020581
0.000266686
0.000342367
0.000439919
0.000572628
0.00076254
0.00104201
0.00145416
0.00205429
0.00291874
0.00416975
0.00596742
0.008479
0.0122538
0.0176022
0.0240291
0.0360547
0.0396723
0.0399096
0.0357713
0.0192686
0.015013
0.00555318
0.0125506
0.00165295
0.0342981
0.00875646
0.0285753
0.000121565
0.0172757
0.00669053
0.0119617
0.0104529
0.0119564
0.0126439
0.0135202
0.0143365
0.0151382
0.0160086
0.0169249
0.0178839
0.01886
0.0198144
0.0206856
0.0214103
0.0218948
0.0220803
0.022078
0.0218255
0.0213785
0.0207059
0.0197738
0.0185688
0.0171368
0.0153422
0.0135881
0.0120461
0.00912233
0.0115362
0.00260443
0.0147724
-0.000928156
0.0118281
-0.00367129
0.00514948
0.00104888
0.00305654
0.00322362
0.00377704
0.0042778
0.00466396
0.00494064
0.00506316
0.00501641
0.00488088
0.00469771
0.00446556
0.00422091
0.00397145
0.00371925
0.00346687
0.00321439
0.00296208
0.00271028
0.00245929
0.00220957
0.00196171
0.00171646
0.00147463
0.00123712
0.00100461
0.000777582
0.000558071
0.000347359
0.000123392
0.000103073
0.000295065
0.000498486
0.000713531
0.000945607
0.00119833
0.00147506
0.00178027
0.00212195
0.0025146
0.00298235
0.00356129
0.00430013
0.00526005
0.00652098
0.00820476
0.0104689
0.0134581
0.0175706
0.0231475
0.0296963
0.0397356
0.0440553
0.0451911
0.0419875
0.0290233
0.0249811
0.0162523
0.0220995
0.0128732
0.0392395
0.021409
0.0345452
0.0102318
0.0229901
0.0129119
0.0174311
0.0153815
0.0166714
0.0170829
0.0178915
0.0186553
0.0194493
0.0203209
0.0212345
0.022183
0.023136
0.0240582
0.0248967
0.0255983
0.0260919
0.0263235
0.026377
0.0261926
0.0258199
0.0252406
0.0244476
0.023427
0.0222226
0.0206957
0.0191705
0.017994
0.0152694
0.0175748
0.0100885
0.0198988
0.00851217
0.0173349
0.00421153
0.010783
0.00637642
0.0077651
0.00734365
0.00744645
0.00751505
0.00752588
0.00748515
0.00734999
0.0071123
0.00682384
0.00649766
0.00612871
0.0057459
0.00535843
0.00497159
0.00458958
0.00421412
0.00384635
0.00348691
0.00313611
0.00279417
0.00246136
0.00213796
0.00182423
0.00152044
0.0012267
0.000942859
0.000670116
0.000409349
0.000142178
0.000173467
0.000511286
0.000866177
0.00123882
0.00163616
0.00206205
0.00251958
0.00301288
0.00354959
0.00414393
0.00481995
0.00561422
0.00657718
0.0077728
0.00928103
0.0112172
0.0137325
0.0169604
0.0211867
0.026738
0.0331898
0.0416408
0.0459829
0.0474428
0.0451419
0.0353593
0.0321258
0.0244994
0.0291708
0.0222936
0.0433143
0.0307428
0.0394016
0.0186788
0.0279922
0.0186657
0.0225547
0.0201807
0.0213159
0.0214902
0.0222432
0.0229579
0.0237531
0.0246319
0.0255501
0.0264985
0.027444
0.0283544
0.0291817
0.029877
0.0303845
0.03066
0.030773
0.0306643
0.0303734
0.0298872
0.029219
0.0283561
0.0273444
0.0260516
0.0247097
0.0238267
0.0213063
0.023467
0.0172226
0.0250708
0.0166893
0.0226164
0.0114592
0.0161382
0.0115449
0.0123565
0.0114304
0.0111277
0.0107995
0.0104615
0.0101159
0.00972379
0.00928496
0.00883135
0.00835476
0.00784361
0.00731953
0.00679283
0.00627086
0.00575889
0.00525975
0.00477531
0.00430651
0.00385375
0.00341713
0.00299656
0.00259183
0.00220267
0.00182877
0.00146965
0.00112465
0.000794279
0.000479085
0.000163821
0.000233734
0.000696326
0.00117995
0.00168508
0.00221989
0.00278797
0.00339212
0.00403594
0.00472585
0.00547426
0.00630353
0.00724889
0.00835944
0.00969893
0.0113482
0.0134145
0.0160403
0.0193588
0.0235934
0.0290366
0.0353528
0.0426826
0.0466651
0.0479866
0.0463959
0.0393505
0.0371234
0.0307579
0.0348076
0.0295401
0.0465659
0.0376849
0.0434051
0.0256981
0.0323557
0.0239516
0.0273173
0.0247892
0.0258268
0.0258267
0.0265521
0.0272301
0.0280363
0.0289298
0.0298632
0.030824
0.0317769
0.0326922
0.0335255
0.0342302
0.0347613
0.0350833
0.0352593
0.0352287
0.0350224
0.0346284
0.0340741
0.0333473
0.0324961
0.0314039
0.0302083
0.0295529
0.0272249
0.0292001
0.0239779
0.0302037
0.0239273
0.0277391
0.0181476
0.0212364
0.0165421
0.0168246
0.0154665
0.0147935
0.0140975
0.0134332
0.0127989
0.0121617
0.0115256
0.0109041
0.0102714
0.00960994
0.00893726
0.00826603
0.00760546
0.00696165
0.00633782
0.00573597
0.00515707
0.0046014
0.00406877
0.00355872
0.00307053
0.0026034
0.00215649
0.00172885
0.00131936
0.000928024
0.000555135
0.00018786
0.00028463
0.000851658
0.00144246
0.00205672
0.00270262
0.0033833
0.00410198
0.00486254
0.00567062
0.00653618
0.00747782
0.00852739
0.00973191
0.0111538
0.0128745
0.0149973
0.0176576
0.0209897
0.0251894
0.0305145
0.0367006
0.0432836
0.0467819
0.0477399
0.0466579
0.0418544
0.040597
0.0354831
0.0391289
0.0351366
0.0491049
0.042885
0.0467313
0.031541
0.0361918
0.0287931
0.0317227
0.0291793
0.0301699
0.0300653
0.0307965
0.0314559
0.0322852
0.0332027
0.0341633
0.0351494
0.0361241
0.0370595
0.0379146
0.0386446
0.0392111
0.0395832
0.0398258
0.0398729
0.0397528
0.0394509
0.0390026
0.0383949
0.0376758
0.0367513
0.0356704
0.0351829
0.0330277
0.0347819
0.030379
0.035255
0.0304781
0.0327431
0.0243694
0.0261174
0.0213732
0.02117
0.0194402
0.0184268
0.0173902
0.0164216
0.0155153
0.0146462
0.013819
0.01303
0.0122388
0.0114227
0.0105967
0.00977642
0.00897362
0.00819512
0.00744454
0.00672381
0.00603358
0.00537376
0.00474374
0.00414254
0.00356896
0.00302167
0.00249936
0.00200063
0.00152399
0.001069
0.000635809
0.00021354
0.000327071
0.000982284
0.00166276
0.00236551
0.00309881
0.00386638
0.00467225
0.00552089
0.00641757
0.00737043
0.00839405
0.00951555
0.0107774
0.0122406
0.013987
0.0161192
0.0187686
0.0220724
0.0262139
0.0314186
0.037458
0.0435172
0.0465616
0.0471751
0.0465022
0.0434437
0.042982
0.0391454
0.0422943
0.0394707
0.0510282
0.0467809
0.0494829
0.0364205
0.0395979
0.03321
0.0357826
0.0333488
0.0343394
0.034197
0.0349637
0.0356269
0.0364952
0.0374489
0.0384495
0.039474
0.0404843
0.0414547
0.0423464
0.0431156
0.0437279
0.044158
0.0444605
0.0445901
0.0445583
0.0443485
0.0439991
0.043496
0.0428854
0.0420996
0.0411073
0.0407361
0.0387339
0.0402425
0.0364859
0.0402295
0.0365339
0.0376568
0.03022
0.0308314
0.0260618
0.0254087
0.0233549
0.0220262
0.0206742
0.0194207
0.0182564
0.0171655
0.0161521
0.015197
0.0142471
0.013275
0.0122938
0.0113221
0.0103745
0.0094591
0.00857969
0.00773833
0.00693514
0.00616952
0.00544033
0.00474606
0.00408496
0.0034552
0.00285499
0.00228253
0.00173592
0.00121428
0.000717441
0.000235757
0.000364121
0.00109457
0.00184882
0.00262183
0.00342285
0.00425636
0.0051272
0.0060406
0.00700186
0.00801772
0.00909993
0.0102706
0.011567
0.013047
0.0147909
0.0169029
0.0195125
0.0227595
0.0268197
0.0318828
0.0377235
0.0433547
0.0460564
0.0465012
0.0462332
0.0444776
0.0445478
0.04196
0.0446613
0.0427992
0.0524324
0.049681
0.0517285
0.0405095
0.0426507
0.0372331
0.0395191
0.0373036
0.0383383
0.0382207
0.0390487
0.0397402
0.0406658
0.0416703
0.0427249
0.0438007
0.0448601
0.0458794
0.0468214
0.0476422
0.0483082
0.0487986
0.0491669
0.0493778
0.0494348
0.0493166
0.0490599
0.0486492
0.0481279
0.0474563
0.0465323
0.0462339
0.0443655
0.0456144
0.0423638
0.0451519
0.0422307
0.0424951
0.0357772
0.0354208
0.0306344
0.0295625
0.0272219
0.0255982
0.0239524
0.0224297
0.0210185
0.0197136
0.0185181
0.0173985
0.0162907
0.015162
0.0140247
0.0129004
0.0118064
0.0107523
0.00974254
0.00877875
0.00786073
0.0069874
0.00615704
0.00536761
0.00461685
0.00390247
0.00322226
0.00257403
0.00195558
0.00136572
0.000804196
0.000263141
0.000394233
0.00118516
0.00199793
0.00282653
0.00368119
0.0045664
0.00548689
0.00644808
0.0074556
0.00851595
0.00963913
0.0108437
0.0121625
0.0136494
0.0153789
0.0174574
0.020011
0.0231809
0.0271336
0.0320191
0.0375946
0.0428235
0.0453203
0.0458147
0.045981
0.0452014
0.0455231
0.0441855
0.0463595
0.0453424
0.0534498
0.0518371
0.0535472
0.0439605
0.0454139
0.0409049
0.0429634
0.0410524
0.0421727
0.0421379
0.0430501
0.0437953
0.0447967
0.0458676
0.0469906
0.0481308
0.0492524
0.0503336
0.0513387
0.0522223
0.0529503
0.0535051
0.0539427
0.0542338
0.0543787
0.0543506
0.0541813
0.0538537
0.0534063
0.0528278
0.0519569
0.0516953
0.0499413
0.0509262
0.0480723
0.0500547
0.0476652
0.0472672
0.0411013
0.0399179
0.0351147
0.0336521
0.0310539
0.0291517
0.0272297
0.0254502
0.0238011
0.0222885
0.0209146
0.0196325
0.0183676
0.0170821
0.015788
0.01451
0.0132683
0.0120739
0.010932
0.00984381
0.0088089
0.00782567
0.00689193
0.00600513
0.00516256
0.00436148
0.00359926
0.00287339
0.0021813
0.00152144
0.000893376
0.000291066
0.000415762
0.00125033
0.00210723
0.00298019
0.00387923
0.00480761
0.0057689
0.00676784
0.00780998
0.00890195
0.0100536
0.0112819
0.0126164
0.014106
0.0158233
0.0178664
0.0203594
0.0234408
0.027263
0.0319354
0.037191
0.0420227
0.0444356
0.0451564
0.0457577
0.0457371
0.0462258
0.045695
0.0476824
0.0473076
0.0542199
0.0534637
0.0550355
0.0469109
0.0479423
0.0442733
0.0461537
0.0446086
0.0458531
0.0459527
0.0469694
0.0477931
0.0488878
0.0500409
0.0512468
0.0524645
0.0536611
0.0548164
0.055896
0.0568533
0.0576524
0.0582777
0.0587868
0.0591572
0.0593887
0.0594485
0.0593618
0.0591101
0.0587249
0.0582212
0.0573915
0.0571383
0.0554794
0.0562034
0.0536614
0.0549657
0.0529117
0.0519869
0.0462426
0.0443507
0.0395246
0.0376973
0.034864
0.0326962
0.0305121
0.0284855
0.026606
0.0248911
0.0233417
0.0218998
0.0204775
0.0190352
0.0175839
0.0161512
0.01476
0.0134235
0.012147
0.0109321
0.00977794
0.00868248
0.00764309
0.00665676
0.00572032
0.00483058
0.0039845
0.00317919
0.00241175
0.00168023
0.000984035
0.000318952
0.000430794
0.00129595
0.00218582
0.00309417
0.00403015
0.00499519
0.00599117
0.00702152
0.00809107
0.00920657
0.0103784
0.0116232
0.012969
0.014461
0.0161668
0.0181789
0.0206146
0.0236049
0.0272841
0.0317221
0.0366316
0.0410794
0.0434873
0.0445296
0.0455275
0.0460799
0.046779
0.0467284
0.0487178
0.0488384
0.0548487
0.0547331
0.0562919
0.0494783
0.0502826
0.047386
0.0491332
0.0479907
0.049396
0.0496728
0.0508111
0.0517359
0.0529402
0.0541911
0.0554941
0.0568024
0.0580865
0.0593273
0.0604922
0.061533
0.0624121
0.0631153
0.0636993
0.0641494
0.0644664
0.0646119
0.0646036
0.0644218
0.0640896
0.0636454
0.0628475
0.0625809
0.0609987
0.06147
0.0591675
0.0598992
0.0580304
0.0566762
0.0512481
0.0487465
0.0438864
0.0417175
0.0386651
0.0362418
0.0338065
0.0315399
0.0294357
0.027523
0.0257996
0.024201
0.0226215
0.0210222
0.0194129
0.0178239
0.0162815
0.0148003
0.0133868
0.0120425
0.0107665
0.00955646
0.0084092
0.00732128
0.00628904
0.00530883
0.00437719
0.00349081
0.00264647
0.00184183
0.00107611
0.000346719
0.000443108
0.00133246
0.00224844
0.00318469
0.00414991
0.00514435
0.00616861
0.00722483
0.00831684
0.00945094
0.0106376
0.0118939
0.013247
0.0147398
0.0164356
0.0184206
0.0208044
0.0237074
0.0272435
0.0314469
0.0360163
0.0401123
0.0425476
0.04392
0.0452539
0.0462274
0.0471627
0.0475259
0.049535
0.0500619
0.0554026
0.055776
0.0574038
0.0517601
0.0524752
0.0502884
0.0519474
0.0512213
0.0528207
0.0533077
0.0545823
0.055628
0.0569564
0.05832
0.0597341
0.061146
0.0625298
0.0638672
0.0651271
0.0662605
0.0672282
0.0680165
0.0686801
0.0692124
0.0696147
0.0698444
0.0699111
0.0697939
0.0695079
0.0691107
0.0683371
0.0680407
0.0665179
0.0667459
0.0646159
0.0648577
0.0630718
0.0613632
0.0561627
0.053132
0.0482217
0.0457317
0.0424704
0.0397989
0.0371201
0.0346185
0.0322938
0.0301874
0.0282947
0.0265335
0.0247997
0.0230438
0.0212756
0.0195289
0.0178329
0.0162045
0.0146514
0.0131752
0.0117749
0.0104478
0.00919049
0.00799887
0.00686885
0.0057963
0.0047773
0.00380817
0.00288531
0.00200604
0.00116936
0.000374094
0.000454126
0.00136413
0.00230153
0.00325964
0.00424718
0.00526425
0.00631088
0.00738825
0.00849919
0.00964928
0.0108486
0.0121137
0.0134716
0.0149633
0.0166489
0.018609
0.0209458
0.0237691
0.0271714
0.0311594
0.0354223
0.0392139
0.0416754
0.0433238
0.0449215
0.0462204
0.0474107
0.0481534
0.0502006
0.0510833
0.0559242
0.0566888
0.0584396
0.0538357
0.0545562
0.0530225
0.0546379
0.0543269
0.0561478
0.0568682
0.058291
0.0594743
0.0609399
0.0624302
0.0639686
0.0654968
0.0669924
0.0684375
0.069802
0.0710363
0.0721001
0.07298
0.0737288
0.0743474
0.0748369
0.0751504
0.0752896
0.075233
0.0749881
0.0746281
0.0738729
0.0735345
0.0720553
0.0720488
0.0700281
0.0698426
0.0680792
0.0660778
0.0610287
0.0575331
0.0525515
0.0497596
0.0462937
0.04338
0.0404621
0.0377282
0.0351859
0.0328874
0.0308259
0.0289065
0.027017
0.025103
0.0231745
0.0212679
0.0194159
0.0176378
0.0159422
0.0143314
0.0128043
0.0113578
0.00998798
0.00869041
0.00746044
0.00629347
0.00518514
0.00413138
0.00312822
0.00217262
0.00126338
0.000400674
0.000463551
0.00139027
0.00234476
0.00332019
0.00432524
0.0053602
0.00642504
0.00752041
0.00864839
0.00981373
0.0110255
0.0122995
0.0136616
0.0151514
0.0168263
0.0187627
0.0210566
0.0238093
0.027095
0.0308957
0.0349043
0.0384446
0.0409125
0.0427562
0.0445446
0.0461153
0.0475652
0.0486497
0.0507659
0.0519741
0.0564435
0.0575376
0.0594451
0.0557685
0.0565591
0.055627
0.0572383
0.0573357
0.0593963
0.0603652
0.0619458
0.0632801
0.0648943
0.0665244
0.0681996
0.0698564
0.0714758
0.0730396
0.0745186
0.0758621
0.0770286
0.0780054
0.0788454
0.0795556
0.0801357
0.0805342
0.0807448
0.0807462
0.0805391
0.0802087
0.0794678
0.0790788
0.0776284
0.0773959
0.0754287
0.0748641
0.0730906
0.0708474
0.0658838
0.0619745
0.0568947
0.0538224
0.0501493
0.0469988
0.0438427
0.0408786
0.0381202
0.0356311
0.0334008
0.031324
0.0292777
0.027204
0.0251131
0.0230444
0.0210336
0.0191026
0.0172616
0.0155134
0.0138565
0.0122878
0.0108029
0.00939682
0.00806449
0.0068008
0.00560098
0.00446053
0.00337514
0.00234135
0.00135778
0.00042603
0.000471362
0.00141099
0.0023789
0.00336828
0.0043879
0.00543813
0.00651885
0.00763042
0.00877442
0.00995486
0.0111798
0.0124638
0.0138312
0.0153202
0.0169857
0.0189008
0.0211566
0.0238487
0.0270378
0.0306828
0.0344947
0.0378323
0.0402806
0.0422377
0.044155
0.0459568
0.0476638
0.049063
0.0512766
0.0527869
0.0569852
0.0583635
0.0604453
0.0576092
0.0585152
0.0581373
0.0597756
0.0602733
0.0625828
0.0638091
0.0655548
0.0670507
0.0688236
0.0706054
0.0724292
0.0742264
0.0759813
0.0776752
0.0792789
0.08074
0.0820154
0.0830938
0.0840311
0.0848388
0.0855142
0.0860004
0.0862827
0.0863411
0.0861703
0.0858642
0.0851346
0.0846899
0.0832557
0.0828063
0.0808484
0.079944
0.0781387
0.0756941
0.0707591
0.0664813
0.061273
0.0579368
0.0540525
0.0506719
0.0472718
0.0440814
0.0411073
0.0384275
0.0360279
0.0337917
0.031587
0.0293515
0.0270959
0.024862
0.0226892
0.0206022
0.0186124
0.0167233
0.0149336
0.0132396
0.0116367
0.0101194
0.00868203
0.00731915
0.00602547
0.0047961
0.00362635
0.00251231
0.00145241
0.000449822
0.000478111
0.00142828
0.0024076
0.00340901
0.00444148
0.00550537
0.00660033
0.00772654
0.00888531
0.0100802
0.0113185
0.0126136
0.0139884
0.0154792
0.0171385
0.0190368
0.0212616
0.0239053
0.0270192
0.0305311
0.0342114
0.0373805
0.0397875
0.0417881
0.043787
0.0457896
0.0477415
0.049435
0.0517665
0.0535597
0.0575668
0.0591904
0.0614523
0.0593979
0.0604567
0.0605822
0.0622723
0.0631605
0.0657212
0.0672095
0.0691253
0.0707915
0.0727319
0.0746764
0.0766598
0.0786087
0.0805104
0.0823456
0.0840845
0.085672
0.0870627
0.0882475
0.0892882
0.0901998
0.0909762
0.0915539
0.0919098
0.0920254
0.0918911
0.0916062
0.0908866
0.0903842
0.0889561
0.0883014
0.0863213
0.0851125
0.0832518
0.080634
0.0756788
0.0710732
0.065722
0.0621079
0.0580239
0.054399
0.0507774
0.0473528
0.0441598
0.0412866
0.0387154
0.0363173
0.0339511
0.0315509
0.0291273
0.0267249
0.0243865
0.0221397
0.0199975
0.0179639
0.0160378
0.0142153
0.0124913
0.0108597
0.00931456
0.00784981
0.00645973
0.00513897
0.00388248
0.00268588
0.00154738
0.00047181
0.000484772
0.00144506
0.00243525
0.00344809
0.00449244
0.0055686
0.00667618
0.00781525
0.00898708
0.0101951
0.011446
0.0127526
0.0141364
0.015632
0.0172898
0.019178
0.0213816
0.0239899
0.0270549
0.030495
0.034008
0.0370728
0.0394309
0.0414241
0.0434733
0.0456544
0.0478365
0.049799
0.052258
0.0543134
0.0581942
0.0600319
0.0624717
0.0611617
0.0624278
0.0629774
0.0647452
0.0660141
0.0688231
0.0705744
0.0726641
0.0745075
0.0766232
0.0787406
0.080894
0.0830051
0.0850645
0.0870521
0.0889368
0.0906601
0.092173
0.0934699
0.0946203
0.0956426
0.0965261
0.0972002
0.0976329
0.0978074
0.0977112
0.0974467
0.0967375
0.0961782
0.094749
0.0939033
0.0918802
0.0904006
0.0884575
0.085677
0.0806661
0.0757447
0.0703029
0.0663344
0.0620831
0.0582205
0.0543638
0.0507029
0.0472886
0.0442189
0.0414724
0.0389086
0.0363772
0.0338085
0.0312131
0.0286382
0.0261302
0.0237193
0.0214205
0.0192385
0.0171722
0.0152176
0.0133689
0.0116199
0.00996392
0.00839435
0.00690502
0.00549013
0.0041442
0.00286242
0.00164279
0.000491728
0.000492006
0.00146341
0.00246501
0.0034894
0.00454519
0.0056326
0.00675129
0.00790143
0.00908435
0.0103035
0.0115656
0.0128829
0.0142763
0.015779
0.0174398
0.0193252
0.0215178
0.0241024
0.0271247
0.0305042
0.0339337
0.0369146
0.0392101
0.041166
0.0432504
0.045592
0.0479834
0.0501815
0.0527643
0.0550529
0.0588613
0.0608964
0.0635077
0.0629001
0.0644875
0.0653292
0.067207
0.0688483
0.0718981
0.0739109
0.0761768
0.0782031
0.0805013
0.0828012
0.0851344
0.0874179
0.0896453
0.0917959
0.0938372
0.0957059
0.0973488
0.0987646
0.100031
0.101172
0.102169
0.102946
0.10346
0.103696
0.103641
0.103397
0.102701
0.102088
0.100653
0.0996336
0.0975535
0.0958332
0.0937937
0.0908198
0.0857517
0.0804994
0.0749712
0.070714
0.0662566
0.0621449
0.0580478
0.0541464
0.0505067
0.0472363
0.0443096
0.041575
0.0388737
0.0361321
0.0333605
0.0306084
0.0279258
0.025346
0.0228859
0.0205509
0.0183401
0.0162493
0.0142723
0.0124023
0.010632
0.00895426
0.00736245
0.00585029
0.00441192
0.00304203
0.00173847
0.000509143
0.000500004
0.00148415
0.00249841
0.00353475
0.00460182
0.0056998
0.00682846
0.00798813
0.00918029
0.0104086
0.0116799
0.0130066
0.0144092
0.0159203
0.0175876
0.0194765
0.0216681
0.0242439
0.0272428
0.0305803
0.0339529
0.0368749
0.0391221
0.0410418
0.0431631
0.0456451
0.0482147
0.0506048
0.0532921
0.0557747
0.0595561
0.0617924
0.0645776
0.0646892
0.0665227
0.0676913
0.0696769
0.0716748
0.0749543
0.0772239
0.079668
0.0818824
0.0843694
0.0868611
0.0893835
0.0918491
0.0942547
0.0965787
0.0987871
0.100811
0.102593
0.104135
0.105526
0.106793
0.107912
0.108797
0.109397
0.109699
0.109689
0.10947
0.10879
0.10813
0.106687
0.105512
0.103365
0.101425
0.0992619
0.0961043
0.0909691
0.0854103
0.0797255
0.0752287
0.0705561
0.0661888
0.061846
0.057698
0.0538273
0.0503506
0.047238
0.0443269
0.0414504
0.0385307
0.0355776
0.0326429
0.02978
0.0270255
0.0243984
0.0219052
0.0195451
0.0173135
0.0152038
0.0132087
0.0113201
0.00953051
0.00783262
0.00621972
0.00468557
0.00322436
0.00183379
0.000523367
0.000508901
0.00150751
0.0025356
0.00358424
0.00466257
0.00577081
0.00690878
0.00807695
0.00927699
0.0105127
0.0117914
0.0131257
0.0145363
0.0160558
0.0177319
0.0196296
0.0218301
0.0244127
0.0274093
0.0307246
0.0340546
0.0369386
0.0391661
0.0410836
0.0432592
0.0458586
0.0485561
0.0510871
0.0538462
0.056476
0.0602681
0.062728
0.0656938
0.0664566
0.0686179
0.070058
0.0721683
0.0745019
0.0779971
0.0805168
0.083141
0.0855481
0.0882303
0.0909226
0.0936433
0.0963008
0.0988943
0.101402
0.103788
0.105978
0.107908
0.109585
0.111108
0.112509
0.113759
0.114761
0.115455
0.115827
0.115867
0.115677
0.115017
0.114318
0.112868
0.111555
0.109337
0.107197
0.104882
0.101556
0.0963331
0.090502
0.0846272
0.0798806
0.0749907
0.0703678
0.0657737
0.061372
0.0572633
0.0535736
0.0502688
0.0471752
0.0441177
0.0410143
0.0378736
0.0347496
0.0316994
0.0287634
0.0259629
0.0233054
0.0207902
0.0184126
0.0161654
0.0140405
0.0120293
0.0101236
0.00831566
0.00659823
0.0049647
0.00340868
0.00192775
0.000533452
0.000518765
0.00153328
0.00257597
0.00363727
0.00472713
0.00584574
0.00699288
0.00816908
0.00937614
0.0106181
0.0119024
0.0132421
0.0146587
0.0161854
0.0178706
0.0197809
0.0219985
0.0246025
0.0276179
0.0309342
0.0342422
0.0371154
0.0393417
0.0413233
0.0435727
0.046261
0.0490328
0.0516453
0.0544339
0.0571629
0.0609948
0.0637135
0.0668798
0.0682244
0.0707295
0.0724383
0.0746923
0.0773371
0.0810299
0.0837909
0.086598
0.0892021
0.0920856
0.0949873
0.0979156
0.100775
0.103566
0.106268
0.108843
0.111208
0.113296
0.115118
0.116782
0.118327
0.119718
0.120845
0.121639
0.122087
0.122184
0.122028
0.121396
0.120668
0.119213
0.117782
0.11549
0.11317
0.110689
0.107189
0.101866
0.0957821
0.0897063
0.0846987
0.0795819
0.0746989
0.0698462
0.0651827
0.060828
0.0569176
0.0534137
0.0501314
0.0468867
0.0435929
0.0402575
0.0369364
0.033691
0.0305656
0.0275841
0.0247553
0.0220787
0.0195491
0.0171588
0.0148989
0.0127603
0.0107339
0.00881155
0.00698551
0.00524872
0.00359408
0.00201914
0.000538268
0.000529609
0.00156131
0.00261943
0.00369401
0.004796
0.00592545
0.00708201
0.00826618
0.00947972
0.0107267
0.0120149
0.0133578
0.0147777
0.0163091
0.0180024
0.0199273
0.0221693
0.0248099
0.0278688
0.0312164
0.0345248
0.0373942
0.0396912
0.0417655
0.0441117
0.046861
0.0496561
0.052291
0.055067
0.0578537
0.0617454
0.0647624
0.0681623
0.0699833
0.0728335
0.0748322
0.0772548
0.080184
0.0840533
0.0870464
0.0900396
0.0928453
0.0959362
0.0990562
0.102201
0.105272
0.108272
0.111178
0.113952
0.116505
0.118761
0.120737
0.122551
0.124252
0.125793
0.127056
0.127959
0.12849
0.128649
0.128536
0.127939
0.127192
0.125739
0.124208
0.121844
0.119364
0.116714
0.113031
0.107598
0.101264
0.094977
0.0897059
0.0843515
0.0792011
0.0740808
0.0691462
0.0645362
0.0603962
0.0566853
0.0532075
0.0497688
0.0462772
0.0427386
0.0392113
0.0357614
0.0324377
0.0292668
0.0262588
0.0234136
0.0207254
0.0181858
0.0157853
0.0135138
0.0113618
0.00932037
0.00738128
0.00553703
0.00377968
0.00210675
0.000536588
0.000541633
0.00159209
0.00266698
0.00375573
0.00487068
0.00601172
0.00717831
0.00837072
0.00959052
0.0108417
0.0121322