/*--------------------------------*- C++ -*----------------------------------*\
  =========                 |
  \\      /  F ield         | OpenFOAM: The Open Source CFD Toolbox
   \\    /   O peration     | Website:  https://openfoam.org
    \\  /    A nd           | Version:  9
     \\/     M anipulation  |
\*---------------------------------------------------------------------------*/
FoamFile
{
    format      ascii;
    class       surfaceScalarField;
    location    "0.08";
    object      phi;
}
// * * * * * * * * * * * * * * * * * * * * * * * * * * * * * * * * * * * * * //

dimensions      [0 3 -1 0 0 0 0];

internalField   nonuniform List<scalar> 
39700
(
-1.46644e-06
2.62407e-06
-1.46628e-06
2.74348e-06
-1.46612e-06
2.86854e-06
-1.46593e-06
2.99911e-06
-1.46572e-06
3.13508e-06
-1.46548e-06
3.27655e-06
-1.46524e-06
3.42397e-06
-1.46502e-06
3.57855e-06
-1.46483e-06
3.74284e-06
-1.46464e-06
3.92181e-06
-1.46424e-06
4.12373e-06
-1.46316e-06
4.36004e-06
-1.46084e-06
4.64294e-06
-1.45696e-06
4.98061e-06
-1.45176e-06
5.37337e-06
-1.44582e-06
5.81476e-06
-1.43954e-06
6.29725e-06
-1.43288e-06
6.81912e-06
-1.42619e-06
7.39085e-06
-1.42056e-06
8.03302e-06
-1.39422e-06
8.63392e-06
-1.20849e-06
8.12133e-06
-1.40176e-06
4.0769e-06
-1.70474e-06
4.20946e-06
-1.52756e-06
9.81297e-06
-1.49837e-06
1.12152e-05
-1.48543e-06
1.15149e-05
-1.47545e-06
1.18735e-05
-1.47412e-06
1.24276e-05
-1.46776e-06
1.30473e-05
-1.35409e-06
1.36887e-05
-1.58004e-06
7.57368e-06
-1.49785e-06
1.39809e-05
-1.49148e-06
1.5419e-05
-1.47845e-06
1.43168e-05
-1.46786e-06
1.33379e-05
-1.46382e-06
1.38228e-05
-1.46695e-06
1.43063e-05
-1.46935e-06
1.43084e-05
-1.46873e-06
1.41165e-05
-1.46709e-06
1.39766e-05
-1.46633e-06
1.40111e-05
-1.46669e-06
1.40986e-05
-1.46733e-06
1.41341e-05
-1.46775e-06
1.41197e-05
-1.46799e-06
1.40842e-05
-1.46826e-06
1.40412e-05
-1.46868e-06
1.39868e-05
-1.46902e-06
1.39012e-05
-1.46865e-06
1.37597e-05
-1.46751e-06
1.35887e-05
-1.46643e-06
1.35138e-05
-1.46606e-06
1.36091e-05
-1.46657e-06
1.37419e-05
-1.46724e-06
1.37932e-05
-1.46711e-06
1.37472e-05
-1.46597e-06
1.36668e-05
-1.46436e-06
1.36874e-05
-1.46308e-06
1.38741e-05
-1.46249e-06
1.41142e-05
-1.46205e-06
1.43286e-05
-1.46147e-06
1.45257e-05
-1.4619e-06
1.47374e-05
-1.46825e-06
1.5e-05
-1.46819e-06
1.50859e-05
-1.41627e-06
1.32035e-05
-1.50822e-06
9.42772e-06
-1.46917e-06
1.35207e-05
-1.46989e-06
1.51519e-05
-1.47318e-06
1.49644e-05
-1.47262e-06
1.20216e-05
-1.47172e-06
1.13303e-05
-1.47117e-06
1.07043e-05
-1.47114e-06
1.01273e-05
-1.47171e-06
9.58519e-06
-1.4725e-06
9.0561e-06
-1.47217e-06
8.50717e-06
-1.46985e-06
7.9209e-06
-1.46749e-06
7.35726e-06
-1.46649e-06
6.9413e-06
-1.46577e-06
6.69508e-06
-1.46555e-06
6.50394e-06
-1.46612e-06
6.28211e-06
-1.46699e-06
6.02186e-06
-1.46777e-06
5.74363e-06
-1.46832e-06
5.46369e-06
-1.46866e-06
5.18994e-06
-1.46882e-06
4.92564e-06
-1.46884e-06
4.67218e-06
-1.46875e-06
4.43028e-06
-1.46859e-06
4.20035e-06
-1.46838e-06
3.98258e-06
-1.46816e-06
3.77694e-06
-1.46795e-06
3.58318e-06
-1.46776e-06
3.40085e-06
-1.4676e-06
3.22933e-06
-1.46746e-06
3.06788e-06
-1.46734e-06
2.91577e-06
-1.46727e-06
2.77229e-06
2.63615e-06
-1.46375e-06
2.6237e-06
-1.4634e-06
2.74313e-06
-1.46296e-06
2.8681e-06
-1.4624e-06
2.99855e-06
-1.46171e-06
3.13439e-06
-1.46089e-06
3.27572e-06
-1.45992e-06
3.42301e-06
-1.45882e-06
3.57745e-06
-1.45757e-06
3.74158e-06
-1.45601e-06
3.92026e-06
-1.45378e-06
4.12149e-06
-1.45012e-06
4.35638e-06
-1.44409e-06
4.6369e-06
-1.43499e-06
4.97151e-06
-1.42286e-06
5.36123e-06
-1.4084e-06
5.8003e-06
-1.39223e-06
6.28108e-06
-1.37445e-06
6.80134e-06
-1.35496e-06
7.37137e-06
-1.32891e-06
8.00696e-06
-1.24915e-06
8.55416e-06
-1.05202e-06
7.92419e-06
-1.37689e-06
4.40177e-06
-1.81506e-06
4.64764e-06
-1.62695e-06
9.62486e-06
-1.55213e-06
1.11403e-05
-1.51725e-06
1.14801e-05
-1.49456e-06
1.18508e-05
-1.4839e-06
1.24169e-05
-1.44012e-06
1.30035e-05
-1.28325e-06
1.35318e-05
-1.66486e-06
7.9553e-06
-1.5642e-06
1.38802e-05
-1.53019e-06
1.5385e-05
-1.49666e-06
1.42833e-05
-1.47707e-06
1.33183e-05
-1.46563e-06
1.38114e-05
-1.46784e-06
1.43085e-05
-1.47168e-06
1.43123e-05
-1.47062e-06
1.41155e-05
-1.46786e-06
1.39739e-05
-1.46624e-06
1.40095e-05
-1.46665e-06
1.40991e-05
-1.46791e-06
1.41354e-05
-1.46898e-06
1.41207e-05
-1.46975e-06
1.4085e-05
-1.47055e-06
1.4042e-05
-1.47148e-06
1.39878e-05
-1.47188e-06
1.39016e-05
-1.47058e-06
1.37584e-05
-1.46803e-06
1.35862e-05
-1.46603e-06
1.35118e-05
-1.46516e-06
1.36083e-05
-1.46581e-06
1.37426e-05
-1.46669e-06
1.37941e-05
-1.46585e-06
1.37464e-05
-1.46304e-06
1.3664e-05
-1.45959e-06
1.36839e-05
-1.45641e-06
1.38709e-05
-1.45444e-06
1.41122e-05
-1.45309e-06
1.43272e-05
-1.45209e-06
1.45247e-05
-1.45531e-06
1.47407e-05
-1.46762e-06
1.50123e-05
-1.45072e-06
1.5069e-05
-1.37381e-06
1.31266e-05
-1.53796e-06
9.59187e-06
-1.48822e-06
1.34709e-05
-1.47636e-06
1.514e-05
-1.48193e-06
1.49699e-05
-1.48198e-06
1.20217e-05
-1.48028e-06
1.13286e-05
-1.47914e-06
1.07032e-05
-1.4791e-06
1.01272e-05
-1.48001e-06
9.58611e-06
-1.48057e-06
9.05666e-06
-1.47829e-06
8.50488e-06
-1.47287e-06
7.91549e-06
-1.46871e-06
7.3531e-06
-1.46746e-06
6.94006e-06
-1.46645e-06
6.69407e-06
-1.46571e-06
6.5032e-06
-1.46615e-06
6.28255e-06
-1.46743e-06
6.02314e-06
-1.46882e-06
5.74503e-06
-1.46994e-06
5.46481e-06
-1.47068e-06
5.19067e-06
-1.47105e-06
4.92601e-06
-1.47112e-06
4.67225e-06
-1.47096e-06
4.43012e-06
-1.47065e-06
4.20004e-06
-1.47024e-06
3.98217e-06
-1.46981e-06
3.7765e-06
-1.46939e-06
3.58276e-06
-1.46902e-06
3.40047e-06
-1.46869e-06
3.229e-06
-1.46843e-06
3.06762e-06
-1.46823e-06
2.91557e-06
-1.46813e-06
2.77219e-06
2.6361e-06
-1.46027e-06
2.62343e-06
-1.45985e-06
2.74271e-06
-1.45925e-06
2.8675e-06
-1.45843e-06
2.99774e-06
-1.45739e-06
3.13335e-06
-1.45611e-06
3.27443e-06
-1.45457e-06
3.42147e-06
-1.45276e-06
3.57564e-06
-1.45061e-06
3.73944e-06
-1.44791e-06
3.91756e-06
-1.44415e-06
4.11773e-06
-1.43839e-06
4.35062e-06
-1.42941e-06
4.62792e-06
-1.41631e-06
4.95841e-06
-1.39912e-06
5.34404e-06
-1.3786e-06
5.77978e-06
-1.35556e-06
6.25804e-06
-1.33027e-06
6.77605e-06
-1.30271e-06
7.34382e-06
-1.26674e-06
7.97099e-06
-1.17615e-06
8.46357e-06
-1.00622e-06
7.75426e-06
-1.38892e-06
4.78448e-06
-1.83758e-06
5.09629e-06
-1.65426e-06
9.44155e-06
-1.5764e-06
1.10625e-05
-1.53653e-06
1.14402e-05
-1.50599e-06
1.18203e-05
-1.48655e-06
1.23975e-05
-1.418e-06
1.29349e-05
-1.2693e-06
1.33831e-05
-1.71085e-06
8.39685e-06
-1.61461e-06
1.3784e-05
-1.55932e-06
1.53297e-05
-1.51531e-06
1.42393e-05
-1.48655e-06
1.32895e-05
-1.46902e-06
1.37939e-05
-1.46958e-06
1.43091e-05
-1.47373e-06
1.43164e-05
-1.4724e-06
1.41141e-05
-1.46884e-06
1.39703e-05
-1.46658e-06
1.40072e-05
-1.46695e-06
1.40994e-05
-1.46861e-06
1.4137e-05
-1.47016e-06
1.41223e-05
-1.47135e-06
1.40862e-05
-1.47253e-06
1.40432e-05
-1.47371e-06
1.39889e-05
-1.47402e-06
1.39019e-05
-1.47217e-06
1.37566e-05
-1.46878e-06
1.35828e-05
-1.46596e-06
1.3509e-05
-1.46451e-06
1.36068e-05
-1.46495e-06
1.3743e-05
-1.46567e-06
1.37948e-05
-1.46422e-06
1.37449e-05
-1.46028e-06
1.366e-05
-1.45531e-06
1.36789e-05
-1.45057e-06
1.38661e-05
-1.44744e-06
1.41091e-05
-1.44539e-06
1.43252e-05
-1.44403e-06
1.45233e-05
-1.44786e-06
1.47445e-05
-1.46059e-06
1.5025e-05
-1.43171e-06
1.50401e-05
-1.35847e-06
1.30533e-05
-1.5544e-06
9.7878e-06
-1.50067e-06
1.34172e-05
-1.48308e-06
1.51225e-05
-1.49027e-06
1.49771e-05
-1.49006e-06
1.20214e-05
-1.48775e-06
1.13263e-05
-1.48619e-06
1.07016e-05
-1.48591e-06
1.0127e-05
-1.48657e-06
9.58677e-06
-1.48648e-06
9.05658e-06
-1.48298e-06
8.50138e-06
-1.47627e-06
7.90878e-06
-1.47128e-06
7.34811e-06
-1.46943e-06
6.93821e-06
-1.46768e-06
6.69232e-06
-1.46629e-06
6.50181e-06
-1.46654e-06
6.28279e-06
-1.46797e-06
6.02457e-06
-1.46967e-06
5.74672e-06
-1.47108e-06
5.46622e-06
-1.47204e-06
5.19163e-06
-1.47255e-06
4.92652e-06
-1.47268e-06
4.67239e-06
-1.47253e-06
4.42997e-06
-1.47217e-06
4.19968e-06
-1.4717e-06
3.9817e-06
-1.47118e-06
3.77599e-06
-1.47069e-06
3.58226e-06
-1.47024e-06
3.40003e-06
-1.46986e-06
3.22862e-06
-1.46957e-06
3.06733e-06
-1.46938e-06
2.91538e-06
-1.4693e-06
2.77211e-06
2.63611e-06
-1.45705e-06
2.62319e-06
-1.45657e-06
2.74223e-06
-1.45585e-06
2.86677e-06
-1.45487e-06
2.99676e-06
-1.4536e-06
3.13208e-06
-1.45202e-06
3.27285e-06
-1.4501e-06
3.41955e-06
-1.44782e-06
3.57335e-06
-1.44506e-06
3.73668e-06
-1.44157e-06
3.91407e-06
-1.43673e-06
4.1129e-06
-1.42952e-06
4.34341e-06
-1.41863e-06
4.61703e-06
-1.40305e-06
4.94284e-06
-1.38278e-06
5.32377e-06
-1.35874e-06
5.75575e-06
-1.33216e-06
6.23145e-06
-1.30399e-06
6.74788e-06
-1.27471e-06
7.31454e-06
-1.23607e-06
7.93235e-06
-1.14473e-06
8.37223e-06
-1.02222e-06
7.63176e-06
-1.39847e-06
5.16073e-06
-1.80935e-06
5.50717e-06
-1.65868e-06
9.29088e-06
-1.5787e-06
1.09825e-05
-1.54082e-06
1.14023e-05
-1.50989e-06
1.17894e-05
-1.48589e-06
1.23735e-05
-1.40474e-06
1.28538e-05
-1.27877e-06
1.32572e-05
-1.73229e-06
8.85038e-06
-1.65188e-06
1.37036e-05
-1.58247e-06
1.52603e-05
-1.53029e-06
1.41871e-05
-1.4939e-06
1.32531e-05
-1.47192e-06
1.37719e-05
-1.47163e-06
1.43088e-05
-1.47593e-06
1.43207e-05
-1.47422e-06
1.41124e-05
-1.46979e-06
1.39659e-05
-1.46703e-06
1.40044e-05
-1.46739e-06
1.40998e-05
-1.46938e-06
1.4139e-05
-1.47131e-06
1.41242e-05
-1.47283e-06
1.40877e-05
-1.47426e-06
1.40447e-05
-1.47562e-06
1.39903e-05
-1.47589e-06
1.39021e-05
-1.47364e-06
1.37543e-05
-1.46953e-06
1.35787e-05
-1.46589e-06
1.35054e-05
-1.46386e-06
1.36048e-05
-1.46406e-06
1.37432e-05
-1.4646e-06
1.37954e-05
-1.46267e-06
1.3743e-05
-1.45772e-06
1.36551e-05
-1.45135e-06
1.36726e-05
-1.44529e-06
1.38601e-05
-1.44119e-06
1.4105e-05
-1.43848e-06
1.43225e-05
-1.43658e-06
1.45214e-05
-1.44027e-06
1.47482e-05
-1.45137e-06
1.50361e-05
-1.41642e-06
1.50052e-05
-1.35414e-06
1.29911e-05
-1.56258e-06
9.99624e-06
-1.51313e-06
1.33677e-05
-1.49051e-06
1.50998e-05
-1.49754e-06
1.49841e-05
-1.49706e-06
1.2021e-05
-1.49416e-06
1.13234e-05
-1.49215e-06
1.06996e-05
-1.49158e-06
1.01264e-05
-1.49198e-06
9.58717e-06
-1.49145e-06
9.05604e-06
-1.48719e-06
8.49712e-06
-1.47966e-06
7.90126e-06
-1.47384e-06
7.34229e-06
-1.47108e-06
6.93545e-06
-1.46864e-06
6.68989e-06
-1.4669e-06
6.50007e-06
-1.46702e-06
6.28292e-06
-1.46856e-06
6.02611e-06
-1.47045e-06
5.74861e-06
-1.47205e-06
5.46782e-06
-1.47314e-06
5.19273e-06
-1.47374e-06
4.92712e-06
-1.4739e-06
4.67255e-06
-1.47374e-06
4.4298e-06
-1.47335e-06
4.19929e-06
-1.47284e-06
3.98119e-06
-1.47228e-06
3.77543e-06
-1.47174e-06
3.58172e-06
-1.47125e-06
3.39954e-06
-1.47085e-06
3.22822e-06
-1.47054e-06
3.06702e-06
-1.47035e-06
2.91518e-06
-1.47025e-06
2.77202e-06
2.63609e-06
-1.45451e-06
2.62295e-06
-1.454e-06
2.74172e-06
-1.45323e-06
2.866e-06
-1.45216e-06
2.99569e-06
-1.45077e-06
3.1307e-06
-1.44903e-06
3.27111e-06
-1.44691e-06
3.41743e-06
-1.44435e-06
3.57079e-06
-1.44123e-06
3.73356e-06
-1.43724e-06
3.91009e-06
-1.43177e-06
4.10742e-06
-1.42376e-06
4.33539e-06
-1.41192e-06
4.60519e-06
-1.39524e-06
4.92616e-06
-1.37368e-06
5.30221e-06
-1.34827e-06
5.73033e-06
-1.32058e-06
6.20376e-06
-1.29214e-06
6.71943e-06
-1.26322e-06
7.28562e-06
-1.22373e-06
7.89286e-06
-1.13883e-06
8.28733e-06
-1.06725e-06
7.56018e-06
-1.4073e-06
5.50077e-06
-1.76215e-06
5.86202e-06
-1.65321e-06
9.18194e-06
-1.5725e-06
1.09018e-05
-1.53677e-06
1.13666e-05
-1.50847e-06
1.17611e-05
-1.48204e-06
1.2347e-05
-1.39648e-06
1.27682e-05
-1.30148e-06
1.31622e-05
-1.73477e-06
9.28366e-06
-1.67731e-06
1.36461e-05
-1.59945e-06
1.51824e-05
-1.54118e-06
1.41289e-05
-1.49944e-06
1.32114e-05
-1.4746e-06
1.37471e-05
-1.47355e-06
1.43077e-05
-1.47787e-06
1.4325e-05
-1.47588e-06
1.41104e-05
-1.47076e-06
1.39608e-05
-1.46752e-06
1.40012e-05
-1.46789e-06
1.41001e-05
-1.47017e-06
1.41413e-05
-1.47241e-06
1.41265e-05
-1.47419e-06
1.40895e-05
-1.47583e-06
1.40463e-05
-1.47731e-06
1.39918e-05
-1.47752e-06
1.39023e-05
-1.47496e-06
1.37518e-05
-1.47025e-06
1.3574e-05
-1.46587e-06
1.3501e-05
-1.46329e-06
1.36022e-05
-1.4632e-06
1.37431e-05
-1.46353e-06
1.37957e-05
-1.46114e-06
1.37406e-05
-1.45533e-06
1.36493e-05
-1.44779e-06
1.3665e-05
-1.44059e-06
1.38529e-05
-1.43561e-06
1.41e-05
-1.43227e-06
1.43191e-05
-1.42987e-06
1.4519e-05
-1.43305e-06
1.47514e-05
-1.44112e-06
1.50442e-05
-1.40339e-06
1.49675e-05
-1.35673e-06
1.29444e-05
-1.56471e-06
1.02042e-05
-1.52463e-06
1.33277e-05
-1.49831e-06
1.50735e-05
-1.50357e-06
1.49894e-05
-1.50279e-06
1.20202e-05
-1.4995e-06
1.13201e-05
-1.49713e-06
1.06972e-05
-1.49628e-06
1.01255e-05
-1.49641e-06
9.5873e-06
-1.49544e-06
9.05507e-06
-1.49061e-06
8.49229e-06
-1.48261e-06
7.89325e-06
-1.47618e-06
7.33586e-06
-1.47262e-06
6.93189e-06
-1.46963e-06
6.68689e-06
-1.46756e-06
6.498e-06
-1.46753e-06
6.28289e-06
-1.46905e-06
6.02763e-06
-1.47102e-06
5.75058e-06
-1.47272e-06
5.46952e-06
-1.4739e-06
5.19391e-06
-1.47455e-06
4.92776e-06
-1.47474e-06
4.67274e-06
-1.47458e-06
4.42964e-06
-1.47418e-06
4.19889e-06
-1.47365e-06
3.98065e-06
-1.47307e-06
3.77485e-06
-1.47251e-06
3.58116e-06
-1.47202e-06
3.39904e-06
-1.47161e-06
3.22781e-06
-1.4713e-06
3.06672e-06
-1.4711e-06
2.91498e-06
-1.47099e-06
2.77191e-06
2.63605e-06
-1.45294e-06
2.62272e-06
-1.45243e-06
2.74121e-06
-1.45164e-06
2.86521e-06
-1.45055e-06
2.9946e-06
-1.44911e-06
3.12926e-06
-1.44731e-06
3.26931e-06
-1.44509e-06
3.41521e-06
-1.44241e-06
3.56811e-06
-1.43913e-06
3.73028e-06
-1.43493e-06
3.90589e-06
-1.42919e-06
4.10169e-06
-1.42091e-06
4.32711e-06
-1.40883e-06
4.59311e-06
-1.39198e-06
4.90931e-06
-1.37027e-06
5.2805e-06
-1.34477e-06
5.70484e-06
-1.3173e-06
6.17629e-06
-1.2897e-06
6.69183e-06
-1.26203e-06
7.25796e-06
-1.2236e-06
7.85443e-06
-1.14951e-06
8.21323e-06
-1.11691e-06
7.52758e-06
-1.41639e-06
5.80025e-06
-1.71719e-06
6.16283e-06
-1.63894e-06
9.10369e-06
-1.56116e-06
1.0824e-05
-1.52845e-06
1.13339e-05
-1.50385e-06
1.17365e-05
-1.47652e-06
1.23197e-05
-1.39266e-06
1.26844e-05
-1.32728e-06
1.30968e-05
-1.72708e-06
9.68346e-06
-1.69042e-06
1.36095e-05
-1.61018e-06
1.51022e-05
-1.54826e-06
1.40669e-05
-1.50336e-06
1.31665e-05
-1.47683e-06
1.37205e-05
-1.47519e-06
1.43061e-05
-1.47946e-06
1.43293e-05
-1.47731e-06
1.41083e-05
-1.47169e-06
1.39551e-05
-1.4681e-06
1.39976e-05
-1.46847e-06
1.41005e-05
-1.47096e-06
1.41438e-05
-1.47346e-06
1.4129e-05
-1.47545e-06
1.40915e-05
-1.47725e-06
1.40481e-05
-1.47881e-06
1.39934e-05
-1.47896e-06
1.39025e-05
-1.47614e-06
1.37489e-05
-1.47094e-06
1.35688e-05
-1.46593e-06
1.3496e-05
-1.46283e-06
1.35991e-05
-1.4624e-06
1.37427e-05
-1.46246e-06
1.37958e-05
-1.45967e-06
1.37378e-05
-1.45314e-06
1.36427e-05
-1.4446e-06
1.36565e-05
-1.43643e-06
1.38447e-05
-1.43064e-06
1.40943e-05
-1.42674e-06
1.43152e-05
-1.42394e-06
1.45162e-05
-1.42633e-06
1.47537e-05
-1.43091e-06
1.50488e-05
-1.39255e-06
1.49291e-05
-1.36158e-06
1.29134e-05
-1.56377e-06
1.04064e-05
-1.53389e-06
1.32978e-05
-1.50535e-06
1.5045e-05
-1.5084e-06
1.49924e-05
-1.50729e-06
1.20191e-05
-1.50376e-06
1.13166e-05
-1.50114e-06
1.06946e-05
-1.50004e-06
1.01244e-05
-1.49989e-06
9.58715e-06
-1.49849e-06
9.05368e-06
-1.49322e-06
8.48702e-06
-1.48499e-06
7.88502e-06
-1.47821e-06
7.32908e-06
-1.47405e-06
6.92773e-06
-1.4706e-06
6.68344e-06
-1.46824e-06
6.49564e-06
-1.46799e-06
6.28264e-06
-1.4694e-06
6.02904e-06
-1.47135e-06
5.75253e-06
-1.47309e-06
5.47125e-06
-1.47431e-06
5.19513e-06
-1.47499e-06
4.92844e-06
-1.4752e-06
4.67295e-06
-1.47505e-06
4.42949e-06
-1.47465e-06
4.1985e-06
-1.47412e-06
3.98013e-06
-1.47355e-06
3.77428e-06
-1.47299e-06
3.5806e-06
-1.4725e-06
3.39855e-06
-1.4721e-06
3.22741e-06
-1.4718e-06
3.06642e-06
-1.4716e-06
2.91478e-06
-1.47149e-06
2.77179e-06
2.63601e-06
-1.45255e-06
2.62249e-06
-1.45205e-06
2.74071e-06
-1.45127e-06
2.86442e-06
-1.45018e-06
2.99351e-06
-1.44875e-06
3.12783e-06
-1.44694e-06
3.2675e-06
-1.44472e-06
3.413e-06
-1.44204e-06
3.56542e-06
-1.43875e-06
3.72699e-06
-1.43455e-06
3.90169e-06
-1.42882e-06
4.09596e-06
-1.42062e-06
4.3189e-06
-1.40875e-06
4.58124e-06
-1.39225e-06
4.89282e-06
-1.37102e-06
5.25927e-06
-1.34611e-06
5.67993e-06
-1.31949e-06
6.14967e-06
-1.29326e-06
6.66561e-06
-1.26734e-06
7.23203e-06
-1.23129e-06
7.81839e-06
-1.16871e-06
8.15064e-06
-1.16203e-06
7.52091e-06
-1.423e-06
6.06121e-06
-1.67616e-06
6.416e-06
-1.61761e-06
9.04514e-06
-1.54552e-06
1.07519e-05
-1.51743e-06
1.13058e-05
-1.4975e-06
1.17166e-05
-1.47109e-06
1.22933e-05
-1.39273e-06
1.2606e-05
-1.35154e-06
1.30556e-05
-1.71436e-06
1.00463e-05
-1.69369e-06
1.35888e-05
-1.61531e-06
1.50238e-05
-1.55199e-06
1.40036e-05
-1.5056e-06
1.31201e-05
-1.47834e-06
1.36933e-05
-1.47636e-06
1.43041e-05
-1.48071e-06
1.43337e-05
-1.47851e-06
1.41061e-05
-1.47253e-06
1.39492e-05
-1.46868e-06
1.39937e-05
-1.46906e-06
1.41009e-05
-1.47175e-06
1.41465e-05
-1.47447e-06
1.41317e-05
-1.47664e-06
1.40937e-05
-1.47856e-06
1.405e-05
-1.48018e-06
1.3995e-05
-1.48026e-06
1.39026e-05
-1.47721e-06
1.37459e-05
-1.4716e-06
1.35631e-05
-1.46602e-06
1.34904e-05
-1.46244e-06
1.35955e-05
-1.46167e-06
1.3742e-05
-1.46145e-06
1.37955e-05
-1.45829e-06
1.37347e-05
-1.45115e-06
1.36356e-05
-1.44176e-06
1.36471e-05
-1.43273e-06
1.38357e-05
-1.42625e-06
1.40878e-05
-1.42185e-06
1.43108e-05
-1.4187e-06
1.45131e-05
-1.42024e-06
1.47553e-05
-1.42188e-06
1.50504e-05
-1.38417e-06
1.48914e-05
-1.3668e-06
1.28961e-05
-1.56075e-06
1.06004e-05
-1.54027e-06
1.32773e-05
-1.51082e-06
1.50155e-05
-1.51207e-06
1.49937e-05
-1.51068e-06
1.20177e-05
-1.50701e-06
1.13129e-05
-1.50419e-06
1.06918e-05
-1.50289e-06
1.01231e-05
-1.5025e-06
9.58676e-06
-1.50074e-06
9.05192e-06
-1.49516e-06
8.48144e-06
-1.4868e-06
7.87666e-06
-1.47979e-06
7.32207e-06
-1.47517e-06
6.92311e-06
-1.47134e-06
6.67962e-06
-1.46872e-06
6.49301e-06
-1.46826e-06
6.28218e-06
-1.46954e-06
6.03031e-06
-1.47144e-06
5.75444e-06
-1.47318e-06
5.47298e-06
-1.47441e-06
5.19637e-06
-1.4751e-06
4.92914e-06
-1.47532e-06
4.67317e-06
-1.47518e-06
4.42935e-06
-1.47479e-06
4.19811e-06
-1.47427e-06
3.9796e-06
-1.4737e-06
3.77371e-06
-1.47315e-06
3.58006e-06
-1.47267e-06
3.39807e-06
-1.47228e-06
3.22702e-06
-1.47199e-06
3.06613e-06
-1.47179e-06
2.91459e-06
-1.47168e-06
2.77168e-06
2.63596e-06
-1.45349e-06
2.62226e-06
-1.453e-06
2.74022e-06
-1.45224e-06
2.86366e-06
-1.45117e-06
2.99243e-06
-1.44976e-06
3.12643e-06
-1.448e-06
3.26573e-06
-1.44584e-06
3.41084e-06
-1.44322e-06
3.56281e-06
-1.44002e-06
3.72379e-06
-1.43594e-06
3.8976e-06
-1.4304e-06
4.09043e-06
-1.4225e-06
4.311e-06
-1.41111e-06
4.56984e-06
-1.39529e-06
4.877e-06
-1.37488e-06
5.23886e-06
-1.3509e-06
5.65594e-06
-1.32538e-06
6.12415e-06
-1.30055e-06
6.64078e-06
-1.27615e-06
7.20763e-06
-1.24248e-06
7.78472e-06
-1.18987e-06
8.09804e-06
-1.19856e-06
7.5296e-06
-1.42374e-06
6.28639e-06
-1.63709e-06
6.62935e-06
-1.59292e-06
9.00097e-06
-1.52809e-06
1.06871e-05
-1.50527e-06
1.1283e-05
-1.49035e-06
1.17016e-05
-1.46586e-06
1.22688e-05
-1.39469e-06
1.25348e-05
-1.37255e-06
1.30334e-05
-1.69966e-06
1.03734e-05
-1.69108e-06
1.35802e-05
-1.61625e-06
1.49489e-05
-1.55292e-06
1.39403e-05
-1.50623e-06
1.30734e-05
-1.47896e-06
1.3666e-05
-1.47699e-06
1.43021e-05
-1.48163e-06
1.43383e-05
-1.47948e-06
1.41039e-05
-1.47324e-06
1.39429e-05
-1.46919e-06
1.39897e-05
-1.46963e-06
1.41013e-05
-1.47251e-06
1.41493e-05
-1.47544e-06
1.41346e-05
-1.47777e-06
1.4096e-05
-1.4798e-06
1.4052e-05
-1.48145e-06
1.39966e-05
-1.48147e-06
1.39026e-05
-1.47823e-06
1.37427e-05
-1.47223e-06
1.35571e-05
-1.46614e-06
1.34843e-05
-1.4621e-06
1.35915e-05
-1.46102e-06
1.37409e-05
-1.46056e-06
1.37951e-05
-1.45706e-06
1.37312e-05
-1.44937e-06
1.36279e-05
-1.43922e-06
1.3637e-05
-1.42946e-06
1.38259e-05
-1.42236e-06
1.40807e-05
-1.41753e-06
1.4306e-05
-1.41414e-06
1.45097e-05
-1.41496e-06
1.47561e-05
-1.4144e-06
1.50498e-05
-1.37813e-06
1.48551e-05
-1.37191e-06
1.28898e-05
-1.55606e-06
1.07845e-05
-1.54404e-06
1.32653e-05
-1.51469e-06
1.49862e-05
-1.51461e-06
1.49936e-05
-1.51304e-06
1.20161e-05
-1.5093e-06
1.13092e-05
-1.50632e-06
1.06888e-05
-1.50489e-06
1.01217e-05
-1.50431e-06
9.58618e-06
-1.50229e-06
9.0499e-06
-1.49647e-06
8.47562e-06
-1.48804e-06
7.86822e-06
-1.48084e-06
7.31487e-06
-1.47585e-06
6.91812e-06
-1.47172e-06
6.67549e-06
-1.46888e-06
6.49017e-06
-1.46825e-06
6.28155e-06
-1.46941e-06
6.03148e-06
-1.47127e-06
5.7563e-06
-1.47299e-06
5.47471e-06
-1.47423e-06
5.1976e-06
-1.47492e-06
4.92983e-06
-1.47514e-06
4.67339e-06
-1.47499e-06
4.42921e-06
-1.4746e-06
4.19772e-06
-1.47408e-06
3.97908e-06
-1.47351e-06
3.77314e-06
-1.47297e-06
3.57952e-06
-1.4725e-06
3.3976e-06
-1.47211e-06
3.22664e-06
-1.47183e-06
3.06584e-06
-1.47164e-06
2.9144e-06
-1.47153e-06
2.77157e-06
2.63592e-06
-1.45584e-06
2.62203e-06
-1.45536e-06
2.73974e-06
-1.4546e-06
2.8629e-06
-1.45355e-06
2.99139e-06
-1.45219e-06
3.12506e-06
-1.45048e-06
3.26403e-06
-1.4484e-06
3.40876e-06
-1.4459e-06
3.5603e-06
-1.44284e-06
3.72073e-06
-1.43894e-06
3.89371e-06
-1.43369e-06
4.08517e-06
-1.42621e-06
4.30353e-06
-1.41546e-06
4.55909e-06
-1.4005e-06
4.86204e-06
-1.38112e-06
5.21948e-06
-1.35823e-06
5.63306e-06
-1.33385e-06
6.09977e-06
-1.31018e-06
6.61711e-06
-1.28673e-06
7.18418e-06
-1.25466e-06
7.75264e-06
-1.20932e-06
8.05269e-06
-1.22505e-06
7.54533e-06
-1.41815e-06
6.47949e-06
-1.60054e-06
6.81174e-06
-1.56898e-06
8.96941e-06
-1.51183e-06
1.06299e-05
-1.49371e-06
1.12648e-05
-1.48339e-06
1.16913e-05
-1.46116e-06
1.22466e-05
-1.39705e-06
1.24707e-05
-1.38986e-06
1.30263e-05
-1.68497e-06
1.06685e-05
-1.68547e-06
1.35807e-05
-1.61424e-06
1.48777e-05
-1.55156e-06
1.38776e-05
-1.50547e-06
1.30273e-05
-1.47878e-06
1.36393e-05
-1.47713e-06
1.43005e-05
-1.48222e-06
1.43434e-05
-1.48021e-06
1.41019e-05
-1.47379e-06
1.39365e-05
-1.46962e-06
1.39855e-05
-1.47015e-06
1.41019e-05
-1.47325e-06
1.41524e-05
-1.47639e-06
1.41378e-05
-1.47887e-06
1.40985e-05
-1.481e-06
1.40542e-05
-1.48269e-06
1.39983e-05
-1.48265e-06
1.39025e-05
-1.4792e-06
1.37392e-05
-1.47283e-06
1.35508e-05
-1.46626e-06
1.34777e-05
-1.46183e-06
1.35871e-05
-1.46048e-06
1.37395e-05
-1.45979e-06
1.37944e-05
-1.45599e-06
1.37274e-05
-1.44779e-06
1.36197e-05
-1.43697e-06
1.36261e-05
-1.42656e-06
1.38155e-05
-1.41895e-06
1.40731e-05
-1.41377e-06
1.43008e-05
-1.41022e-06
1.45061e-05
-1.41052e-06
1.47564e-05
-1.40834e-06
1.50476e-05
-1.37402e-06
1.48208e-05
-1.3767e-06
1.28925e-05
-1.55037e-06
1.09582e-05
-1.54585e-06
1.32608e-05
-1.51731e-06
1.49576e-05
-1.51611e-06
1.49924e-05
-1.51441e-06
1.20144e-05
-1.51066e-06
1.13054e-05
-1.5076e-06
1.06857e-05
-1.50608e-06
1.01202e-05
-1.50539e-06
9.58549e-06
-1.50316e-06
9.04766e-06
-1.49716e-06
8.46962e-06
-1.48865e-06
7.85972e-06
-1.4813e-06
7.30752e-06
-1.47603e-06
6.91285e-06
-1.47169e-06
6.67115e-06
-1.46871e-06
6.48719e-06
-1.46793e-06
6.28077e-06
-1.46899e-06
6.03253e-06
-1.47079e-06
5.7581e-06
-1.4725e-06
5.47642e-06
-1.47373e-06
5.19884e-06
-1.47442e-06
4.93052e-06
-1.47463e-06
4.6736e-06
-1.47448e-06
4.42905e-06
-1.47408e-06
4.19733e-06
-1.47355e-06
3.97855e-06
-1.47299e-06
3.77258e-06
-1.47244e-06
3.57897e-06
-1.47197e-06
3.39712e-06
-1.47159e-06
3.22626e-06
-1.47131e-06
3.06556e-06
-1.47112e-06
2.91421e-06
-1.47101e-06
2.77146e-06
2.63588e-06
-1.45961e-06
2.6218e-06
-1.45913e-06
2.73925e-06
-1.45838e-06
2.86215e-06
-1.45736e-06
2.99037e-06
-1.45604e-06
3.12374e-06
-1.45439e-06
3.26239e-06
-1.45241e-06
3.40677e-06
-1.45002e-06
3.55792e-06
-1.44712e-06
3.71783e-06
-1.44346e-06
3.89004e-06
-1.43853e-06
4.08024e-06
-1.43154e-06
4.29655e-06
-1.42151e-06
4.54906e-06
-1.40751e-06
4.84804e-06
-1.38927e-06
5.20123e-06
-1.36757e-06
5.61136e-06
-1.34433e-06
6.07652e-06
-1.32163e-06
6.59442e-06
-1.29873e-06
7.16129e-06
-1.26754e-06
7.72145e-06
-1.22672e-06
8.01187e-06
-1.24347e-06
7.56209e-06
-1.40879e-06
6.64481e-06
-1.56829e-06
6.97124e-06
-1.54871e-06
8.94982e-06
-1.49875e-06
1.058e-05
-1.48401e-06
1.12501e-05
-1.47726e-06
1.16846e-05
-1.45649e-06
1.22258e-05
-1.39932e-06
1.24135e-05
-1.40399e-06
1.30309e-05
-1.67106e-06
1.09356e-05
-1.67796e-06
1.35876e-05
-1.60985e-06
1.48096e-05
-1.54835e-06
1.38161e-05
-1.50364e-06
1.29826e-05
-1.478e-06
1.36137e-05
-1.47689e-06
1.42994e-05
-1.48253e-06
1.4349e-05
-1.48072e-06
1.41001e-05
-1.47419e-06
1.393e-05
-1.46997e-06
1.39813e-05
-1.47063e-06
1.41025e-05
-1.47396e-06
1.41558e-05
-1.47731e-06
1.41411e-05
-1.47994e-06
1.41011e-05
-1.48217e-06
1.40564e-05
-1.4839e-06
1.4e-05
-1.4838e-06
1.39024e-05
-1.48015e-06
1.37356e-05
-1.47342e-06
1.3544e-05
-1.46641e-06
1.34707e-05
-1.46163e-06
1.35823e-05
-1.46005e-06
1.37379e-05
-1.45916e-06
1.37935e-05
-1.45507e-06
1.37233e-05
-1.4464e-06
1.3611e-05
-1.43498e-06
1.36147e-05
-1.42401e-06
1.38045e-05
-1.41598e-06
1.4065e-05
-1.41052e-06
1.42954e-05
-1.40693e-06
1.45025e-05
-1.40688e-06
1.47564e-05
-1.40351e-06
1.50443e-05
-1.37139e-06
1.47887e-05
-1.38114e-06
1.29023e-05
-1.54434e-06
1.11214e-05
-1.54626e-06
1.32627e-05
-1.51892e-06
1.49303e-05
-1.51667e-06
1.49902e-05
-1.51487e-06
1.20126e-05
-1.51115e-06
1.13017e-05
-1.50806e-06
1.06826e-05
-1.50652e-06
1.01187e-05
-1.50576e-06
9.58473e-06
-1.50337e-06
9.04527e-06
-1.49721e-06
8.46347e-06
-1.48864e-06
7.85114e-06
-1.48117e-06
7.30005e-06
-1.4757e-06
6.90738e-06
-1.47124e-06
6.66669e-06
-1.46817e-06
6.48412e-06
-1.46729e-06
6.27989e-06
-1.46825e-06
6.0335e-06
-1.47001e-06
5.75986e-06
-1.47169e-06
5.4781e-06
-1.47291e-06
5.20006e-06
-1.47359e-06
4.93119e-06
-1.47378e-06
4.6738e-06
-1.47362e-06
4.42888e-06
-1.47321e-06
4.19692e-06
-1.47267e-06
3.97802e-06
-1.4721e-06
3.772e-06
-1.47155e-06
3.57843e-06
-1.47108e-06
3.39665e-06
-1.4707e-06
3.22588e-06
-1.47042e-06
3.06528e-06
-1.47023e-06
2.91402e-06
-1.47012e-06
2.77135e-06
2.63584e-06
-1.46481e-06
2.62156e-06
-1.46431e-06
2.73875e-06
-1.46357e-06
2.86141e-06
-1.46256e-06
2.98936e-06
-1.46128e-06
3.12246e-06
-1.45971e-06
3.26081e-06
-1.45782e-06
3.40488e-06
-1.45556e-06
3.55566e-06
-1.45284e-06
3.71511e-06
-1.44942e-06
3.88662e-06
-1.44485e-06
4.07566e-06
-1.4384e-06
4.29009e-06
-1.42912e-06
4.53978e-06
-1.41614e-06
4.83506e-06
-1.3991e-06
5.1842e-06
-1.37868e-06
5.59094e-06
-1.35663e-06
6.05448e-06
-1.33492e-06
6.5727e-06
-1.31255e-06
7.13892e-06
-1.28193e-06
7.69083e-06
-1.24359e-06
7.97354e-06
-1.25778e-06
7.57628e-06
-1.39954e-06
6.78657e-06
-1.54194e-06
7.11364e-06
-1.53332e-06
8.9412e-06
-1.48963e-06
1.05363e-05
-1.47688e-06
1.12374e-05
-1.47267e-06
1.16804e-05
-1.4537e-06
1.22068e-05
-1.40214e-06
1.2362e-05
-1.41588e-06
1.30447e-05
-1.65773e-06
1.11774e-05
-1.66851e-06
1.35984e-05
-1.60319e-06
1.47443e-05
-1.5436e-06
1.37565e-05
-1.50104e-06
1.29401e-05
-1.47682e-06
1.35894e-05
-1.4764e-06
1.42989e-05
-1.48264e-06
1.43553e-05
-1.48106e-06
1.40985e-05
-1.47447e-06
1.39234e-05
-1.47024e-06
1.39771e-05
-1.47107e-06
1.41034e-05
-1.47465e-06
1.41593e-05
-1.47822e-06
1.41447e-05
-1.48101e-06
1.41039e-05
-1.48334e-06
1.40587e-05
-1.48512e-06
1.40018e-05
-1.48496e-06
1.39023e-05
-1.48109e-06
1.37317e-05
-1.474e-06
1.3537e-05
-1.4666e-06
1.34633e-05
-1.46151e-06
1.35772e-05
-1.45974e-06
1.37362e-05
-1.45868e-06
1.37924e-05
-1.45432e-06
1.37189e-05
-1.44521e-06
1.36019e-05
-1.43325e-06
1.36028e-05
-1.4218e-06
1.37931e-05
-1.41342e-06
1.40567e-05
-1.40776e-06
1.42897e-05
-1.40419e-06
1.4499e-05
-1.40396e-06
1.47561e-05
-1.39973e-06
1.504e-05
-1.36987e-06
1.47588e-05
-1.38525e-06
1.29176e-05
-1.53843e-06
1.12746e-05
-1.54563e-06
1.32699e-05
-1.51961e-06
1.49043e-05
-1.51639e-06
1.4987e-05
-1.5145e-06
1.20107e-05
-1.51082e-06
1.1298e-05
-1.50773e-06
1.06796e-05
-1.50622e-06
1.01171e-05
-1.50544e-06
9.58395e-06
-1.50293e-06
9.04275e-06
-1.49665e-06
8.4572e-06
-1.48804e-06
7.84253e-06
-1.48049e-06
7.29249e-06
-1.47488e-06
6.90177e-06
-1.47035e-06
6.66216e-06
-1.46723e-06
6.481e-06
-1.46628e-06
6.27894e-06
-1.46717e-06
6.03439e-06
-1.46888e-06
5.76156e-06
-1.47054e-06
5.47977e-06
-1.47175e-06
5.20126e-06
-1.47241e-06
4.93185e-06
-1.47259e-06
4.67397e-06
-1.4724e-06
4.4287e-06
-1.47198e-06
4.19649e-06
-1.47143e-06
3.97747e-06
-1.47084e-06
3.77142e-06
-1.47029e-06
3.57788e-06
-1.46981e-06
3.39617e-06
-1.46943e-06
3.2255e-06
-1.46915e-06
3.065e-06
-1.46896e-06
2.91383e-06
-1.46885e-06
2.77124e-06
2.63579e-06
-1.47136e-06
2.6213e-06
-1.47085e-06
2.73824e-06
-1.47011e-06
2.86066e-06
-1.46912e-06
2.98837e-06
-1.46788e-06
3.12122e-06
-1.46637e-06
3.2593e-06
-1.46458e-06
3.40309e-06
-1.46247e-06
3.55355e-06
-1.45995e-06
3.71259e-06
-1.4568e-06
3.88347e-06
-1.4526e-06
4.07147e-06
-1.4467e-06
4.28419e-06
-1.43822e-06
4.53129e-06
-1.42629e-06
4.82313e-06
-1.41053e-06
5.16844e-06
-1.39149e-06
5.57189e-06
-1.37079e-06
6.03378e-06
-1.35021e-06
6.55213e-06
-1.32858e-06
7.11728e-06
-1.29856e-06
7.66082e-06
-1.26152e-06
7.9365e-06
-1.27168e-06
7.58643e-06
-1.39373e-06
6.90863e-06
-1.52237e-06
7.24228e-06
-1.52273e-06
8.94155e-06
-1.48414e-06
1.04977e-05
-1.47227e-06
1.12255e-05
-1.46951e-06
1.16776e-05
-1.45228e-06
1.21896e-05
-1.40571e-06
1.23154e-05
-1.42605e-06
1.3065e-05
-1.64442e-06
1.13958e-05
-1.65689e-06
1.36109e-05
-1.5944e-06
1.46818e-05
-1.53762e-06
1.36997e-05
-1.49793e-06
1.29004e-05
-1.47544e-06
1.3567e-05
-1.47579e-06
1.42993e-05
-1.48266e-06
1.43621e-05
-1.48131e-06
1.40972e-05
-1.47468e-06
1.39168e-05
-1.47047e-06
1.39729e-05
-1.47149e-06
1.41044e-05
-1.47535e-06
1.41632e-05
-1.47914e-06
1.41485e-05
-1.48208e-06
1.41068e-05
-1.48453e-06
1.40612e-05
-1.48636e-06
1.40037e-05
-1.48615e-06
1.39021e-05
-1.48206e-06
1.37276e-05
-1.47461e-06
1.35295e-05
-1.46683e-06
1.34555e-05
-1.46148e-06
1.35718e-05
-1.45955e-06
1.37342e-05
-1.45835e-06
1.37912e-05
-1.45374e-06
1.37143e-05
-1.44422e-06
1.35924e-05
-1.43177e-06
1.35903e-05
-1.41989e-06
1.37812e-05
-1.41123e-06
1.4048e-05
-1.40544e-06
1.42839e-05
-1.40197e-06
1.44955e-05
-1.40165e-06
1.47558e-05
-1.39677e-06
1.50352e-05
-1.3691e-06
1.47311e-05
-1.38894e-06
1.29375e-05
-1.53274e-06
1.14184e-05
-1.54413e-06
1.32813e-05
-1.51938e-06
1.48796e-05
-1.51529e-06
1.49829e-05
-1.51332e-06
1.20087e-05
-1.50971e-06
1.12944e-05
-1.50666e-06
1.06765e-05
-1.50521e-06
1.01157e-05
-1.50444e-06
9.58318e-06
-1.50184e-06
9.04015e-06
-1.4955e-06
8.45085e-06
-1.48689e-06
7.83393e-06
-1.47931e-06
7.28491e-06
-1.47361e-06
6.89607e-06
-1.46903e-06
6.65758e-06
-1.46588e-06
6.47786e-06
-1.46487e-06
6.27793e-06
-1.4657e-06
6.03521e-06
-1.46737e-06
5.76323e-06
-1.46902e-06
5.48141e-06
-1.47021e-06
5.20246e-06
-1.47086e-06
4.9325e-06
-1.47102e-06