/*--------------------------------*- C++ -*----------------------------------*\
  =========                 |
  \\      /  F ield         | OpenFOAM: The Open Source CFD Toolbox
   \\    /   O peration     | Website:  https://openfoam.org
    \\  /    A nd           | Version:  9
     \\/     M anipulation  |
\*---------------------------------------------------------------------------*/
FoamFile
{
    format      ascii;
    class       volScalarField;
    location    "0.08";
    object      rAU;
}
// * * * * * * * * * * * * * * * * * * * * * * * * * * * * * * * * * * * * * //

dimensions      [-1 3 1 0 0 0 0];

internalField   nonuniform List<scalar> 
20000
(
1.38415e-05
1.33004e-05
1.34818e-05
1.3655e-05
1.3821e-05
1.39804e-05
1.41332e-05
1.42784e-05
1.44131e-05
1.45315e-05
1.46234e-05
1.46762e-05
1.46782e-05
1.46261e-05
1.45284e-05
1.44012e-05
1.42595e-05
1.41098e-05
1.39478e-05
1.37615e-05
1.36195e-05
1.4217e-05
1.9125e-05
1.98093e-05
1.41494e-05
1.361e-05
1.37946e-05
1.39483e-05
1.3999e-05
1.40039e-05
1.50568e-05
1.93585e-05
1.50499e-05
1.43352e-05
1.48498e-05
1.53758e-05
1.51302e-05
1.4881e-05
1.48749e-05
1.49694e-05
1.50425e-05
1.50267e-05
1.49822e-05
1.49635e-05
1.49701e-05
1.49875e-05
1.50089e-05
1.50358e-05
1.50782e-05
1.51493e-05
1.52383e-05
1.52803e-05
1.52324e-05
1.51632e-05
1.51353e-05
1.51577e-05
1.52002e-05
1.51928e-05
1.50991e-05
1.4978e-05
1.48712e-05
1.47745e-05
1.46729e-05
1.45503e-05
1.44883e-05
1.53582e-05
1.78419e-05
1.52998e-05
1.4475e-05
1.45526e-05
1.45867e-05
1.46366e-05
1.46716e-05
1.46941e-05
1.47108e-05
1.47356e-05
1.47945e-05
1.49102e-05
1.50443e-05
1.50745e-05
1.49503e-05
1.47711e-05
1.46256e-05
1.4527e-05
1.44574e-05
1.4401e-05
1.43489e-05
1.4297e-05
1.42427e-05
1.41841e-05
1.41196e-05
1.40475e-05
1.39664e-05
1.38752e-05
1.3773e-05
1.36593e-05
1.35338e-05
1.33964e-05
1.32471e-05
1.11721e-05
1.84292e-05
1.74636e-05
1.77596e-05
1.80426e-05
1.83133e-05
1.85722e-05
1.88195e-05
1.90545e-05
1.92757e-05
1.94794e-05
1.96594e-05
1.98079e-05
1.99172e-05
1.99844e-05
2.00138e-05
2.0015e-05
1.9998e-05
1.9968e-05
1.99222e-05
1.98548e-05
1.98484e-05
2.05222e-05
2.34069e-05
2.35002e-05
2.03386e-05
1.99112e-05
2.01009e-05
2.02676e-05
2.03453e-05
2.04054e-05
2.14043e-05
2.39742e-05
2.13121e-05
2.07435e-05
2.11524e-05
2.15525e-05
2.13729e-05
2.11816e-05
2.11755e-05
2.12485e-05
2.13049e-05
2.12934e-05
2.12594e-05
2.12447e-05
2.12493e-05
2.12623e-05
2.12781e-05
2.12981e-05
2.13298e-05
2.13836e-05
2.1451e-05
2.14829e-05
2.14475e-05
2.13955e-05
2.13742e-05
2.13915e-05
2.14244e-05
2.14203e-05
2.13513e-05
2.12607e-05
2.11801e-05
2.11067e-05
2.10277e-05
2.09284e-05
2.08882e-05
2.15859e-05
2.3171e-05
2.15068e-05
2.08677e-05
2.09198e-05
2.0837e-05
2.08372e-05
2.08283e-05
2.08068e-05
2.07778e-05
2.07523e-05
2.07506e-05
2.07886e-05
2.08337e-05
2.07976e-05
2.06484e-05
2.04554e-05
2.02812e-05
2.01361e-05
2.00077e-05
1.9884e-05
1.97586e-05
1.9628e-05
1.94901e-05
1.93432e-05
1.91858e-05
1.90165e-05
1.88341e-05
1.86374e-05
1.84259e-05
1.81989e-05
1.79561e-05
1.76975e-05
1.7423e-05
1.3993e-05
1.84337e-05
1.74678e-05
1.77641e-05
1.80475e-05
1.83187e-05
1.85782e-05
1.88262e-05
1.9062e-05
1.92842e-05
1.94892e-05
1.96712e-05
1.98227e-05
1.99364e-05
2.00091e-05
2.00442e-05
2.00507e-05
2.00385e-05
2.00132e-05
1.9972e-05
1.99109e-05
1.99335e-05
2.06716e-05
2.31634e-05
2.31564e-05
2.0426e-05
1.99367e-05
2.01079e-05
2.02738e-05
2.03499e-05
2.04307e-05
2.14694e-05
2.37697e-05
2.13326e-05
2.07448e-05
2.11569e-05
2.1557e-05
2.1377e-05
2.11803e-05
2.1173e-05
2.1248e-05
2.13056e-05
2.1294e-05
2.12592e-05
2.12439e-05
2.12484e-05
2.12614e-05
2.12771e-05
2.12969e-05
2.13288e-05
2.13834e-05
2.14516e-05
2.14838e-05
2.14483e-05
2.13956e-05
2.13742e-05
2.13923e-05
2.14265e-05
2.14233e-05
2.13549e-05
2.12641e-05
2.11835e-05
2.11103e-05
2.10298e-05
2.0927e-05
2.08998e-05
2.16208e-05
2.30896e-05
2.1523e-05
2.08693e-05
2.09139e-05
2.08331e-05
2.08346e-05
2.08255e-05
2.08034e-05
2.07739e-05
2.07485e-05
2.07488e-05
2.07895e-05
2.08348e-05
2.07977e-05
2.0649e-05
2.0456e-05
2.02806e-05
2.01345e-05
2.00056e-05
1.98819e-05
1.97566e-05
1.96261e-05
1.94884e-05
1.93417e-05
1.91845e-05
1.90153e-05
1.8833e-05
1.86365e-05
1.84249e-05
1.81979e-05
1.79552e-05
1.76965e-05
1.74219e-05
1.39918e-05
1.84382e-05
1.74719e-05
1.77686e-05
1.80524e-05
1.8324e-05
1.8584e-05
1.88326e-05
1.90691e-05
1.92922e-05
1.94984e-05
1.96822e-05
1.98366e-05
1.99544e-05
2.00321e-05
2.00724e-05
2.00831e-05
2.00739e-05
2.00505e-05
2.00098e-05
1.99519e-05
2.00025e-05
2.07746e-05
2.28831e-05
2.28405e-05
2.05199e-05
1.99761e-05
2.0125e-05
2.02868e-05
2.03588e-05
2.04631e-05
2.15263e-05
2.35502e-05
2.13543e-05
2.07569e-05
2.11677e-05
2.15656e-05
2.13834e-05
2.11795e-05
2.11704e-05
2.12476e-05
2.13066e-05
2.12948e-05
2.12589e-05
2.1243e-05
2.12474e-05
2.12604e-05
2.1276e-05
2.12957e-05
2.13279e-05
2.13835e-05
2.14526e-05
2.1485e-05
2.14492e-05
2.13959e-05
2.13743e-05
2.13933e-05
2.14289e-05
2.14268e-05
2.13588e-05
2.12678e-05
2.1187e-05
2.11137e-05
2.10316e-05
2.09258e-05
2.09146e-05
2.16525e-05
2.29969e-05
2.15393e-05
2.08737e-05
2.09084e-05
2.08298e-05
2.08326e-05
2.08234e-05
2.08007e-05
2.07706e-05
2.07456e-05
2.07481e-05
2.07914e-05
2.08365e-05
2.07981e-05
2.06499e-05
2.04569e-05
2.02802e-05
2.01329e-05
2.00035e-05
1.98798e-05
1.97546e-05
1.96245e-05
1.9487e-05
1.93406e-05
1.91836e-05
1.90146e-05
1.88324e-05
1.86359e-05
1.84243e-05
1.81973e-05
1.79545e-05
1.76957e-05
1.7421e-05
1.39908e-05
1.84419e-05
1.74754e-05
1.77723e-05
1.80565e-05
1.83285e-05
1.8589e-05
1.8838e-05
1.90752e-05
1.92989e-05
1.95061e-05
1.96917e-05
1.98486e-05
1.99702e-05
2.00524e-05
2.00968e-05
2.01107e-05
2.0103e-05
2.00795e-05
2.00376e-05
1.99833e-05
2.00595e-05
2.08309e-05
2.26124e-05
2.25697e-05
2.06004e-05
2.00219e-05
2.01461e-05
2.03023e-05
2.03709e-05
2.04994e-05
2.15706e-05
2.33382e-05
2.13731e-05
2.07769e-05
2.11838e-05
2.1578e-05
2.13914e-05
2.11791e-05
2.11679e-05
2.12475e-05
2.1308e-05
2.12958e-05
2.12587e-05
2.12419e-05
2.12462e-05
2.12593e-05
2.12748e-05
2.12945e-05
2.13271e-05
2.13837e-05
2.14539e-05
2.14865e-05
2.14503e-05
2.13961e-05
2.13744e-05
2.13945e-05
2.14317e-05
2.14307e-05
2.1363e-05
2.12716e-05
2.11904e-05
2.11171e-05
2.10333e-05
2.09255e-05
2.0931e-05
2.1678e-05
2.29019e-05
2.15533e-05
2.088e-05
2.09038e-05
2.08274e-05
2.08315e-05
2.0822e-05
2.07987e-05
2.07681e-05
2.07436e-05
2.07483e-05
2.07941e-05
2.08389e-05
2.07991e-05
2.06511e-05
2.04579e-05
2.02799e-05
2.01314e-05
2.00014e-05
1.98778e-05
1.97529e-05
1.96231e-05
1.9486e-05
1.93399e-05
1.91831e-05
1.90142e-05
1.88321e-05
1.86356e-05
1.84241e-05
1.81969e-05
1.7954e-05
1.76951e-05
1.74203e-05
1.39899e-05
1.84442e-05
1.74777e-05
1.7775e-05
1.80594e-05
1.83318e-05
1.85927e-05
1.88422e-05
1.90798e-05
1.93042e-05
1.95123e-05
1.96993e-05
1.98586e-05
1.99835e-05
2.00696e-05
2.01176e-05
2.01338e-05
2.01267e-05
2.0102e-05
2.00581e-05
2.00076e-05
2.01035e-05
2.08511e-05
2.23715e-05
2.2344e-05
2.06641e-05
2.00712e-05
2.01687e-05
2.03181e-05
2.03844e-05
2.05361e-05
2.16017e-05
2.31443e-05
2.13874e-05
2.08021e-05
2.12037e-05
2.15931e-05
2.14006e-05
2.11792e-05
2.11656e-05
2.12476e-05
2.13096e-05
2.12969e-05
2.12584e-05
2.12408e-05
2.1245e-05
2.12581e-05
2.12737e-05
2.12934e-05
2.13264e-05
2.13842e-05
2.14554e-05
2.14882e-05
2.14515e-05
2.13965e-05
2.13747e-05
2.13959e-05
2.14347e-05
2.14348e-05
2.13675e-05
2.12754e-05
2.11938e-05
2.11204e-05
2.1035e-05
2.09262e-05
2.09479e-05
2.16965e-05
2.28095e-05
2.15641e-05
2.0888e-05
2.09005e-05
2.08256e-05
2.0831e-05
2.08212e-05
2.07973e-05
2.07661e-05
2.07423e-05
2.07494e-05
2.07975e-05
2.08419e-05
2.08007e-05
2.06527e-05
2.04591e-05
2.02798e-05
2.013e-05
1.99996e-05
1.9876e-05
1.97515e-05
1.96221e-05
1.94853e-05
1.93395e-05
1.9183e-05
1.90143e-05
1.88322e-05
1.86357e-05
1.84241e-05
1.81969e-05
1.79538e-05
1.76949e-05
1.74199e-05
1.39894e-05
1.84449e-05
1.74786e-05
1.77762e-05
1.8061e-05
1.83337e-05
1.8595e-05
1.88449e-05
1.9083e-05
1.93079e-05
1.95168e-05
1.97051e-05
1.98665e-05
1.99942e-05
2.00838e-05
2.0135e-05
2.01532e-05
2.01462e-05
2.01196e-05
2.00735e-05
2.00262e-05
2.01367e-05
2.08492e-05
2.21645e-05
2.21594e-05
2.0716e-05
2.01207e-05
2.01909e-05
2.03328e-05
2.03983e-05
2.0571e-05
2.1622e-05
2.29712e-05
2.13974e-05
2.08299e-05
2.12263e-05
2.16101e-05
2.14107e-05
2.11796e-05
2.11635e-05
2.12479e-05
2.13114e-05
2.12981e-05
2.1258e-05
2.12395e-05
2.12436e-05
2.12569e-05
2.12725e-05
2.12922e-05
2.13258e-05
2.13848e-05
2.14572e-05
2.14901e-05
2.14529e-05
2.1397e-05
2.1375e-05
2.13975e-05
2.1438e-05
2.14392e-05
2.13721e-05
2.12794e-05
2.11972e-05
2.11235e-05
2.10366e-05
2.09275e-05
2.09643e-05
2.17088e-05
2.27215e-05
2.15719e-05
2.08974e-05
2.08985e-05
2.08246e-05
2.08312e-05
2.08211e-05
2.07964e-05
2.07648e-05
2.07417e-05
2.07512e-05
2.08015e-05
2.08454e-05
2.08029e-05
2.06547e-05
2.04606e-05
2.02799e-05
2.01289e-05
1.9998e-05
1.98744e-05
1.97503e-05
1.96213e-05
1.94849e-05
1.93395e-05
1.91832e-05
1.90146e-05
1.88326e-05
1.86361e-05
1.84245e-05
1.81972e-05
1.7954e-05
1.76949e-05
1.74199e-05
1.39892e-05
1.84437e-05
1.74779e-05
1.77758e-05
1.80609e-05
1.8334e-05
1.85957e-05
1.88459e-05
1.90844e-05
1.93098e-05
1.95195e-05
1.97089e-05
1.98721e-05
2.00026e-05
2.00953e-05
2.01494e-05
2.01693e-05
2.01622e-05
2.01337e-05
2.00853e-05
2.00414e-05
2.01625e-05
2.08366e-05
2.19911e-05
2.20101e-05
2.07592e-05
2.01673e-05
2.02111e-05
2.03454e-05
2.04115e-05
2.06029e-05
2.16341e-05
2.28177e-05
2.14034e-05
2.08583e-05
2.12504e-05
2.16284e-05
2.14214e-05
2.11803e-05
2.11614e-05
2.12483e-05
2.13135e-05
2.12995e-05
2.12577e-05
2.12382e-05
2.12422e-05
2.12556e-05
2.12713e-05
2.12911e-05
2.13253e-05
2.13855e-05
2.14591e-05
2.14923e-05
2.14545e-05
2.13976e-05
2.13754e-05
2.13991e-05
2.14414e-05
2.14438e-05
2.13768e-05
2.12834e-05
2.12005e-05
2.11265e-05
2.10381e-05
2.09293e-05
2.09798e-05
2.17158e-05
2.26386e-05
2.15769e-05
2.09075e-05
2.08975e-05
2.08242e-05
2.08319e-05
2.08215e-05
2.07961e-05
2.0764e-05
2.07417e-05
2.07536e-05
2.08059e-05
2.08494e-05
2.08056e-05
2.06572e-05
2.04626e-05
2.02804e-05
2.01281e-05
1.99966e-05
1.98731e-05
1.97493e-05
1.96208e-05
1.94849e-05
1.93397e-05
1.91837e-05
1.90153e-05
1.88334e-05
1.86369e-05
1.84252e-05
1.81978e-05
1.79546e-05
1.76954e-05
1.74202e-05
1.39895e-05
1.84404e-05
1.74754e-05
1.77737e-05
1.80592e-05
1.83327e-05
1.85947e-05
1.88453e-05
1.90842e-05
1.931e-05
1.95203e-05
1.97108e-05
1.98757e-05
2.00086e-05
2.01042e-05
2.01611e-05
2.01826e-05
2.01753e-05
2.01449e-05
2.00947e-05
2.00546e-05
2.01839e-05
2.08206e-05
2.18478e-05
2.18879e-05
2.07936e-05
2.0209e-05
2.02281e-05
2.03555e-05
2.04237e-05
2.06322e-05
2.164e-05
2.26817e-05
2.14061e-05
2.08864e-05
2.12753e-05
2.16472e-05
2.14324e-05
2.11812e-05
2.11594e-05
2.12488e-05
2.13157e-05
2.1301e-05
2.12574e-05
2.12369e-05
2.12407e-05
2.12543e-05
2.12701e-05
2.129e-05
2.13248e-05
2.13863e-05
2.14612e-05
2.14946e-05
2.14562e-05
2.13982e-05
2.13758e-05
2.14008e-05
2.14449e-05
2.14486e-05
2.13818e-05
2.12874e-05
2.12038e-05
2.11293e-05
2.10396e-05
2.09313e-05
2.09943e-05
2.17185e-05
2.25611e-05
2.15793e-05
2.09179e-05
2.08973e-05
2.08243e-05
2.08331e-05
2.08224e-05
2.07963e-05
2.07638e-05
2.07422e-05
2.07564e-05
2.08107e-05
2.08539e-05
2.0809e-05
2.06602e-05
2.04649e-05
2.02813e-05
2.01276e-05
1.99955e-05
1.9872e-05
1.97486e-05
1.96205e-05
1.94851e-05
1.93403e-05
1.91846e-05
1.90164e-05
1.88345e-05
1.86381e-05
1.84263e-05
1.81989e-05
1.79555e-05
1.76962e-05
1.7421e-05
1.39903e-05
1.84352e-05
1.74713e-05
1.77699e-05
1.80557e-05
1.83296e-05
1.8592e-05
1.8843e-05
1.90822e-05
1.93085e-05
1.95194e-05
1.97109e-05
1.98773e-05
2.00124e-05
2.01107e-05
2.01702e-05
2.01933e-05
2.0186e-05
2.01539e-05
2.01024e-05
2.00664e-05
2.02023e-05
2.08046e-05
2.17291e-05
2.17846e-05
2.08186e-05
2.02446e-05
2.02418e-05
2.03629e-05
2.04347e-05
2.06585e-05
2.16411e-05
2.25605e-05
2.14062e-05
2.09141e-05
2.13006e-05
2.16663e-05
2.14433e-05
2.11821e-05
2.11573e-05
2.12492e-05
2.1318e-05
2.13025e-05
2.12571e-05
2.12354e-05
2.12392e-05
2.1253e-05
2.12688e-05
2.12888e-05
2.13243e-05
2.13872e-05
2.14634e-05
2.14971e-05
2.1458e-05
2.13989e-05
2.13763e-05
2.14025e-05
2.14486e-05
2.14536e-05
2.13868e-05
2.12915e-05
2.1207e-05
2.11319e-05
2.10409e-05
2.09334e-05
2.10076e-05
2.17177e-05
2.24888e-05
2.15793e-05
2.09282e-05
2.08978e-05
2.08249e-05
2.08347e-05
2.08238e-05
2.07969e-05
2.0764e-05
2.07432e-05
2.07598e-05
2.0816e-05
2.08588e-05
2.08129e-05
2.06637e-05
2.04676e-05
2.02824e-05
2.01274e-05
1.99947e-05
1.98713e-05
1.97482e-05
1.96206e-05
1.94856e-05
1.93412e-05
1.91858e-05
1.90178e-05
1.88361e-05
1.86396e-05
1.84278e-05
1.82003e-05
1.79569e-05
1.76975e-05
1.74223e-05
1.39916e-05
1.84279e-05
1.74654e-05
1.77644e-05
1.80506e-05
1.83249e-05
1.85876e-05
1.8839e-05
1.90786e-05
1.93053e-05
1.95168e-05
1.97091e-05
1.9877e-05
2.00141e-05
2.01149e-05
2.01768e-05
2.02015e-05
2.01942e-05
2.01607e-05
2.01082e-05
2.00764e-05
2.0218e-05
2.07898e-05
2.16287e-05
2.16933e-05
2.08339e-05
2.02745e-05
2.02526e-05
2.03679e-05
2.04442e-05
2.0682e-05
2.1638e-05
2.24522e-05
2.14051e-05
2.09416e-05
2.13261e-05
2.16851e-05
2.14539e-05
2.11828e-05
2.1155e-05
2.12497e-05
2.13204e-05
2.13041e-05
2.12567e-05
2.12339e-05
2.12376e-05
2.12515e-05
2.12675e-05
2.12877e-05
2.13238e-05
2.13882e-05
2.14657e-05
2.14998e-05
2.146e-05
2.13996e-05
2.13768e-05
2.14043e-05
2.14523e-05
2.14586e-05
2.13919e-05
2.12955e-05
2.12101e-05
2.11343e-05
2.1042e-05
2.09355e-05
2.10199e-05
2.17142e-05
2.24215e-05
2.15773e-05
2.09382e-05
2.0899e-05
2.0826e-05
2.08366e-05
2.08255e-05
2.07979e-05
2.07645e-05
2.07447e-05
2.07637e-05
2.08217e-05
2.08643e-05
2.08172e-05
2.06675e-05
2.04706e-05
2.0284e-05
2.01276e-05
1.99942e-05
1.98708e-05
1.97481e-05
1.9621e-05
1.94865e-05
1.93425e-05
1.91874e-05
1.90196e-05
1.8838e-05
1.86416e-05
1.84298e-05
1.82022e-05
1.79587e-05
1.76993e-05
1.74239e-05
1.39933e-05
1.84188e-05
1.74579e-05
1.77573e-05
1.8044e-05
1.83186e-05
1.85817e-05
1.88334e-05
1.90733e-05
1.93004e-05
1.95124e-05
1.97056e-05
1.98747e-05
2.00136e-05
2.01167e-05
2.01809e-05
2.02072e-05
2.02e-05
2.0165e-05
2.01119e-05
2.00845e-05
2.02313e-05
2.07761e-05
2.15416e-05
2.16098e-05
2.08406e-05
2.02993e-05
2.02614e-05
2.03712e-05
2.04524e-05
2.07028e-05
2.16319e-05
2.23558e-05
2.14036e-05
2.09689e-05
2.13513e-05
2.17031e-05
2.14641e-05
2.11833e-05
2.11526e-05
2.12501e-05
2.13229e-05
2.13057e-05
2.12563e-05
2.12323e-05
2.12358e-05
2.12501e-05
2.12661e-05
2.12865e-05
2.13234e-05
2.13893e-05
2.14682e-05
2.15026e-05
2.1462e-05
2.14004e-05
2.13772e-05
2.14061e-05
2.14561e-05
2.14638e-05
2.1397e-05
2.12996e-05
2.12131e-05
2.11365e-05
2.10429e-05
2.09378e-05
2.10311e-05
2.17086e-05
2.23588e-05
2.15737e-05
2.09481e-05
2.09009e-05
2.08274e-05
2.08389e-05
2.08276e-05
2.07993e-05
2.07655e-05
2.07466e-05
2.07679e-05
2.08278e-05
2.087e-05
2.08219e-05
2.06717e-05
2.04739e-05
2.02859e-05
2.01281e-05
1.9994e-05
1.98707e-05
1.97484e-05
1.96218e-05
1.94878e-05
1.93442e-05
1.91894e-05
1.90218e-05
1.88403e-05
1.86439e-05
1.84321e-05
1.82045e-05
1.79609e-05
1.77014e-05
1.7426e-05
1.39956e-05
1.84081e-05
1.7449e-05
1.77488e-05
1.80359e-05
1.83109e-05
1.85743e-05
1.88264e-05
1.90666e-05
1.9294e-05
1.95065e-05
1.97003e-05
1.98706e-05
2.00112e-05
2.01164e-05
2.01828e-05
2.02104e-05
2.02033e-05
2.01671e-05
2.01136e-05
2.00907e-05
2.02428e-05
2.07633e-05
2.14641e-05
2.15322e-05
2.08405e-05
2.03204e-05
2.02691e-05
2.03733e-05
2.04595e-05
2.07216e-05
2.16237e-05
2.22704e-05
2.14025e-05
2.09957e-05
2.13757e-05
2.17201e-05
2.14735e-05
2.11835e-05
2.11499e-05
2.12504e-05
2.13254e-05
2.13073e-05
2.12558e-05
2.12306e-05
2.1234e-05
2.12485e-05
2.12647e-05
2.12853e-05
2.13229e-05
2.13904e-05
2.14708e-05
2.15055e-05
2.14641e-05
2.14012e-05
2.13777e-05
2.14079e-05
2.14601e-05
2.14691e-05
2.14022e-05
2.13036e-05
2.1216e-05
2.11384e-05
2.10437e-05
2.094e-05
2.10416e-05
2.17014e-05
2.23004e-05
2.15689e-05
2.09578e-05
2.09034e-05
2.08292e-05
2.08415e-05
2.08301e-05
2.0801e-05
2.07668e-05
2.0749e-05
2.07726e-05
2.08341e-05
2.08761e-05
2.0827e-05
2.06762e-05
2.04776e-05
2.02881e-05
2.0129e-05
1.99942e-05
1.98709e-05
1.9749e-05
1.96229e-05
1.94894e-05
1.93462e-05
1.91917e-05
1.90244e-05
1.8843e-05
1.86467e-05
1.84349e-05
1.82072e-05
1.79636e-05
1.7704e-05
1.74286e-05
1.39983e-05
1.83959e-05
1.74389e-05
1.77391e-05
1.80265e-05
1.83019e-05
1.85657e-05
1.8818e-05
1.90586e-05
1.92863e-05
1.94991e-05
1.96936e-05
1.98649e-05
2.0007e-05
2.01142e-05
2.01825e-05
2.02115e-05
2.02044e-05
2.01672e-05
2.01137e-05
2.00958e-05
2.0253e-05
2.07512e-05
2.13943e-05
2.14604e-05
2.08363e-05
2.03391e-05
2.02763e-05
2.03748e-05
2.0466e-05
2.07385e-05
2.16143e-05
2.21951e-05
2.14021e-05
2.10217e-05
2.13988e-05
2.17356e-05
2.14819e-05
2.11833e-05
2.11469e-05
2.12506e-05
2.13278e-05
2.13089e-05
2.12552e-05
2.12287e-05
2.12321e-05
2.12469e-05
2.12633e-05
2.12841e-05
2.13225e-05
2.13916e-05
2.14735e-05
2.15086e-05
2.14663e-05
2.1402e-05
2.13782e-05
2.14098e-05
2.1464e-05
2.14744e-05
2.14075e-05
2.13076e-05
2.12188e-05
2.11402e-05
2.10444e-05
2.09425e-05
2.10514e-05
2.1693e-05
2.22461e-05
2.15631e-05
2.09674e-05
2.09063e-05
2.08313e-05
2.08444e-05
2.08328e-05
2.0803e-05
2.07685e-05
2.07517e-05
2.07776e-05
2.08408e-05
2.08825e-05
2.08324e-05
2.0681e-05
2.04816e-05
2.02907e-05
2.01302e-05
1.99948e-05
1.98714e-05
1.97499e-05
1.96244e-05
1.94914e-05
1.93487e-05
1.91945e-05
1.90274e-05
1.88461e-05
1.86498e-05
1.8438e-05
1.82103e-05
1.79667e-05
1.77071e-05
1.74316e-05
1.40016e-05
1.83826e-05
1.74278e-05
1.77284e-05
1.80162e-05
1.8292e-05
1.85561e-05
1.88087e-05
1.90495e-05
1.92775e-05
1.94907e-05
1.96858e-05
1.98579e-05
2.00014e-05
2.01103e-05
2.01805e-05
2.02108e-05
2.02039e-05
2.01658e-05
2.01129e-05
2.01004e-05
2.02626e-05
2.074e-05
2.13316e-05
2.13951e-05
2.08305e-05
2.03568e-05
2.02839e-05
2.03763e-05
2.04724e-05
2.07539e-05
2.16044e-05
2.21291e-05
2.14023e-05
2.10466e-05
2.14204e-05
2.17494e-05
2.14893e-05
2.11825e-05
2.11436e-05
2.12507e-05
2.13303e-05
2.13105e-05
2.12545e-05
2.12267e-05
2.12301e-05
2.12452e-05
2.12618e-05
2.12828e-05
2.1322e-05
2.13928e-05
2.14763e-05
2.15117e-05
2.14685e-05
2.14028e-05
2.13786e-05
2.14116e-05
2.14681e-05
2.14799e-05
2.14128e-05
2.13116e-05
2.12215e-05
2.11419e-05
2.1045e-05
2.09452e-05
2.10605e-05
2.16836e-05
2.21956e-05
2.15567e-05
2.09767e-05
2.09098e-05
2.08338e-05
2.08475e-05
2.08358e-05
2.08053e-05
2.07704e-05
2.07548e-05
2.07829e-05
2.08476e-05
2.08891e-05
2.08382e-05
2.06861e-05
2.04859e-05
2.02936e-05
2.01319e-05
1.99957e-05
1.98723e-05
1.97512e-05
1.96262e-05
1.94937e-05
1.93515e-05
1.91977e-05
1.90308e-05
1.88496e-05
1.86534e-05
1.84416e-05
1.82139e-05
1.79702e-05
1.77106e-05
1.7435e-05
1.40054e-05
1.83684e-05
1.7416e-05
1.77171e-05
1.80052e-05
1.82813e-05
1.85457e-05
1.87986e-05
1.90396e-05
1.92679e-05
1.94814e-05
1.9677e-05
1.985e-05
1.99947e-05
2.01053e-05
2.01772e-05
2.02088e-05
2.02022e-05
2.01637e-05
2.0112e-05
2.01055e-05
2.02724e-05
2.07301e-05
2.12758e-05
2.13371e-05
2.0825e-05
2.0374e-05
2.0292e-05
2.03776e-05
2.04787e-05
2.07678e-05
2.15943e-05
2.20713e-05
2.14031e-05
2.10701e-05
2.14401e-05
2.17613e-05
2.14955e-05
2.11812e-05
2.11401e-05
2.12508e-05
2.13328e-05
2.1312e-05
2.12538e-05
2.12246e-05
2.12279e-05
2.12434e-05
2.12601e-05
2.12814e-05
2.13215e-05
2.1394e-05
2.14792e-05
2.1515e-05
2.14707e-05
2.14035e-05
2.1379e-05
2.14135e-05
2.14722e-05
2.14854e-05
2.14182e-05
2.13155e-05
2.12241e-05
2.11434e-05
2.10456e-05
2.09481e-05
2.10691e-05
2.16735e-05
2.21485e-05
2.15497e-05
2.09858e-05
2.09137e-05
2.08365e-05
2.08509e-05
2.08391e-05
2.08078e-05
2.07727e-05
2.07581e-05
2.07884e-05
2.08547e-05
2.08959e-05
2.08442e-05
2.06916e-05
2.04905e-05
2.02969e-05
2.01338e-05
1.9997e-05
1.98736e-05
1.97529e-05
1.96284e-05
1.94965e-05
1.93547e-05
1.92012e-05
1.90346e-05
1.88536e-05
1.86575e-05
1.84457e-05
1.8218e-05
1.79742e-05
1.77145e-05
1.7439e-05
1.40097e-05
1.83537e-05
1.74037e-05
1.77052e-05
1.79937e-05
1.82701e-05
1.85348e-05
1.8788e-05
1.90293e-05
1.92577e-05
1.94716e-05
1.96676e-05
1.98414e-05
1.99873e-05
2.00995e-05
2.01731e-05
2.02061e-05
2.01999e-05
2.01615e-05
2.01118e-05
2.01117e-05
2.02829e-05
2.07218e-05
2.1227e-05
2.12869e-05
2.08209e-05
2.03911e-05
2.03003e-05
2.03789e-05
2.04848e-05
2.07804e-05
2.15841e-05
2.20205e-05
2.14043e-05
2.10921e-05
2.1458e-05
2.17711e-05
2.15003e-05
2.11792e-05
2.11363e-05
2.12507e-05
2.13354e-05
2.13136e-05
2.12528e-05
2.12223e-05
2.12256e-05
2.12414e-05
2.12585e-05
2.12799e-05
2.1321e-05
2.13953e-05
2.14822e-05
2.15183e-05
2.1473e-05
2.14043e-05
2.13794e-05
2.14153e-05
2.14763e-05
2.14911e-05
2.14236e-05
2.13195e-05
2.12266e-05
2.11448e-05
2.10462e-05
2.09512e-05
2.1077e-05
2.16628e-05
2.21045e-05
2.15423e-05
2.09946e-05
2.09179e-05
2.08395e-05
2.08545e-05
2.08426e-05
2.08106e-05
2.07753e-05
2.07618e-05
2.07942e-05
2.08619e-05
2.09029e-05
2.08504e-05
2.06973e-05
2.04954e-05
2.03005e-05
2.01361e-05
1.99986e-05
1.98752e-05
1.97548e-05
1.9631e-05
1.94996e-05
1.93583e-05
1.92052e-05
1.90388e-05
1.8858e-05
1.86619e-05
1.84502e-05
1.82225e-05
1.79787e-05
1.7719e-05
1.74434e-05
1.40146e-05
1.83387e-05
1.73912e-05
1.7693e-05
1.79819e-05
1.82586e-05
1.85236e-05
1.8777e-05
1.90185e-05
1.92473e-05
1.94614e-05
1.96579e-05
1.98325e-05
1.99795e-05
2.00932e-05
2.01685e-05
2.02029e-05
2.01975e-05
2.01597e-05
2.01128e-05
2.01194e-05
2.02944e-05
2.07157e-05
2.11852e-05
2.12442e-05
2.08184e-05
2.04079e-05
2.03087e-05
2.038e-05
2.04905e-05
2.07915e-05
2.15742e-05
2.1976e-05
2.14059e-05
2.11127e-05
2.14739e-05
2.17786e-05
2.15036e-05
2.11765e-05
2.11323e-05
2.12507e-05
2.1338e-05
2.13151e-05
2.12518e-05
2.12199e-05
2.12231e-05
2.12394e-05
2.12567e-05
2.12784e-05
2.13205e-05
2.13966e-05
2.14853e-05
2.15218e-05
2.14753e-05
2.1405e-05
2.13797e-05
2.14171e-05
2.14806e-05
2.14968e-05
2.14291e-05
2.13234e-05
2.12291e-05
2.11461e-05
2.10468e-05
2.09544e-05
2.10842e-05
2.16517e-05
2.20635e-05
2.15346e-05
2.10032e-05
2.09225e-05
2.08427e-05
2.08582e-05
2.08463e-05
2.08137e-05
2.07781e-05
2.07657e-05
2.08002e-05
2.08692e-05
2.09101e-05
2.08569e-05
2.07033e-05
2.05006e-05
2.03044e-05
2.01387e-05
2.00005e-05
1.98771e-05
1.97572e-05
1.96339e-05
1.95031e-05
1.93623e-05
1.92095e-05
1.90434e-05
1.88628e-05
1.86668e-05
1.84551e-05
1.82274e-05
1.79837e-05
1.77239e-05
1.74483e-05
1.402e-05
1.83235e-05
1.73785e-05
1.76808e-05
1.797e-05
1.8247e-05
1.85123e-05
1.8766e-05
1.90077e-05
1.92367e-05
1.94511e-05
1.96481e-05
1.98233e-05
1.99715e-05
2.00867e-05
2.01637e-05
2.01995e-05
2.01952e-05
2.01586e-05
2.01152e-05
2.01288e-05
2.03071e-05
2.07118e-05
2.11499e-05
2.12079e-05
2.08171e-05
2.04239e-05
2.03167e-05
2.03809e-05
2.04955e-05
2.08014e-05
2.15644e-05
2.19368e-05
2.14077e-05
2.11319e-05
2.14879e-05
2.17839e-05
2.15053e-05
2.11733e-05
2.11282e-05
2.12508e-05
2.13407e-05
2.13166e-05
2.12507e-05
2.12173e-05
2.12206e-05
2.12373e-05
2.12548e-05
2.12768e-05
2.13199e-05
2.13979e-05
2.14885e-05
2.15253e-05
2.14777e-05
2.14056e-05
2.13799e-05
2.1419e-05
2.14849e-05
2.15027e-05
2.14347e-05
2.13274e-05
2.12315e-05
2.11473e-05
2.10474e-05
2.09576e-05
2.10909e-05
2.16404e-05
2.20252e-05
2.15269e-05
2.10116e-05
2.09274e-05
2.08463e-05
2.08623e-05
2.08503e-05
2.0817e-05
2.07813e-05
2.077e-05
2.08064e-05
2.08767e-05
2.09174e-05
2.08636e-05
2.07095e-05
2.05061e-05
2.03086e-05
2.01417e-05
2.00028e-05
1.98793e-05
1.97598e-05
1.96371e-05
1.9507e-05
1.93667e-05
1.92143e-05
1.90485e-05
1.8868e-05
1.86722e-05
1.84606e-05
1.82329e-05
1.79891e-05
1.77293e-05
1.74537e-05
1.4026e-05
1.83083e-05
1.73659e-05
1.76685e-05
1.79581e-05
1.82354e-05
1.8501e-05
1.87549e-05
1.89969e-05
1.92261e-05
1.94408e-05
1.96382e-05
1.98142e-05
1.99634e-05
2.008e-05
2.01587e-05
2.01961e-05
2.01931e-05
2.01583e-05
2.0119e-05
2.01396e-05
2.03209e-05
2.07102e-05
2.11203e-05
2.11771e-05
2.08166e-05
2.04389e-05
2.03242e-05
2.03814e-05
2.05e-05
2.08102e-05
2.15551e-05
2.19024e-05
2.141e-05
2.11499e-05
2.14999e-05
2.17867e-05
2.15055e-05
2.11694e-05
2.11242e-05
2.12511e-05
2.13436e-05
2.13182e-05
2.12494e-05
2.12145e-05
2.12178e-05
2.1235e-05
2.12528e-05
2.12751e-05
2.13192e-05
2.13993e-05
2.14917e-05
2.1529e-05
2.148e-05
2.14062e-05
2.13801e-05
2.14208e-05
2.14893e-05
2.15087e-05
2.14404e-05
2.13313e-05
2.12339e-05
2.11485e-05
2.1048e-05
2.09609e-05
2.10971e-05
2.1629e-05
2.19895e-05
2.15192e-05
2.10198e-05
2.09328e-05
2.08501e-05
2.08666e-05
2.08546e-05
2.08206e-05
2.07847e-05
2.07745e-05
2.08128e-05
2.08842e-05
2.09248e-05
2.08704e-05
2.07159e-05
2.05118e-05
2.03131e-05
2.0145e-05
2.00055e-05
1.9882e-05
1.97629e-05
1.96408e-05
1.95113e-05
1.93715e-05
1.92196e-05
1.9054e-05
1.88737e-05
1.8678e-05
1.84664e-05
1.82388e-05
1.7995e-05
1.77353e-05
1.74596e-05
1.40326e-05
1.82933e-05
1.73533e-05
1.76563e-05
1.79463e-05
1.82239e-05
1.84898e-05
1.8744e-05
1.89862e-05
1.92156e-05
1.94306e-05
1.96285e-05
1.98051e-05
1.99553e-05
2.00733e-05
2.01536e-05
2.01927e-05
2.01912e-05
2.01586e-05
2.0124e-05
2.01518e-05
2.03356e-05
2.07106e-05
2.10956e-05
2.11506e-05
2.0816e-05
2.04526e-05
2.03311e-05
2.03815e-05
2.05039e-05
2.08179e-05
2.15462e-05
2.18722e-05
2.14128e-05
2.11668e-05
2.151e-05
2.17872e-05
2.15039e-05
2.1165e-05
2.11202e-05
2.12516e-05
2.13467e-05
2.13198e-05
2.1248e-05
2.12116e-05
2.12149e-05
2.12326e-05
2.12507e-05
2.12734e-05
2.13185e-05
2.14007e-05
2.14951e-05
2.15327e-05
2.14824e-05
2.14067e-05
2.13802e-05
2.14226e-05
2.14938e-05
2.15148e-05
2.14461e-05
2.13353e-05
2.12362e-05
2.11496e-05
2.10486e-05
2.09643e-05
2.1103e-05
2.16178e-05
2.19562e-05
2.15117e-05
2.1028e-05
2.09385e-05
2.08543e-05
2.08712e-05
2.08591e-05
2.08246e-05
2.07885e-05
2.07793e-05
2.08194e-05
2.08919e-05
2.09322e-05
2.08773e-05
2.07225e-05
2.05178e-05
2.0318e-05
2.01487e-05
2.00085e-05
1.9885e-05
1.97663e-05
1.96449e-05
1.95159e-05
1.93767e-05
1.92252e-05
1.906e-05
1.88799e-05
1.86843e-05
1.84728e-05
1.82452e-05
1.80014e-05
1.77417e-05
1.74661e-05
1.40397e-05
1.82784e-05
1.73409e-05
1.76443e-05
1.79346e-05
1.82126e-05
1.84788e-05
1.87332e-05
1.89757e-05
1.92053e-05
1.94206e-05
1.96189e-05
1.97961e-05
1.99474e-05
2.00667e-05
2.01485e-05
2.01892e-05
2.01894e-05
2.01595e-05
2.013e-05
2.0165e-05
2.03511e-05
2.07127e-05
2.10749e-05
2.11274e-05
2.0815e-05
2.04648e-05
2.03374e-05
2.03815e-05
2.05072e-05
2.08248e-05
2.15378e-05
2.18457e-05
2.1416e-05
2.11828e-05
2.1518e-05
2.17852e-05
2.15007e-05
2.11601e-05
2.11165e-05
2.12525e-05
2.135e-05
2.13214e-05
2.12466e-05
2.12084e-05
2.12119e-05
2.12301e-05
2.12485e-05
2.12715e-05
2.13178e-05
2.14022e-05
2.14985e-05
2.15364e-05
2.14847e-05
2.14072e-05
2.13802e-05
2.14245e-05
2.14984e-05
2.15211e-05
2.1452e-05
2.13394e-05
2.12385e-05
2.11506e-05
2.10494e-05
2.09679e-05
2.11087e-05
2.16068e-05
2.19252e-05
2.15047e-05
2.10362e-05
2.09445e-05
2.0859e-05
2.08761e-05
2.08639e-05
2.08288e-05
2.07926e-05
2.07845e-05
2.08262e-05
2.08995e-05
2.09397e-05
2.08843e-05
2.07292e-05
2.0524e-05
2.03231e-05
2.01527e-05
2.00119e-05
1.98883e-05
1.97702e-05
1.96493e-05
1.95211e-05
1.93824e-05
1.92313e-05
1.90664e-05
1.88866e-05
1.86911e-05
1.84797e-05
1.82521e-05
1.80084e-05
1.77486e-05
1.7473e-05
1.40474e-05
1.82635e-05
1.73285e-05
1.76324e-05
1.79231e-05
1.82014e-05
1.84679e-05
1.87226e-05
1.89653e-05
1.91952e-05
1.94108e-05
1.96094e-05
1.97873e-05
1.99394e-05
2.006e-05
2.01433e-05
2.01857e-05
2.01878e-05
2.01608e-05
2.01368e-05
2.01789e-05
2.03671e-05
2.07162e-05
2.10573e-05
2.11065e-05
2.08133e-05
2.04754e-05
2.03432e-05
2.03814e-05
2.05102e-05
2.08309e-05
2.153e-05
2.18227e-05
2.14198e-05
2.11977e-05
2.1524e-05
2.17807e-05
2.14956e-05
2.11547e-05
2.11129e-05
2.12538e-05
2.13537e-05
2.13231e-05
2.1245e-05
2.12052e-05
2.12087e-05
2.12275e-05
2.12461e-05
2.12695e-05
2.13171e-05
2.14037e-05
2.15021e-05
2.15403e-05
2.14871e-05
2.14076e-05
2.13802e-05
2.14263e-05
2.1503e-05
2.15275e-05
2.1458e-05
2.13434e-05
2.12408e-05
2.11517e-05
2.10503e-05
2.09717e-05
2.11141e-05
2.15961e-05
2.18965e-05
2.1498e-05
2.10445e-05
2.09509e-05
2.08639e-05
2.08811e-05
2.08691e-05
2.08335e-05
2.07971e-05
2.07899e-05
2.0833e-05
2.09071e-05
2.09471e-05
2.08914e-05
2.07362e-05
2.05305e-05
2.03286e-05
2.01571e-05
2.00157e-05
1.98921e-05
1.97744e-05
1.96542e-05
1.95266e-05
1.93885e-05
1.92379e-05
1.90733e-05
1.88937e-05
1.86984e-05
1.84871e-05
1.82595e-05
1.80158e-05
1.77561e-05
1.74806e-05
1.40558e-05
1.82487e-05
1.73162e-05
1.76206e-05
1.79117e-05
1.81903e-05
1.84571e-05
1.87121e-05
1.89551e-05
1.91853e-05
1.94011e-05
1.96001e-05
1.97786e-05
1.99315e-05
2.00533e-05
2.0138e-05
2.0182e-05
2.01862e-05
2.01626e-05
2.01442e-05
2.01933e-05
2.03833e-05
2.07206e-05
2.10421e-05
2.10873e-05
2.08108e-05
2.04848e-05
2.03486e-05
2.03814e-05
2.05129e-05
2.08362e-05
2.15226e-05
2.18027e-05
2.14239e-05
2.12114e-05
2.15279e-05
2.17737e-05
2.14887e-05
2.11489e-05
2.11098e-05
2.12555e-05
2.13576e-05
2.13249e-05
2.12433e-05
2.12017e-05
2.12053e-05
2.12247e-05
2.12437e-05
2.12674e-05
2.13162e-05
2.14052e-05
2.15057e-05
2.15443e-05
2.14894e-05
2.14079e-05
2.13801e-05
2.14282e-05
2.15078e-05
2.1534e-05
2.14641e-05
2.13476e-05
2.12431e-05
2.11528e-05
2.10514e-05
2.09757e-05
2.11194e-05
2.15858e-05
2.18698e-05
2.14918e-05
2.10527e-05
2.09577e-05
2.08692e-05
2.08866e-05
2.08745e-05
2.08384e-05
2.08019e-05
2.07955e-05
2.084e-05
2.09147e-05
2.09544e-05
2.08984e-05
2.07432e-05
2.05371e-05
2.03344e-05
2.01619e-05
2.00198e-05
1.98963e-05
1.9779e-05
1.96595e-05
1.95326e-05
1.93951e-05
1.92449e-05
1.90807e-05
1.89013e-05
1.87062e-05
1.8495e-05
1.82675e-05
1.80239e-05
1.77642e-05
1.74886e-05
1.40648e-05
1.82337e-05
1.73038e-05
1.76086e-05
1.79001e-05
1.81792e-05
1.84463e-05
1.87016e-05
1.89449e-05
1.91753e-05
1.93915e-05
1.95909e-05
1.97699e-05
1.99236e-05
2.00464e-05
2.01325e-05
2.01781e-05
2.01846e-05
2.01646e-05
2.01523e-05
2.02083e-05
2.03997e-05
2.07256e-05
2.10286e-05
2.10694e-05
2.08077e-05
2.0493e-05
2.03539e-05
2.03817e-05
2.05155e-05
2.08408e-05
2.15157e-05
2.17853e-05
2.14283e-05
2.12239e-05
2.15296e-05
2.1764e-05
2.14801e-05
2.11427e-05
2.1107e-05
2.12579e-05
2.1362e-05
2.13268e-05
2.12415e-05
2.11981e-05
2.12018e-05
2.12218e-05
2.12411e-05
2.12652e-05
2.13154e-05
2.14068e-05
2.15095e-05
2.15483e-05
2.14918e-05
2.14081e-05
2.13799e-05
2.14301e-05
2.15128e-05
2.15407e-05
2.14703e-05
2.13518e-05
2.12454e-05
2.1154e-05
2.10526e-05
2.098e-05
2.11244e-05
2.15758e-05
2.1845e-05