/*--------------------------------*- C++ -*----------------------------------*\
  =========                 |
  \\      /  F ield         | OpenFOAM: The Open Source CFD Toolbox
   \\    /   O peration     | Website:  https://openfoam.org
    \\  /    A nd           | Version:  9
     \\/     M anipulation  |
\*---------------------------------------------------------------------------*/
FoamFile
{
    format      ascii;
    class       volVectorField;
    location    "0.08";
    object      U;
}
// * * * * * * * * * * * * * * * * * * * * * * * * * * * * * * * * * * * * * //

dimensions      [0 1 -1 0 0 0 0];

internalField   nonuniform List<vector> 
20000
(
(0.000126232 0 -0.00583995)
(0.000179215 0 -0.0129563)
(0.000217994 0 -0.0198356)
(0.000261756 0 -0.0268063)
(0.000313024 0 -0.0341301)
(0.000370429 0 -0.0418696)
(0.000431313 0 -0.0498541)
(0.000490215 0 -0.0575319)
(0.000540377 0 -0.0636805)
(0.000582501 0 -0.0660332)
(0.00064553 0 -0.0610529)
(0.000814009 0 -0.0443398)
(0.00122787 0 -0.0121166)
(0.00201099 0 0.0366503)
(0.00316923 0 0.0991953)
(0.00458131 0 0.170375)
(0.00611301 0 0.245549)
(0.0077342 0 0.322952)
(0.00946918 0 0.40505)
(0.0107361 0 0.497186)
(0.0120265 0 0.568821)
(0.0351547 0 0.326636)
(0.0690303 0 -1.032)
(-0.0509575 0 -1.07918)
(-0.0311221 0 0.428696)
(-0.00773461 0 0.628598)
(-0.00640507 0 0.566643)
(-0.00323694 0 0.519828)
(-0.00101974 0 0.512385)
(-0.00489309 0 0.5164)
(0.0187136 0 0.151984)
(0.000751532 0 -0.919222)
(-0.0225458 0 0.192749)
(-0.00251561 0 0.424196)
(-0.00550628 0 0.241418)
(-0.00140499 0 0.0770334)
(0.00065232 0 0.157147)
(0.000554803 0 0.237143)
(-0.000357659 0 0.237708)
(-0.000574088 0 0.206073)
(-0.000206673 0 0.182775)
(0.000136502 0 0.188389)
(0.000165974 0 0.202889)
(1.40513e-05 0 0.208796)
(-0.000123931 0 0.206435)
(-0.000200472 0 0.200555)
(-0.000259258 0 0.193388)
(-0.000345661 0 0.184309)
(-0.000450949 0 0.170059)
(-0.0004615 0 0.146578)
(-0.000268023 0 0.118121)
(3.49875e-05 0 0.10553)
(0.000235995 0 0.121316)
(0.000211184 0 0.143387)
(3.06259e-05 0 0.151968)
(-6.83207e-05 0 0.144408)
(9.62204e-05 0 0.131066)
(0.000475454 0 0.134464)
(0.000858608 0 0.165524)
(0.00108673 0 0.2055)
(0.00119869 0 0.241242)
(0.00132191 0 0.27414)
(0.00142716 0 0.309317)
(0.00102101 0 0.352368)
(-0.00257374 0 0.368331)
(0.00826026 0 0.0623282)
(0.00114701 0 -0.590004)
(-0.00752769 0 0.110798)
(0.00174535 0 0.378455)
(-0.00176309 0 0.347026)
(-0.00149866 0 0.305415)
(-0.00126848 0 0.277592)
(-0.00108159 0 0.255714)
(-0.00100428 0 0.237398)
(-0.00107139 0 0.220165)
(-0.00126017 0 0.199006)
(-0.0013527 0 0.165008)
(-0.0010213 0 0.111524)
(-0.000391208 0 0.0533776)
(2.94483e-05 0 0.0300804)
(0.000241912 0 0.0555626)
(0.000384852 0 0.0974186)
(0.000334406 0 0.126903)
(0.000134737 0 0.139396)
(-8.17136e-05 0 0.140593)
(-0.000249479 0 0.135728)
(-0.000359383 0 0.127604)
(-0.000420009 0 0.117536)
(-0.000441149 0 0.106239)
(-0.000431576 0 0.0942363)
(-0.000399551 0 0.0819895)
(-0.000353136 0 0.0699222)
(-0.000299798 0 0.0583999)
(-0.000245685 0 0.0477025)
(-0.000195088 0 0.0380052)
(-0.000150274 0 0.0293758)
(-0.00011211 0 0.021791)
(-7.91009e-05 0 0.0151608)
(-5.08232e-05 0 0.00938812)
(-4.80382e-05 0 0.00387969)
(0.000766892 0 -0.00624488)
(0.000875776 0 -0.0132496)
(0.000970754 0 -0.0201332)
(0.00109421 0 -0.0271359)
(0.00125152 0 -0.0344834)
(0.00144257 0 -0.0422322)
(0.00166829 0 -0.0502004)
(0.00192781 0 -0.0578214)
(0.00222075 0 -0.0638654)
(0.00255997 0 -0.0660926)
(0.00300219 0 -0.0610564)
(0.00369058 0 -0.0444997)
(0.00486173 0 -0.0127342)
(0.00675614 0 0.0353745)
(0.00946274 0 0.0973122)
(0.0128459 0 0.168086)
(0.0166865 0 0.242976)
(0.0209295 0 0.320069)
(0.0257859 0 0.401987)
(0.0305965 0 0.493567)
(0.0370735 0 0.55212)
(0.0794303 0 0.259198)
(0.111516 0 -0.951512)
(-0.0811532 0 -0.954155)
(-0.0654043 0 0.384278)
(-0.02167 0 0.616154)
(-0.0173427 0 0.560734)
(-0.00930476 0 0.516004)
(-0.00232333 0 0.511262)
(-0.0104421 0 0.51058)
(0.0454315 0 0.123565)
(0.000604809 0 -0.860792)
(-0.0569726 0 0.180081)
(-0.00846419 0 0.420377)
(-0.0145741 0 0.237001)
(-0.00426698 0 0.0758735)
(-0.000103571 0 0.156655)
(0.000602075 0 0.237317)
(-0.000915787 0 0.237656)
(-0.00126792 0 0.205564)
(-0.000546979 0 0.182328)
(0.00013119 0 0.188115)
(0.000241596 0 0.202723)
(-4.96552e-05 0 0.208626)
(-0.000367365 0 0.206205)
(-0.000580653 0 0.20029)
(-0.000758081 0 0.193126)
(-0.000977245 0 0.184054)
(-0.00118558 0 0.169728)
(-0.00111493 0 0.146075)
(-0.000601292 0 0.117609)
(4.62599e-05 0 0.105271)
(0.000458988 0 0.121199)
(0.000465513 0 0.14332)
(0.000174288 0 0.151818)
(9.27579e-05 0 0.144061)
(0.00056806 0 0.13066)
(0.00143454 0 0.134183)
(0.00233055 0 0.165307)
(0.00296256 0 0.20532)
(0.00332669 0 0.241026)
(0.00358827 0 0.27386)
(0.00358577 0 0.309361)
(0.00319779 0 0.353558)
(-0.00493434 0 0.365519)
(0.0220044 0 0.047448)
(0.00274421 0 -0.564968)
(-0.0198532 0 0.105202)
(0.00328999 0 0.377309)
(-0.00513307 0 0.346915)
(-0.00380386 0 0.304775)
(-0.00348154 0 0.276885)
(-0.00311701 0 0.255152)
(-0.00295555 0 0.237021)
(-0.00307397 0 0.21995)
(-0.00334181 0 0.198717)
(-0.00323942 0 0.164116)
(-0.00222796 0 0.109955)
(-0.000854364 0 0.0523636)
(-0.000205273 0 0.0302094)
(2.22231e-05 0 0.0558505)
(0.000321298 0 0.0975655)
(0.000364281 0 0.127108)
(9.63173e-05 0 0.13964)
(-0.00027228 0 0.140771)
(-0.000596884 0 0.13579)
(-0.000827768 0 0.127546)
(-0.000963366 0 0.117372)
(-0.00101568 0 0.105989)
(-0.00100148 0 0.09392)
(-0.000939005 0 0.0816293)
(-0.000846282 0 0.0695413)
(-0.00073944 0 0.05802)
(-0.000631256 0 0.047341)
(-0.000530472 0 0.0376733)
(-0.000442066 0 0.0290787)
(-0.000368175 0 0.0215306)
(-0.000306585 0 0.0149393)
(-0.00025722 0 0.00923785)
(-0.000274179 0 0.00376375)
(0.00164522 0 -0.0064529)
(0.00175111 0 -0.0135083)
(0.00187375 0 -0.0204806)
(0.00204947 0 -0.0275849)
(0.00228156 0 -0.0350308)
(0.00257246 0 -0.0428739)
(0.00292577 0 -0.0509317)
(0.00334424 0 -0.0586422)
(0.00383447 0 -0.0648044)
(0.00442303 0 -0.0672592)
(0.00519131 0 -0.0627115)
(0.006322 0 -0.047079)
(0.00810833 0 -0.0167145)
(0.0108515 0 0.0297746)
(0.0146801 0 0.0903426)
(0.019459 0 0.160288)
(0.0249175 0 0.234776)
(0.0309291 0 0.311582)
(0.03771 0 0.393216)
(0.0444648 0 0.482727)
(0.0533118 0 0.523508)
(0.102212 0 0.195374)
(0.113414 0 -0.837654)
(-0.0842872 0 -0.821085)
(-0.0790064 0 0.322277)
(-0.0261632 0 0.596083)
(-0.0229442 0 0.551861)
(-0.013295 0 0.509914)
(-0.00234932 0 0.508213)
(-0.0131791 0 0.499771)
(0.0612651 0 0.0960011)
(-0.00229858 0 -0.784999)
(-0.0803665 0 0.158803)
(-0.0133942 0 0.413575)
(-0.0220172 0 0.230791)
(-0.00694934 0 0.0713792)
(-0.00160138 0 0.15395)
(0.000286358 0 0.237741)
(-0.00142404 0 0.238562)
(-0.00181969 0 0.205458)
(-0.000895987 0 0.18178)
(-6.55004e-07 0 0.187778)
(0.000208242 0 0.202838)
(-0.000156493 0 0.208951)
(-0.000605316 0 0.206504)
(-0.00093182 0 0.200528)
(-0.00120519 0 0.193368)
(-0.00151451 0 0.184324)
(-0.00177579 0 0.169901)
(-0.00162691 0 0.145919)
(-0.000887934 0 0.117159)
(-1.67708e-05 0 0.104847)
(0.000570567 0 0.120985)
(0.000679526 0 0.143454)
(0.000388158 0 0.152043)
(0.000374928 0 0.143954)
(0.00109069 0 0.130114)
(0.00230289 0 0.133413)
(0.00360492 0 0.16457)
(0.00459936 0 0.204862)
(0.00520557 0 0.240733)
(0.00559853 0 0.273651)
(0.00544119 0 0.309955)
(0.00579038 0 0.355872)
(-0.00514592 0 0.362355)
(0.0318965 0 0.0344804)
(0.00276344 0 -0.532489)
(-0.0290777 0 0.0938863)
(0.0039175 0 0.375121)
(-0.00798088 0 0.348387)
(-0.0056713 0 0.304895)
(-0.00542717 0 0.276547)
(-0.00492367 0 0.254936)
(-0.00466563 0 0.237089)
(-0.00475074 0 0.220295)
(-0.00497085 0 0.198991)
(-0.00465765 0 0.163554)
(-0.00322581 0 0.108345)
(-0.00149596 0 0.0509563)
(-0.0007436 0 0.0295352)
(-0.000412495 0 0.0551343)
(9.54234e-05 0 0.0970512)
(0.000272551 0 0.127256)
(3.36014e-06 0 0.140275)
(-0.000437249 0 0.141529)
(-0.000845653 0 0.136454)
(-0.0011455 0 0.12804)
(-0.00132762 0 0.117686)
(-0.00140462 0 0.106137)
(-0.00139695 0 0.0939264)
(-0.00132763 0 0.081526)
(-0.00121948 0 0.069363)
(-0.00109291 0 0.0578003)
(-0.000964071 0 0.0471087)
(-0.000844222 0 0.0374502)
(-0.000740503 0 0.02888)
(-0.000656871 0 0.0213683)
(-0.000593164 0 0.0148317)
(-0.000548613 0 0.00920262)
(-0.00056694 0 0.00378803)
(0.00244995 0 -0.00665526)
(0.0025571 0 -0.0138726)
(0.00270515 0 -0.0209926)
(0.00291678 0 -0.028245)
(0.0031972 0 -0.0358421)
(0.00355285 0 -0.0438373)
(0.00398963 0 -0.0520464)
(0.00451317 0 -0.0599148)
(0.00513598 0 -0.0662749)
(0.00589604 0 -0.0690533)
(0.00689244 0 -0.0651083)
(0.00832985 0 -0.0505332)
(0.0105262 0 -0.0217342)
(0.0138112 0 0.0229088)
(0.0183335 0 0.0818157)
(0.0239493 0 0.15065)
(0.0303153 0 0.224561)
(0.0371491 0 0.30109)
(0.0445504 0 0.382542)
(0.0517657 0 0.469349)
(0.0611379 0 0.492697)
(0.109538 0 0.148113)
(0.102871 0 -0.727909)
(-0.0758585 0 -0.703672)
(-0.080513 0 0.274634)
(-0.0261219 0 0.575041)
(-0.0240989 0 0.542083)
(-0.0149126 0 0.502667)
(-0.00188188 0 0.503464)
(-0.0135864 0 0.484038)
(0.0683104 0 0.0715544)
(-0.00614735 0 -0.708913)
(-0.0936933 0 0.142248)
(-0.0183544 0 0.403163)
(-0.0279221 0 0.222405)
(-0.00894352 0 0.0652385)
(-0.00289979 0 0.150402)
(-0.000112353 0 0.237998)
(-0.00198203 0 0.23954)
(-0.00236062 0 0.205309)
(-0.00123687 0 0.181114)
(-0.00014264 0 0.187395)
(0.00013965 0 0.203015)
(-0.00029547 0 0.209405)
(-0.000848606 0 0.206939)
(-0.00126307 0 0.200891)
(-0.00160849 0 0.193722)
(-0.00198164 0 0.184678)
(-0.0022803 0 0.170087)
(-0.00207796 0 0.145674)
(-0.00116571 0 0.11656)
(-8.87571e-05 0 0.1043)
(0.000676676 0 0.12073)
(0.00088914 0 0.143615)
(0.000615248 0 0.152282)
(0.000666139 0 0.143766)
(0.00158496 0 0.129379)
(0.00310702 0 0.132421)
(0.00476669 0 0.163648)
(0.00606143 0 0.204302)
(0.00688212 0 0.240417)
(0.00744631 0 0.273496)
(0.00714531 0 0.310806)
(0.00823252 0 0.358301)
(-0.00389281 0 0.357237)
(0.0380373 0 0.0227268)
(0.0021205 0 -0.498282)
(-0.0348912 0 0.0845026)
(0.00313369 0 0.371948)
(-0.0103905 0 0.349963)
(-0.00723623 0 0.305024)
(-0.00713129 0 0.276103)
(-0.00647268 0 0.254634)
(-0.00610708 0 0.237104)
(-0.0061417 0 0.220569)
(-0.00630607 0 0.199058)
(-0.00584951 0 0.16258)
(-0.00416537 0 0.106264)
(-0.00219987 0 0.0491826)
(-0.00126155 0 0.0286264)
(-0.00074312 0 0.0543011)
(-8.46555e-05 0 0.0964698)
(0.000159358 0 0.127384)
(-0.00012093 0 0.140957)
(-0.000606219 0 0.142373)
(-0.00106578 0 0.137202)
(-0.00140742 0 0.12859)
(-0.00161694 0 0.118019)
(-0.00170786 0 0.106266)
(-0.00170326 0 0.0938841)
(-0.0016292 0 0.0813515)
(-0.00151145 0 0.0690998)
(-0.00137298 0 0.05749)
(-0.00123202 0 0.0467871)
(-0.00110134 0 0.037145)
(-0.000989162 0 0.0286115)
(-0.000900646 0 0.0211528)
(-0.000835842 0 0.0146855)
(-0.000791624 0 0.00913754)
(-0.000795427 0 0.00377755)
(0.00308547 0 -0.00685412)
(0.00319259 0 -0.0142692)
(0.00335173 0 -0.0215641)
(0.0035807 0 -0.0289878)
(0.00388605 0 -0.0367615)
(0.00427625 0 -0.0449362)
(0.00475873 0 -0.0533245)
(0.00534164 0 -0.06138)
(0.00604221 0 -0.0679714)
(0.00690595 0 -0.071111)
(0.0080407 0 -0.0678042)
(0.0096556 0 -0.0543093)
(0.0120661 0 -0.0270874)
(0.0156029 0 0.0156837)
(0.020426 0 0.0728643)
(0.0263946 0 0.140523)
(0.0331117 0 0.213903)
(0.0401408 0 0.290413)
(0.0474802 0 0.372003)
(0.0547775 0 0.455881)
(0.0645093 0 0.464334)
(0.107057 0 0.119958)
(0.0879203 0 -0.626319)
(-0.0637532 0 -0.600437)
(-0.0758502 0 0.242343)
(-0.0251242 0 0.554782)
(-0.0226963 0 0.532948)
(-0.0148327 0 0.495645)
(-0.00114866 0 0.497748)
(-0.0116442 0 0.466276)
(0.0687499 0 0.0532277)
(-0.00985843 0 -0.635265)
(-0.0988589 0 0.131012)
(-0.0233018 0 0.390365)
(-0.0321056 0 0.212919)
(-0.0103134 0 0.0585343)
(-0.00393618 0 0.146412)
(-0.000509173 0 0.237884)
(-0.0025172 0 0.240293)
(-0.00285314 0 0.205024)
(-0.00156057 0 0.180327)
(-0.000293155 0 0.186907)
(4.12651e-05 0 0.2031)
(-0.000453404 0 0.209793)
(-0.00108937 0 0.207322)
(-0.00157445 0 0.2012)
(-0.00197595 0 0.194013)
(-0.00239336 0 0.184948)
(-0.0027144 0 0.170152)
(-0.00247589 0 0.145287)
(-0.00143564 0 0.115828)
(-0.00017034 0 0.103633)
(0.000773086 0 0.120358)
(0.00108685 0 0.143645)
(0.000846531 0 0.152378)
(0.000957521 0 0.143419)
(0.00204225 0 0.128478)
(0.00384027 0 0.13125)
(0.00581764 0 0.162536)
(0.00736253 0 0.203549)
(0.00837066 0 0.239927)
(0.00913059 0 0.273169)
(0.00867995 0 0.311453)
(0.0104433 0 0.359984)
(-0.00132754 0 0.35099)
(0.0411582 0 0.0137259)
(0.00118898 0 -0.463614)
(-0.0379325 0 0.0771967)
(0.00115992 0 0.367753)
(-0.0123276 0 0.351029)
(-0.00849421 0 0.304938)
(-0.00857233 0 0.275462)
(-0.00775985 0 0.254162)
(-0.00730158 0 0.236958)
(-0.00728453 0 0.220653)
(-0.00737585 0 0.198865)
(-0.00679599 0 0.161321)
(-0.00496578 0 0.104018)
(-0.002869 0 0.0473325)
(-0.00174671 0 0.0276366)
(-0.00103764 0 0.0534138)
(-0.000277522 0 0.0958103)
(1.88553e-05 0 0.127397)
(-0.000240756 0 0.141538)
(-0.000737572 0 0.143147)
(-0.0012228 0 0.137899)
(-0.00158929 0 0.129097)
(-0.00181613 0 0.118311)
(-0.00191626 0 0.106357)
(-0.00191439 0 0.0938044)
(-0.0018387 0 0.081143)
(-0.00171692 0 0.068807)
(-0.00157355 0 0.0571556)
(-0.00142791 0 0.0464472)
(-0.00129354 0 0.0368276)
(-0.00117904 0 0.0283368)
(-0.00108967 0 0.0209359)
(-0.00102544 0 0.014537)
(-0.000980518 0 0.00905702)
(-0.000975036 0 0.00375076)
(0.00348048 0 -0.00704776)
(0.00358593 0 -0.0146671)
(0.00374549 0 -0.0221508)
(0.00397952 0 -0.0297591)
(0.00429423 0 -0.0377218)
(0.00469825 0 -0.0460882)
(0.0051996 0 -0.0546683)
(0.00580772 0 -0.0629267)
(0.00654232 0 -0.069771)
(0.00745218 0 -0.0733)
(0.00864692 0 -0.0706592)
(0.0103312 0 -0.0582583)
(0.0128071 0 -0.0326049)
(0.0163937 0 0.00831587)
(0.0212561 0 0.0637948)
(0.0272653 0 0.130339)
(0.0340008 0 0.203371)
(0.0409109 0 0.280203)
(0.0478878 0 0.362187)
(0.0550358 0 0.44298)
(0.0649335 0 0.439413)
(0.0994251 0 0.105793)
(0.0731811 0 -0.534676)
(-0.0524027 0 -0.510846)
(-0.0683384 0 0.219656)
(-0.0232809 0 0.535206)
(-0.019799 0 0.524759)
(-0.0136657 0 0.489536)
(-0.000292327 0 0.491776)
(-0.00861554 0 0.448565)
(0.065045 0 0.0401857)
(-0.0127306 0 -0.565574)
(-0.0984407 0 0.123587)
(-0.0273991 0 0.376779)
(-0.0345799 0 0.202789)
(-0.0111856 0 0.0513501)
(-0.00478775 0 0.142113)
(-0.000833374 0 0.237589)
(-0.00296884 0 0.240948)
(-0.00326209 0 0.204653)
(-0.00185741 0 0.179428)
(-0.000453459 0 0.186329)
(-7.96368e-05 0 0.20314)
(-0.000620811 0 0.210164)
(-0.00132325 0 0.207693)
(-0.00186769 0 0.201492)
(-0.00231508 0 0.194277)
(-0.00276355 0 0.185177)
(-0.00309365 0 0.170156)
(-0.00282433 0 0.144817)
(-0.00168718 0 0.114993)
(-0.000262306 0 0.102849)
(0.000845003 0 0.119878)
(0.00126227 0 0.143583)
(0.00107473 0 0.152383)
(0.00124977 0 0.142966)
(0.00247093 0 0.127442)
(0.00450141 0 0.12991)
(0.0067546 0 0.16125)
(0.00851555 0 0.202637)
(0.00968225 0 0.239303)
(0.010649 0 0.272708)
(0.0100514 0 0.311887)
(0.0124281 0 0.360955)
(0.00184867 0 0.344467)
(0.0423601 0 0.00733581)
(0.000383988 0 -0.429258)
(-0.0391616 0 0.0715032)
(-0.0011991 0 0.363026)
(-0.0137854 0 0.351643)
(-0.00947675 0 0.304706)
(-0.00974476 0 0.2747)
(-0.00878568 0 0.253577)
(-0.00826197 0 0.236704)
(-0.0081963 0 0.22062)
(-0.00820204 0 0.198521)
(-0.00750619 0 0.159916)
(-0.0055905 0 0.101695)
(-0.00343842 0 0.0453755)
(-0.0021824 0 0.0264574)
(-0.00131847 0 0.0523809)
(-0.000474733 0 0.0950539)
(-0.000118815 0 0.127335)
(-0.000334581 0 0.142074)
(-0.000818211 0 0.143906)
(-0.00130915 0 0.138597)
(-0.00168673 0 0.129607)
(-0.00192293 0 0.118602)
(-0.00202907 0 0.106442)
(-0.00203037 0 0.0937179)
(-0.00195608 0 0.0809269)
(-0.00183489 0 0.0685071)
(-0.00169191 0 0.0568153)
(-0.00154688 0 0.0461034)
(-0.00141357 0 0.0365087)
(-0.00130068 0 0.0280634)
(-0.00121314 0 0.0207216)
(-0.00115061 0 0.0143877)
(-0.00110629 0 0.00896898)
(-0.00109669 0 0.0037166)
(0.003578 0 -0.00723565)
(0.00368223 0 -0.0150578)
(0.00383817 0 -0.0227357)
(0.00407084 0 -0.0305357)
(0.00438528 0 -0.0386931)
(0.0047893 0 -0.0472561)
(0.00529066 0 -0.0560338)
(0.00589905 0 -0.0645035)
(0.00663473 0 -0.0716134)
(0.00754673 0 -0.0755468)
(0.00874228 0 -0.0735809)
(0.0104177 0 -0.0622646)
(0.0128598 0 -0.0381466)
(0.0163742 0 0.00096796)
(0.0211293 0 0.0547851)
(0.0270114 0 0.120274)
(0.0335932 0 0.1931)
(0.0402392 0 0.270504)
(0.0467331 0 0.353024)
(0.0535422 0 0.430786)
(0.0632591 0 0.418112)
(0.0899562 0 0.100977)
(0.0610234 0 -0.454276)
(-0.042525 0 -0.435339)
(-0.0593585 0 0.202565)
(-0.0201649 0 0.516619)
(-0.0159884 0 0.517593)
(-0.0118011 0 0.484523)
(0.000532255 0 0.485945)
(-0.00568211 0 0.431876)
(0.0594003 0 0.0315348)
(-0.0146595 0 -0.501663)
(-0.0947894 0 0.119005)
(-0.0302209 0 0.363408)
(-0.0356128 0 0.192311)
(-0.011617 0 0.0437251)
(-0.00541558 0 0.137601)
(-0.00101532 0 0.237254)
(-0.00331724 0 0.241636)
(-0.00358538 0 0.204269)
(-0.00211873 0 0.178451)
(-0.000609573 0 0.185697)
(-0.000206343 0 0.203187)
(-0.000788507 0 0.210578)
(-0.00154979 0 0.208111)
(-0.00214613 0 0.201822)
(-0.00263204 0 0.194571)
(-0.00310413 0 0.185425)
(-0.00343637 0 0.170159)
(-0.00313693 0 0.144315)
(-0.0019187 0 0.114084)
(-0.000358426 0 0.101961)
(0.000895293 0 0.119313)
(0.00141492 0 0.143472)
(0.0012893 0 0.152355)
(0.00153004 0 0.142458)
(0.00286873 0 0.126295)
(0.00509437 0 0.128413)
(0.00758591 0 0.159811)
(0.00953932 0 0.201604)
(0.0108331 0 0.238597)
(0.0120072 0 0.272188)
(0.0112766 0 0.312184)
(0.0141382 0 0.361415)
(0.00493829 0 0.33805)
(0.0424162 0 0.00336606)
(-8.42202e-05 0 -0.396081)
(-0.0391897 0 0.0673132)
(-0.0033433 0 0.358114)
(-0.0147882 0 0.351961)
(-0.0102211 0 0.304422)
(-0.0106543 0 0.273905)
(-0.00955758 0 0.252947)
(-0.00899518 0 0.236406)
(-0.00888918 0 0.220537)
(-0.00881699 0 0.198098)
(-0.00802255 0 0.15843)
(-0.00605273 0 0.0993246)
(-0.00387868 0 0.0433096)
(-0.00252582 0 0.0250743)
(-0.00153975 0 0.05118)
(-0.00062298 0 0.0941921)
(-0.000208619 0 0.127207)
(-0.000378512 0 0.142583)
(-0.000842122 0 0.144673)
(-0.00133027 0 0.139319)
(-0.0017112 0 0.130143)
(-0.00195108 0 0.118914)
(-0.00205979 0 0.106543)
(-0.00206275 0 0.0936414)
(-0.00198976 0 0.0807175)
(-0.00186992 0 0.068212)
(-0.00172854 0 0.0564791)
(-0.00158537 0 0.0457636)
(-0.00145426 0 0.0361946)
(-0.00134383 0 0.0277956)
(-0.00125867 0 0.0205125)
(-0.00119811 0 0.0142411)
(-0.00115516 0 0.00887994)
(-0.00114389 0 0.00368113)
(0.00334199 0 -0.00742048)
(0.00344676 0 -0.0154409)
(0.00359834 0 -0.0233115)
(0.00382669 0 -0.031303)
(0.00413527 0 -0.0396536)
(0.00453072 0 -0.0484103)
(0.00502018 0 -0.0573829)
(0.00561295 0 -0.0660618)
(0.00632885 0 -0.073435)
(0.00721538 0 -0.0777665)
(0.00837489 0 -0.0764564)
(0.00999291 0 -0.0661824)
(0.0123401 0 -0.0435353)
(0.0157088 0 -0.00616024)
(0.0202707 0 0.0460382)
(0.0259326 0 0.110498)
(0.0322802 0 0.183184)
(0.0386326 0 0.261285)
(0.044681 0 0.344401)
(0.0511675 0 0.419385)
(0.0605593 0 0.400259)
(0.0808467 0 0.102057)
(0.0523724 0 -0.384989)
(-0.0334326 0 -0.372366)
(-0.0498765 0 0.189426)
(-0.0162617 0 0.499634)
(-0.0118667 0 0.511621)
(-0.00956981 0 0.480641)
(0.00124699 0 0.480488)
(-0.00320112 0 0.416615)
(0.0534198 0 0.0264443)
(-0.015855 0 -0.444085)
(-0.0896836 0 0.116698)
(-0.0319617 0 0.350624)
(-0.0355618 0 0.181723)
(-0.0116421 0 0.0358922)
(-0.00575215 0 0.133015)
(-0.00103154 0 0.236922)
(-0.00356411 0 0.242386)
(-0.00382968 0 0.203902)
(-0.00233776 0 0.177426)
(-0.000744842 0 0.185034)
(-0.000324651 0 0.203256)
(-0.000950571 0 0.211044)
(-0.00176895 0 0.208585)
(-0.0024128 0 0.202199)
(-0.00293223 0 0.194902)
(-0.00342449 0 0.185699)
(-0.00375722 0 0.170169)
(-0.0034287 0 0.143792)
(-0.00213582 0 0.113114)
(-0.000453124 0 0.100985)
(0.000932478 0 0.118675)
(0.00154669 0 0.143319)
(0.00148079 0 0.1523)
(0.00178342 0 0.141904)
(0.00322794 0 0.125055)
(0.00562406 0 0.126779)
(0.00832355 0 0.158239)
(0.0104499 0 0.200468)
(0.0118397 0 0.237826)
(0.0132072 0 0.271639)
(0.0123583 0 0.312376)
(0.0155446 0 0.361491)
(0.00764667 0 0.331869)
(0.0417505 0 0.0014901)
(-0.000213936 0 -0.364492)
(-0.0383553 0 0.0646178)
(-0.0051259 0 0.353185)
(-0.0153896 0 0.352058)
(-0.0107429 0 0.304117)
(-0.0113062 0 0.273108)
(-0.0100894 0 0.252293)
(-0.00951146 0 0.236084)
(-0.00937608 0 0.220417)
(-0.00924356 0 0.19761)
(-0.00837175 0 0.156881)
(-0.00636434 0 0.0969269)
(-0.00417656 0 0.041174)
(-0.00274479 0 0.0235486)
(-0.00166285 0 0.0498562)
(-0.00068937 0 0.0932419)
(-0.000226615 0 0.12701)
(-0.000356367 0 0.143052)
(-0.000800281 0 0.14543)
(-0.0012833 0 0.140049)
(-0.00166446 0 0.130691)
(-0.00190507 0 0.119237)
(-0.00201379 0 0.106652)
(-0.00201631 0 0.0935712)
(-0.00194296 0 0.0805135)
(-0.00182319 0 0.0679224)
(-0.0016824 0 0.0561486)
(-0.00154033 0 0.0454303)
(-0.00141076 0 0.0358876)
(-0.0013022 0 0.0275353)
(-0.00121889 0 0.0203101)
(-0.00115992 0 0.0140992)
(-0.00111836 0 0.00879308)
(-0.00110609 0 0.00364629)
(0.00275404 0 -0.00760579)
(0.00286144 0 -0.0158196)
(0.00300938 0 -0.0238767)
(0.00323302 0 -0.0320528)
(0.00353373 0 -0.0405886)
(0.00391693 0 -0.0495298)
(0.00438904 0 -0.0586871)
(0.00495862 0 -0.0675641)
(0.00564433 0 -0.075187)
(0.00649096 0 -0.0798951)
(0.00759438 0 -0.0792028)
(0.00912756 0 -0.0699084)
(0.0113443 0 -0.0486479)
(0.0145242 0 -0.0129303)
(0.0188439 0 0.0376975)
(0.0242339 0 0.101138)
(0.0303091 0 0.173694)
(0.0363903 0 0.252511)
(0.0421098 0 0.336175)
(0.048408 0 0.408637)
(0.0575974 0 0.385142)
(0.0732101 0 0.106285)
(0.0470851 0 -0.325637)
(-0.0248039 0 -0.319194)
(-0.0408845 0 0.179652)
(-0.0124735 0 0.484572)
(-0.00802021 0 0.506857)
(-0.00730643 0 0.477844)
(0.00182316 0 0.475508)
(-0.00108218 0 0.402836)
(0.0479332 0 0.0241456)
(-0.0165727 0 -0.392334)
(-0.0842023 0 0.11614)
(-0.0329216 0 0.338469)
(-0.0347043 0 0.171189)
(-0.0113201 0 0.0280981)
(-0.00580104 0 0.128485)
(-0.00090579 0 0.236615)
(-0.00371913 0 0.243198)
(-0.00400006 0 0.203556)
(-0.00251081 0 0.176369)
(-0.000851035 0 0.184349)
(-0.000428866 0 0.203339)
(-0.00110481 0 0.211548)
(-0.00198121 0 0.209096)
(-0.00267062 0 0.202606)
(-0.00322106 0 0.195255)
(-0.00373262 0 0.185983)
(-0.00406637 0 0.170172)
(-0.00370923 0 0.143239)
(-0.00234307 0 0.112084)
(-0.000544791 0 0.0999278)
(0.000959541 0 0.117969)
(0.00165649 0 0.143119)
(0.00164316 0 0.152207)
(0.00200216 0 0.141299)
(0.0035452 0 0.123728)
(0.00609515 0 0.125027)
(0.00897641 0 0.156553)
(0.0112572 0 0.19924)
(0.0127143 0 0.236991)
(0.0142485 0 0.271061)
(0.013295 0 0.31247)
(0.0166619 0 0.361253)
(0.00995484 0 0.325978)
(0.0406378 0 0.00128323)
(-0.000106897 0 -0.334643)
(-0.0369366 0 0.0632783)
(-0.00660617 0 0.348342)
(-0.0156551 0 0.351955)
(-0.0110522 0 0.303787)
(-0.0117075 0 0.272308)
(-0.0103966 0 0.251617)
(-0.00982286 0 0.235737)
(-0.00966908 0 0.22026)
(-0.009493 0 0.197058)
(-0.00855984 0 0.155274)
(-0.00652274 0 0.0945099)
(-0.00432211 0 0.0389942)
(-0.00282536 0 0.0219294)
(-0.00167351 0 0.0484544)
(-0.000663758 0 0.0922302)
(-0.000165507 0 0.126751)
(-0.000261151 0 0.143472)
(-0.000685899 0 0.146161)
(-0.00116224 0 0.140769)
(-0.00154176 0 0.131235)
(-0.00178124 0 0.119557)
(-0.00188813 0 0.106758)
(-0.00188842 0 0.0934978)
(-0.00181302 0 0.0803075)
(-0.00169175 0 0.0676323)
(-0.00155015 0 0.0558193)
(-0.00140794 0 0.0450996)
(-0.00127881 0 0.0355844)
(-0.00117107 0 0.0272794)
(-0.00108864 0 0.0201118)
(-0.00103045 0 0.01396)
(-0.000989735 0 0.00870763)
(-0.000976431 0 0.00361187)
(0.00180943 0 -0.00779408)
(0.00192098 0 -0.0161976)
(0.00206624 0 -0.0244333)
(0.00228594 0 -0.0327842)
(0.00257878 0 -0.041494)
(0.00294875 0 -0.0506071)
(0.00340154 0 -0.0599355)
(0.00394478 0 -0.0689956)
(0.00459555 0 -0.0768493)
(0.00539526 0 -0.0819062)
(0.00643244 0 -0.0817862)
(0.00786686 0 -0.0734009)
(0.00993469 0 -0.0534348)
(0.0129029 0 -0.0192843)
(0.016954 0 0.0298262)
(0.0220443 0 0.0922481)
(0.0278251 0 0.164646)
(0.0336517 0 0.244124)
(0.0391368 0 0.328196)
(0.0453389 0 0.398283)
(0.0544843 0 0.371849)
(0.0670786 0 0.111536)
(0.0441827 0 -0.27482)
(-0.0169111 0 -0.273182)
(-0.0331098 0 0.173084)
(-0.00946359 0 0.47141)
(-0.00485443 0 0.503074)
(-0.00527041 0 0.475975)
(0.00218448 0 0.470928)
(0.000690329 0 0.390493)
(0.0430931 0 0.024051)
(-0.0169859 0 -0.345597)
(-0.0787537 0 0.116869)
(-0.0332058 0 0.326874)
(-0.033206 0 0.160809)
(-0.0107261 0 0.0204947)
(-0.00561986 0 0.124104)
(-0.000680504 0 0.236374)
(-0.0037989 0 0.244087)
(-0.00410597 0 0.203236)
(-0.00264013 0 0.175288)
(-0.000928064 0 0.183649)
(-0.000518956 0 0.203438)
(-0.00125176 0 0.212084)
(-0.00218845 0 0.209638)
(-0.00292321 0 0.203034)
(-0.00350406 0 0.195619)
(-0.0040357 0 0.18627)
(-0.00437145 0 0.170162)
(-0.00398445 0 0.142648)
(-0.00254348 0 0.110993)
(-0.000635011 0 0.0987955)
(0.000974877 0 0.1172)
(0.00174177 0 0.142874)
(0.00177281 0 0.152074)
(0.00218355 0 0.140641)
(0.00382064 0 0.12232)
(0.00651136 0 0.123171)
(0.00955048 0 0.154768)
(0.0119683 0 0.197933)
(0.0134685 0 0.236102)
(0.0151362 0 0.270463)
(0.014093 0 0.312485)
(0.0175188 0 0.360774)
(0.0118949 0 0.320431)
(0.039277 0 0.00238196)
(0.000117248 0 -0.306573)
(-0.0351855 0 0.0631103)
(-0.0078342 0 0.343675)
(-0.0156433 0 0.351665)
(-0.0111637 0 0.303429)
(-0.0118709 0 0.271508)
(-0.0104937 0 0.250924)
(-0.00993921 0 0.235375)
(-0.00977739 0 0.220077)
(-0.00957191 0 0.196454)
(-0.00858861 0 0.15362)
(-0.00652569 0 0.0920745)
(-0.00431348 0 0.0367767)
(-0.00276648 0 0.0202408)
(-0.00156819 0 0.0470027)
(-0.000540491 0 0.091181)
(-1.89719e-05 0 0.126448)
(-8.66617e-05 0 0.143853)
(-0.000493347 0 0.146869)
(-0.000962018 0 0.141477)
(-0.00133844 0 0.131772)
(-0.0015753 0 0.11987)
(-0.00167884 0 0.106856)
(-0.00167538 0 0.093417)
(-0.00159646 0 0.080095)
(-0.0014723 0 0.0673371)
(-0.00132861 0 0.0554867)
(-0.0011851 0 0.0447672)
(-0.00105535 0 0.035281)
(-0.000947448 0 0.027024)
(-0.000864995 0 0.0199143)
(-0.000806826 0 0.0138211)
(-0.000766371 0 0.00862199)
(-0.000752024 0 0.00357728)
(0.000508842 0 -0.00798785)
(0.000625919 0 -0.016579)
(0.000770043 0 -0.0249853)
(0.000987835 0 -0.0335)
(0.00127354 0 -0.0423708)
(0.00163026 0 -0.0516416)
(0.00206285 0 -0.0611258)
(0.0025779 0 -0.0703519)
(0.0031907 0 -0.0784154)
(0.00393892 0 -0.0837903)
(0.00490351 0 -0.0841941)
(0.00623121 0 -0.0766445)
(0.00814092 0 -0.0578781)
(0.010886 0 -0.0252008)
(0.0146528 0 0.0224502)
(0.0194236 0 0.0838531)
(0.0248859 0 0.156042)
(0.030441 0 0.236084)
(0.0357147 0 0.320387)
(0.0418207 0 0.388141)
(0.0509737 0 0.359589)
(0.0618487 0 0.116379)
(0.042345 0 -0.231288)
(-0.0102827 0 -0.232404)
(-0.0268849 0 0.169566)
(-0.00747449 0 0.459943)
(-0.00254991 0 0.499929)
(-0.00367549 0 0.474805)
(0.00233205 0 0.466678)
(0.00210941 0 0.379449)
(0.0386628 0 0.0256966)
(-0.0171661 0 -0.303245)
(-0.0733249 0 0.118451)
(-0.0327697 0 0.315763)
(-0.0311679 0 0.150684)
(-0.0099313 0 0.0131922)
(-0.00527546 0 0.119934)
(-0.000398034 0 0.236237)
(-0.00382442 0 0.245073)
(-0.00416426 0 0.202951)
(-0.00273509 0 0.174192)
(-0.000981304 0 0.182942)
(-0.000597568 0 0.20356)
(-0.00139339 0 0.212657)
(-0.0023936 0 0.210213)
(-0.00317464 0 0.203484)
(-0.00378635 0 0.195998)
(-0.00433949 0 0.186562)
(-0.00467816 0 0.170139)
(-0.00425942 0 0.142021)
(-0.00274189 0 0.109841)
(-0.000728385 0 0.097593)
(0.00097553 0 0.116376)
(0.00180101 0 0.142592)
(0.00186851 0 0.15191)
(0.0023265 0 0.139936)
(0.0040535 0 0.120836)
(0.00687382 0 0.121221)
(0.01005 0 0.152896)
(0.0125896 0 0.196562)
(0.014114 0 0.235172)
(0.0158802 0 0.269861)
(0.014764 0 0.312453)
(0.0181476 0 0.360125)
(0.0135028 0 0.315265)
(0.0378096 0 0.00452411)
(0.000376315 0 -0.280223)
(-0.0332904 0 0.0639202)
(-0.00880429 0 0.339229)
(-0.0153907 0 0.351202)
(-0.0110894 0 0.30305)
(-0.0118108 0 0.270715)
(-0.0103928 0 0.250226)
(-0.00986769 0 0.235012)
(-0.00970684 0 0.219883)
(-0.0094838 0 0.195814)
(-0.00846011 0 0.151928)
(-0.00637751 0 0.089623)
(-0.0041599 0 0.0345276)
(-0.00257703 0 0.0185003)
(-0.00134867 0 0.0455203)
(-0.000314405 0 0.0901112)
(0.00022159 0 0.126114)
(0.000176103 0 0.144203)
(-0.000214739 0 0.147557)
(-0.000676053 0 0.142176)
(-0.00104896 0 0.132303)
(-0.00128248 0 0.120177)
(-0.00138181 0 0.106945)
(-0.00137367 0 0.0933272)
(-0.0012903 0 0.079874)
(-0.00116238 0 0.0670348)
(-0.00101583 0 0.0551486)
(-0.000870362 0 0.044431)
(-0.000739402 0 0.0349752)
(-0.000630798 0 0.0267672)
(-0.000547871 0 0.0197154)
(-0.000489374 0 0.0136811)
(-0.000448892 0 0.00853542)
(-0.000433765 0 0.00354228)
(-0.00113349 0 -0.00819093)
(-0.00100832 0 -0.0169695)
(-0.000863886 0 -0.0255379)
(-0.000647872 0 -0.0342037)
(-0.000368893 0 -0.0432205)
(-2.56378e-05 0 -0.0526324)
(0.000385664 0 -0.062255)
(0.000870422 0 -0.0716281)
(0.001442 0 -0.0798778)
(0.00213425 0 -0.0855377)
(0.00302052 0 -0.0864147)
(0.00423479 0 -0.0796263)
(0.00597919 0 -0.0619639)
(0.00849286 0 -0.0306631)
(0.0119626 0 0.0155935)
(0.0163925 0 0.0759849)
(0.0215034 0 0.147917)
(0.0267425 0 0.22842)
(0.0317704 0 0.312783)
(0.0377276 0 0.378172)
(0.0468533 0 0.347847)
(0.0568448 0 0.120074)
(0.0404379 0 -0.193925)
(-0.00536855 0 -0.195694)
(-0.0222396 0 0.168692)
(-0.00641869 0 0.449884)
(-0.00106299 0 0.497103)
(-0.00254002 0 0.474089)
(0.00227791 0 0.462806)
(0.00314422 0 0.36948)
(0.0344876 0 0.0286379)
(-0.0170885 0 -0.264926)
(-0.0677869 0 0.120475)
(-0.0315851 0 0.305107)
(-0.0286853 0 0.140952)
(-0.00899515 0 0.00630797)
(-0.00482627 0 0.116028)
(-0.000100736 0 0.236226)
(-0.00382044 0 0.246165)
(-0.00419733 0 0.202706)
(-0.00280996 0 0.173088)
(-0.00101932 0 0.182237)
(-0.000669284 0 0.203713)
(-0.00153282 0 0.213275)
(-0.00260007 0 0.210826)
(-0.00342887 0 0.20396)
(-0.00407223 0 0.196395)
(-0.00464811 0 0.186863)
(-0.00499044 0 0.170106)
(-0.0045391 0 0.141357)
(-0.00294534 0 0.108629)
(-0.000831262 0 0.0963255)
(0.000958774 0 0.115506)
(0.00183413 0 0.142281)
(0.00193079 0 0.151719)
(0.00243033 0 0.139187)
(0.00424116 0 0.119281)
(0.00718156 0 0.119185)
(0.0104784 0 0.150949)
(0.0131266 0 0.195138)
(0.0146617 0 0.234215)
(0.0164919 0 0.26927)
(0.0153215 0 0.312403)
(0.0185907 0 0.35936)
(0.0148457 0 0.310477)
(0.0363407 0 0.00749948)
(0.000658468 0 -0.255494)
(-0.0313498 0 0.0655138)
(-0.00949439 0 0.335005)
(-0.0149153 0 0.350588)
(-0.0108336 0 0.302654)
(-0.0115396 0 0.269934)
(-0.0101038 0 0.249534)
(-0.00961363 0 0.234661)
(-0.00946028 0 0.21969)
(-0.00922853 0 0.195149)
(-0.00817504 0 0.15021)
(-0.00608546 0 0.087165)
(-0.00387527 0 0.0322601)