/*--------------------------------*- C++ -*----------------------------------*\
  =========                 |
  \\      /  F ield         | OpenFOAM: The Open Source CFD Toolbox
   \\    /   O peration     | Website:  https://openfoam.org
    \\  /    A nd           | Version:  9
     \\/     M anipulation  |
\*---------------------------------------------------------------------------*/
FoamFile
{
    format      ascii;
    class       surfaceVectorField;
    location    "0.08";
    object      Uf;
}
// * * * * * * * * * * * * * * * * * * * * * * * * * * * * * * * * * * * * * //

dimensions      [0 1 -1 0 0 0 0];

internalField   nonuniform List<vector> 
39700
(
(0.00015925 0 -0.00931312)
(0.000446562 0 -0.00603925)
(0.000198545 0 -0.0163138)
(0.000527496 0 -0.0130973)
(0.000238807 0 -0.0232377)
(0.000594374 0 -0.0199761)
(0.000286077 0 -0.0303807)
(0.000677984 0 -0.0269595)
(0.00034016 0 -0.0379074)
(0.000782274 0 -0.0342906)
(0.000399395 0 -0.0457665)
(0.0009065 0 -0.0420277)
(0.00045987 0 -0.0536013)
(0.0010498 0 -0.0499938)
(0.000515244 0 -0.0605327)
(0.00120901 0 -0.0576291)
(0.000561012 0 -0.0648287)
(0.00138056 0 -0.063709)
(0.000608446 0 -0.0636025)
(0.00157124 0 -0.0659877)
(0.000710155 0 -0.0528961)
(0.00182386 0 -0.060989)
(0.000979263 0 -0.0286132)
(0.0022523 0 -0.0444022)
(0.00155892 0 0.0116842)
(0.0030448 0 -0.0124922)
(0.00252843 0 0.0671755)
(0.00438357 0 0.035862)
(0.00382896 0 0.133935)
(0.00631598 0 0.0980693)
(0.00531344 0 0.207064)
(0.00871362 0 0.16908)
(0.006885 0 0.283326)
(0.0113998 0 0.244176)
(0.0085499 0 0.36302)
(0.0143319 0 0.321472)
(0.0102213 0 0.450017)
(0.0176275 0 0.403545)
(0.0116287 0 0.532147)
(0.0206663 0 0.495751)
(0.0182142 0 0.450622)
(0.02455 0 0.560848)
(0.0646468 0 -0.336446)
(0.0572925 0 0.281199)
(0.0163293 0 -1.05502)
(0.0902732 0 -0.984906)
(-0.0594158 0 -0.343257)
(-0.0660554 0 -1.00313)
(-0.0151214 0 0.526259)
(-0.0482632 0 0.394995)
(-0.0078233 0 0.598361)
(-0.0147023 0 0.622608)
(-0.00458895 0 0.543795)
(-0.0118739 0 0.563904)
(-0.00209252 0 0.516196)
(-0.00627085 0 0.517844)
(-0.00176174 0 0.514345)
(-0.00167154 0 0.511993)
(-0.000172202 0 0.352529)
(-0.00766761 0 0.514275)
(0.0282475 0 -0.383619)
(0.0320726 0 0.134525)
(-0.0282412 0 -0.363236)
(0.00067817 0 -0.884645)
(-0.00769416 0 0.308473)
(-0.0397592 0 0.183224)
(-0.00610058 0 0.332807)
(-0.0054899 0 0.422905)
(-0.00284419 0 0.159226)
(-0.0100402 0 0.239216)
(-0.000195644 0 0.11709)
(-0.00283598 0 0.0760568)
(0.000813058 0 0.197145)
(0.000274374 0 0.156882)
(3.25581e-05 0 0.237426)
(0.000578439 0 0.237455)
(-0.000567354 0 0.221891)
(-0.000636723 0 0.23781)
(-0.000413952 0 0.194424)
(-0.000921005 0 0.205831)
(-4.74719e-06 0 0.185582)
(-0.000376826 0 0.182511)
(0.000185302 0 0.195639)
(0.000133846 0 0.188252)
(9.55981e-05 0 0.205843)
(0.000203785 0 0.202849)
(-6.37432e-05 0 0.207616)
(-1.7802e-05 0 0.208756)
(-0.000168023 0 0.203495)
(-0.000245648 0 0.206353)
(-0.000228099 0 0.196972)
(-0.000390563 0 0.200448)
(-0.00029639 0 0.188849)
(-0.00050867 0 0.193282)
(-0.000401693 0 0.177184)
(-0.000661453 0 0.184213)
(-0.000486319 0 0.158319)
(-0.000818265 0 0.169934)
(-0.000394451 0 0.13235)
(-0.000788215 0 0.146359)
(-0.000107692 0 0.111826)
(-0.000434658 0 0.117864)
(0.000160572 0 0.113423)
(4.06237e-05 0 0.105377)
(0.000253205 0 0.132351)
(0.000347492 0 0.121264)
(0.000125367 0 0.147678)
(0.000338349 0 0.143398)
(-4.16019e-05 0 0.148188)
(0.000102457 0 0.151949)
(-8.2203e-06 0 0.137737)
(1.22186e-05 0 0.144275)
(0.000275303 0 0.132765)
(0.00033214 0 0.13087)
(0.000680083 0 0.149994)
(0.000954996 0 0.1343)
(0.000998517 0 0.185512)
(0.00159458 0 0.165419)
(0.00114771 0 0.223371)
(0.00202465 0 0.205444)
(0.00125554 0 0.257691)
(0.00226269 0 0.241171)
(0.00140246 0 0.291729)
(0.00245509 0 0.27402)
(0.00129493 0 0.330843)
(0.00250646 0 0.309316)
(-0.00029342 0 0.360349)
(0.0021094 0 0.353068)
(-0.000277786 0 0.215329)
(-0.00375404 0 0.367391)
(0.0127016 0 -0.263838)
(0.0151323 0 0.0536558)
(-0.0102872 0 -0.239603)
(0.00194561 0 -0.575639)
(-0.000524215 0 0.244627)
(-0.0136904 0 0.106518)
(-0.000703534 0 0.36274)
(0.00251767 0 0.378392)
(-0.00152513 0 0.324126)
(-0.00344808 0 0.347134)
(-0.00138555 0 0.291171)
(-0.00265126 0 0.305075)
(-0.00116121 0 0.266392)
(-0.00237501 0 0.277235)
(-0.00102356 0 0.246337)
(-0.0020993 0 0.255436)
(-0.00101539 0 0.228576)
(-0.00197992 0 0.237221)
(-0.00115829 0 0.209333)
(-0.00207268 0 0.220094)
(-0.00135503 0 0.181601)
(-0.00230099 0 0.198939)
(-0.00127327 0 0.137627)
(-0.00229606 0 0.164647)
(-0.000693505 0 0.0817559)
(-0.00162463 0 0.110731)
(-0.000103645 0 0.0414506)
(-0.000622786 0 0.0527557)
(0.000146893 0 0.043126)
(-8.79121e-05 0 0.0300085)
(0.000326201 0 0.0769907)
(0.000132067 0 0.0556008)
(0.000380786 0 0.112513)
(0.000353075 0 0.0974844)
(0.00023948 0 0.133299)
(0.000349343 0 0.127083)
(2.07054e-05 0 0.140009)
(0.000115527 0 0.139609)
(-0.000173597 0 0.138103)
(-0.000176997 0 0.140751)
(-0.000311694 0 0.131569)
(-0.000423182 0 0.135804)
(-0.000395708 0 0.122449)
(-0.000593576 0 0.127603)
(-0.000435303 0 0.111752)
(-0.000691687 0 0.117471)
(-0.000439814 0 0.100094)
(-0.000728417 0 0.106122)
(-0.000417749 0 0.0879666)
(-0.000716528 0 0.0940797)
(-0.000377344 0 0.0758116)
(-0.000669278 0 0.0818054)
(-0.000326481 0 0.0640233)
(-0.000599709 0 0.0697236)
(-0.000272069 0 0.0529234)
(-0.000519619 0 0.0581992)
(-0.000219363 0 0.042738)
(-0.00043847 0 0.04751)
(-0.000171623 0 0.0335874)
(-0.00036278 0 0.0378279)
(-0.000130215 0 0.0254928)
(-0.00029617 0 0.0292173)
(-9.53364e-05 0 0.0183967)
(-0.000240143 0 0.0216527)
(-6.6749e-05 0 0.0122055)
(-0.000192843 0 0.0150439)
(-4.86405e-05 0 0.00656809)
(-0.000154022 0 0.00930876)
(-0.000161108 0 0.00382049)
(0.000830298 0 -0.00966352)
(0.00120605 0 -0.00634445)
(0.000918835 0 -0.0166091)
(0.00131344 0 -0.0133728)
(0.00102818 0 -0.0235508)
(0.00142225 0 -0.0203004)
(0.00116819 0 -0.0307218)
(0.00157184 0 -0.0273554)
(0.00134083 0 -0.0382652)
(0.00176654 0 -0.0347559)
(0.00154752 0 -0.0461211)
(0.00200752 0 -0.0425588)
(0.00178839 0 -0.0539199)
(0.00229703 0 -0.0505839)
(0.00206299 0 -0.0607712)
(0.00263602 0 -0.0582704)
(0.00237769 0 -0.0649524)
(0.00302761 0 -0.0644096)
(0.00276621 0 -0.0636347)
(0.0034915 0 -0.0668123)
(0.00332479 0 -0.0529759)
(0.00409675 0 -0.0621192)
(0.00423934 0 -0.0289965)
(0.00500629 0 -0.0461662)
(0.00574736 0 0.0107453)
(0.00648503 0 -0.0152653)
(0.00802053 0 0.0656033)
(0.00880382 0 0.0318771)
(0.0110544 0 0.131853)
(0.0120714 0 0.092999)
(0.0146695 0 0.204636)
(0.0161524 0 0.163321)
(0.0187116 0 0.280601)
(0.020802 0 0.238037)
(0.0231569 0 0.360049)
(0.0259293 0 0.315035)
(0.028028 0 0.446683)
(0.0317479 0 0.396822)
(0.0345423 0 0.522144)
(0.0375306 0 0.487179)
(0.0544806 0 0.409159)
(0.0451926 0 0.535836)
(0.103765 0 -0.331691)
(0.0908211 0 0.222259)
(0.0225474 0 -0.952802)
(0.112465 0 -0.89231)
(-0.0869962 0 -0.300931)
(-0.0827202 0 -0.884068)
(-0.0399694 0 0.497445)
(-0.0722053 0 0.346269)
(-0.0212627 0 0.589106)
(-0.0239166 0 0.60413)
(-0.0125431 0 0.538903)
(-0.0201435 0 0.555693)
(-0.00687105 0 0.51369)
(-0.0112999 0 0.512752)
(-0.00420591 0 0.510929)
(-0.00233633 0 0.509712)
(0.00673818 0 0.336547)
(-0.0118106 0 0.505346)
(0.0459572 0 -0.368613)
(0.0533483 0 0.108379)
(-0.049447 0 -0.340355)
(-0.000846886 0 -0.821042)
(-0.0242821 0 0.300229)
(-0.0686696 0 0.166448)
(-0.0157779 0 0.328689)
(-0.0109292 0 0.417235)
(-0.00739581 0 0.156437)
(-0.0182956 0 0.233628)
(-0.00249783 0 0.116264)
(-0.00560816 0 0.0727915)
(0.000360521 0 0.196986)
(-0.000852474 0 0.154976)
(-0.000191374 0 0.237487)
(0.000444216 0 0.237823)
(-0.00115223 0 0.22161)
(-0.00116991 0 0.23845)
(-0.000885787 0 0.193946)
(-0.00154381 0 0.205653)
(-0.000194922 0 0.185222)
(-0.000721483 0 0.182051)
(0.0002079 0 0.195419)
(6.52673e-05 0 0.187983)
(0.000106823 0 0.205675)
(0.000224919 0 0.202916)
(-0.00020958 0 0.207416)
(-0.000103074 0 0.208967)
(-0.00047661 0 0.203248)
(-0.000486341 0 0.206531)
(-0.000668746 0 0.196708)
(-0.000756237 0 0.200576)
(-0.000868177 0 0.18859)
(-0.000981636 0 0.193415)
(-0.0011017 0 0.176891)
(-0.00124588 0 0.184369)
(-0.00120067 0 0.157901)
(-0.00148068 0 0.17)
(-0.000877066 0 0.131842)
(-0.00137092 0 0.146144)
(-0.000237615 0 0.11144)
(-0.000744613 0 0.117438)
(0.000262476 0 0.113235)
(1.47446e-05 0 0.105044)
(0.000479817 0 0.132259)
(0.000514777 0 0.121119)
(0.000316712 0 0.147569)
(0.00057252 0 0.143507)
(9.76535e-05 0 0.14794)
(0.000281223 0 0.152095)
(0.000307711 0 0.13736)
(0.000233843 0 0.144135)
(0.00100907 0 0.132421)
(0.000829376 0 0.130403)
(0.00187066 0 0.149745)
(0.00186871 0 0.133725)
(0.00266639 0 0.185314)
(0.00296773 0 0.164888)
(0.00316005 0 0.223173)
(0.00378096 0 0.205115)
(0.00349539 0 0.257443)
(0.00426613 0 0.240947)
(0.00374652 0 0.29161)
(0.0045934 0 0.273853)
(0.00294253 0 0.331459)
(0.00451348 0 0.309852)
(-0.000135092 0 0.359538)
(0.00449408 0 0.35512)
(0.00408831 0 0.206483)
(-0.00504013 0 0.364575)
(0.0233154 0 -0.25876)
(0.0269505 0 0.0408377)
(-0.017722 0 -0.229883)
(0.00275382 0 -0.548281)
(-0.00528666 0 0.241255)
(-0.0244654 0 0.0982276)
(-0.00232188 0 0.362112)
(0.00360375 0 0.376415)
(-0.00371301 0 0.323725)
(-0.00655697 0 0.348062)
(-0.00372595 0 0.290497)
(-0.00473758 0 0.305086)
(-0.00330066 0 0.265759)
(-0.00445435 0 0.276871)
(-0.00301535 0 0.24587)
(-0.00402034 0 0.25518)
(-0.00300491 0 0.228282)
(-0.00381059 0 0.237212)
(-0.00323424 0 0.20908)
(-0.00391236 0 0.22032)
(-0.00337419 0 0.181003)
(-0.00415633 0 0.199084)
(-0.00280233 0 0.136388)
(-0.00394853 0 0.164026)
(-0.00144849 0 0.0804711)
(-0.00272688 0 0.109187)
(-0.00040763 0 0.0410218)
(-0.00117516 0 0.0515111)
(-9.7167e-05 0 0.0433363)
(-0.000474436 0 0.0296192)
(0.000155773 0 0.0772064)
(-0.000195136 0 0.0552681)
(0.000341273 0 0.11269)
(0.000208361 0 0.0972285)
(0.000231594 0 0.133524)
(0.000318416 0 0.127242)
(-8.76568e-05 0 0.140219)
(4.98387e-05 0 0.140094)
(-0.000436494 0 0.138221)
(-0.000354764 0 0.141307)
(-0.000716604 0 0.131569)
(-0.000721268 0 0.136272)
(-0.000900753 0 0.122338)
(-0.000986634 0 0.127925)
(-0.000993979 0 0.111545)
(-0.00114549 0 0.117642)
(-0.0010116 0 0.0998103)
(-0.00121015 0 0.106156)
(-0.00097172 0 0.0876278)
(-0.00119922 0 0.0939988)
(-0.000892798 0 0.0754408)
(-0.00113332 0 0.0816377)
(-0.000792073 0 0.063643)
(-0.00103288 0 0.0694991)
(-0.000684042 0 0.0525529)
(-0.000916173 0 0.0579467)
(-0.000579409 0 0.0423916)
(-0.000797663 0 0.0472535)
(-0.000484848 0 0.0332733)
(-0.000687347 0 0.0375846)
(-0.000403667 0 0.0252144)
(-0.000591284 0 0.0289982)
(-0.000337501 0 0.0181562)
(-0.000512523 0 0.0214654)
(-0.000288678 0 0.0120204)
(-0.000449875 0 0.014899)
(-0.000263576 0 0.0064354)
(-0.000402916 0 0.00923055)
(-0.000420559 0 0.0037795)
(0.00170133 0 -0.00989632)
(0.00204758 0 -0.0065573)
(0.00180592 0 -0.0169112)
(0.00215411 0 -0.0136981)
(0.00195682 0 -0.0239479)
(0.00228945 0 -0.020748)
(0.00216026 0 -0.0312189)
(0.00248313 0 -0.0279306)
(0.00242052 0 -0.0388586)
(0.00273938 0 -0.0354574)
(0.00274153 0 -0.0468065)
(0.00306266 0 -0.0433837)
(0.00312635 0 -0.0546948)
(0.0034577 0 -0.0515266)
(0.00357944 0 -0.0616497)
(0.0039287 0 -0.0593285)
(0.00411677 0 -0.0660025)
(0.00448522 0 -0.0656059)
(0.0047908 0 -0.0650397)
(0.00515954 0 -0.0682429)
(0.00573064 0 -0.0550821)
(0.00604188 0 -0.0640208)
(0.00717119 0 -0.0322596)
(0.00732593 0 -0.0489449)
(0.00941651 0 0.00597457)
(0.00931729 0 -0.0193941)
(0.0126918 0 0.0593349)
(0.0123314 0 0.0261354)
(0.0169895 0 0.12448)
(0.0165068 0 0.0858167)
(0.0221185 0 0.196642)
(0.0217041 0 0.155149)
(0.0278794 0 0.272261)
(0.0276164 0 0.229287)
(0.0342027 0 0.351423)
(0.0340391 0 0.305879)
(0.0410909 0 0.436902)
(0.0411302 0 0.387314)
(0.0500839 0 0.50263)
(0.0481152 0 0.475345)
(0.0727323 0 0.363362)
(0.0572248 0 0.507424)
(0.115215 0 -0.308797)
(0.105875 0 0.171453)
(0.019538 0 -0.829567)
(0.108143 0 -0.783229)
(-0.092625 0 -0.263065)
(-0.0800728 0 -0.76216)
(-0.046797 0 0.455908)
(-0.0797597 0 0.298784)
(-0.0273298 0 0.5745)
(-0.0261426 0 0.584901)
(-0.0173647 0 0.531389)
(-0.0235216 0 0.546309)
(-0.00972913 0 0.509084)
(-0.0141038 0 0.505898)
(-0.00486746 0 0.504093)
(-0.0021156 0 0.505551)
(0.0122695 0 0.318203)
(-0.0133828 0 0.491364)
(0.0494446 0 -0.344499)
(0.0647878 0 0.0835955)
(-0.0609428 0 -0.313098)
(-0.00422297 0 -0.74745)
(-0.0368845 0 0.286189)
(-0.0870299 0 0.150409)
(-0.0230619 0 0.322183)
(-0.0158743 0 0.40802)
(-0.0120587 0 0.151085)
(-0.0249696 0 0.226292)
(-0.00486824 0 0.112665)
(-0.00794643 0 0.0679978)
(-0.000484758 0 0.195846)
(-0.00225058 0 0.152054)
(-0.00062591 0 0.238152)
(8.70023e-05 0 0.237917)
(-0.00166302 0 0.22201)
(-0.00170304 0 0.239142)
(-0.00133051 0 0.193619)
(-0.00209016 0 0.205431)
(-0.00044083 0 0.184779)
(-0.00106643 0 0.181458)
(0.000124256 0 0.195308)
(-7.16473e-05 0 0.187607)
(3.19506e-05 0 0.205894)
(0.000173946 0 0.202978)
(-0.000382667 0 0.207727)
(-0.000225981 0 0.209244)
(-0.000770152 0 0.203516)
(-0.000726961 0 0.206789)
(-0.00106958 0 0.196948)
(-0.00109744 0 0.200775)
(-0.00136227 0 0.188846)
(-0.00140684 0 0.19361)
(-0.00165798 0 0.177113)
(-0.00174807 0 0.184566)
(-0.00173631 0 0.15791)
(-0.00202804 0 0.170052)
(-0.00127388 0 0.131539)
(-0.00185243 0 0.145835)
(-0.000425205 0 0.111003)
(-0.00102682 0 0.116872)
(0.000278655 0 0.112916)
(-5.2764e-05 0 0.104575)
(0.000642057 0 0.13222)
(0.000623621 0 0.120877)
(0.000532683 0 0.147749)
(0.000784333 0 0.14358)
(0.000352363 0 0.147999)
(0.000501703 0 0.152216)
(0.000712777 0 0.137034)
(0.000520534 0 0.143895)
(0.00169835 0 0.131763)
(0.00133782 0 0.129746)
(0.00294263 0 0.148992)
(0.00270496 0 0.132896)
(0.0041274 0 0.184716)
(0.00418581 0 0.164098)
(0.00490916 0 0.222798)
(0.00533039 0 0.204594)
(0.00542238 0 0.257192)
(0.00604385 0 0.240605)
(0.00576131 0 0.291803)
(0.00652242 0 0.273627)
(0.00480472 0 0.332914)
(0.00629325 0 0.31049)
(0.00162248 0 0.359114)
(0.00701145 0 0.357241)
(0.00884079 0 0.198418)
(-0.00451937 0 0.359763)
(0.0271513 0 -0.249004)
(0.0349669 0 0.0286307)
(-0.0218319 0 -0.219301)
(0.00244197 0 -0.515626)
(-0.00839923 0 0.234504)
(-0.0319844 0 0.0892724)
(-0.00400154 0 0.361754)
(0.0035256 0 0.373483)
(-0.00579895 0 0.324453)
(-0.00918569 0 0.34926)
(-0.00574526 0 0.290382)
(-0.00645377 0 0.305042)
(-0.00516827 0 0.265483)
(-0.00627923 0 0.276377)
(-0.00477793 0 0.245799)
(-0.00569818 0 0.25483)
(-0.00470795 0 0.228491)
(-0.00538635 0 0.237146)
(-0.00487251 0 0.209388)
(-0.00544622 0 0.220483)
(-0.00485171 0 0.180849)
(-0.00563846 0 0.199063)
(-0.00397619 0 0.13529)
(-0.00525358 0 0.163074)
(-0.00229861 0 0.0789651)
(-0.00369559 0 0.107275)
(-0.00105107 0 0.0399898)
(-0.00184792 0 0.0500193)
(-0.000588075 0 0.0426406)
(-0.00100258 0 0.0290386)
(-0.000150691 0 0.0765936)
(-0.000577807 0 0.0546928)
(0.000195313 0 0.112515)
(5.38398e-06 0 0.0967511)
(0.000134619 0 0.133921)
(0.000215955 0 0.12733)
(-0.000223688 0 0.140917)
(-5.87848e-05 0 0.140638)
(-0.000647466 0 0.138931)
(-0.000521734 0 0.141982)
(-0.00100044 0 0.132147)
(-0.000955717 0 0.136862)
(-0.00124041 0 0.122739)
(-0.00127646 0 0.128346)
(-0.00136877 0 0.111773)
(-0.00147228 0 0.117878)
(-0.00140224 0 0.0998856)
(-0.00155624 0 0.106221)
(-0.00136266 0 0.087578)
(-0.00155011 0 0.0939186)
(-0.00127303 0 0.0752992)
(-0.00147841 0 0.0814472)
(-0.00115506 0 0.0634435)
(-0.00136546 0 0.0692362)
(-0.00102702 0 0.0523267)
(-0.00123294 0 0.0576474)
(-0.000902627 0 0.042164)
(-0.00109805 0 0.0469484)
(-0.000790838 0 0.0330627)
(-0.000972781 0 0.0372971)
(-0.000696851 0 0.0250344)
(-0.000864833 0 0.0287446)
(-0.000623975 0 0.0180219)
(-0.000778758 0 0.0212591)
(-0.000576232 0 0.0119499)
(-0.000714503 0 0.0147572)
(-0.000556476 0 0.00643063)
(-0.000670118 0 0.00916898)
(-0.000681184 0 0.00378219)
(0.00250541 0 -0.0101777)
(0.00276771 0 -0.00675583)
(0.00262621 0 -0.0173475)
(0.00287485 0 -0.014074)
(0.00280681 0 -0.0245321)
(0.00302844 0 -0.0212836)
(0.00305207 0 -0.0319528)
(0.00324874 0 -0.028624)
(0.00336905 0 -0.0397442)
(0.00354162 0 -0.0363118)
(0.00376429 0 -0.0478438)
(0.00391455 0 -0.0443993)
(0.00424339 0 -0.0558866)
(0.00437418 0 -0.0527002)
(0.00481515 0 -0.0630188)
(0.00492741 0 -0.0606637)
(0.00550408 0 -0.0676309)
(0.00558909 0 -0.0671397)
(0.00637749 0 -0.0671279)
(0.006401 0 -0.0700966)
(0.00758566 0 -0.0579949)
(0.00746657 0 -0.0664654)
(0.00938839 0 -0.0364778)
(0.00899272 0 -0.0524222)
(0.0121122 0 5.38638e-05)
(0.0112962 0 -0.0244029)
(0.0160062 0 0.0516584)
(0.0147071 0 0.0193091)
(0.0210738 0 0.11541)
(0.0193797 0 0.0773478)
(0.0270829 0 0.186722)
(0.025172 0 0.145576)
(0.0337297 0 0.261911)
(0.0317135 0 0.219192)
(0.0407709 0 0.340843)
(0.0386449 0 0.295684)
(0.0480909 0 0.424908)
(0.0460153 0 0.377209)
(0.0577508 0 0.480744)
(0.0532716 0 0.462633)
(0.0805864 0 0.324522)
(0.0628236 0 0.478777)
(0.111213 0 -0.279431)
(0.108297 0 0.134826)
(0.0171519 0 -0.71608)
(0.0953958 0 -0.675989)
(-0.0855686 0 -0.226208)
(-0.0698058 0 -0.650515)
(-0.0479014 0 0.421248)
(-0.0781816 0 0.259755)
(-0.0279065 0 0.558956)
(-0.025623 0 0.56515)
(-0.0184352 0 0.522846)
(-0.0233976 0 0.53739)
(-0.0107032 0 0.503056)
(-0.0148727 0 0.498957)
(-0.00470277 0 0.493984)
(-0.00151527 0 0.500416)
(0.0155852 0 0.298552)
(-0.0126153 0 0.474812)
(0.0470773 0 -0.318679)
(0.0685302 0 0.0626008)
(-0.066304 0 -0.283332)
(-0.00800289 0 -0.671863)
(-0.0462014 0 0.272706)
(-0.0962761 0 0.137007)
(-0.0288495 0 0.312784)
(-0.0208281 0 0.396452)
(-0.0158032 0 0.143822)
(-0.0300139 0 0.217594)
(-0.00670476 0 0.10782)
(-0.00962847 0 0.0619322)
(-0.00120992 0 0.1942)
(-0.00341798 0 0.148391)
(-0.00113784 0 0.238769)
(-0.000310763 0 0.237869)
(-0.00221396 0 0.222425)
(-0.00224962 0 0.239859)
(-0.00178529 0 0.193212)
(-0.00260688 0 0.205146)
(-0.000678887 0 0.184255)
(-0.00139872 0 0.18072)
(1.08833e-05 0 0.195205)
(-0.000217897 0 0.187147)
(-7.74963e-05 0 0.20621)
(9.04577e-05 0 0.203037)
(-0.000575688 0 0.208172)
(-0.000374437 0 0.209576)
(-0.00105815 0 0.203915)
(-0.000968988 0 0.207111)
(-0.00143759 0 0.197306)
(-0.00141876 0 0.201028)
(-0.00179693 0 0.1892)
(-0.00179222 0 0.19385)
(-0.0021371 0 0.177383)
(-0.0021875 0 0.184793)
(-0.00220372 0 0.15788)
(-0.00249735 0 0.170097)
(-0.00164216 0 0.131117)
(-0.00227693 0 0.145461)
(-0.000613747 0 0.11043)
(-0.00130068 0 0.116186)
(0.000297024 0 0.112515)
(-0.000129548 0 0.103967)
(0.000803917 0 0.132172)
(0.000724881 0 0.120539)
(0.000754268 0 0.147948)
(0.000987996 0 0.143613)
(0.000618555 0 0.148024)
(0.000730889 0 0.152306)
(0.00110233 0 0.136572)
(0.00081183 0 0.143572)
(0.00234001 0 0.1309)
(0.0018136 0 0.12892)
(0.0039308 0 0.148034)
(0.00347365 0 0.131836)
(0.00544705 0 0.183975)
(0.00529216 0 0.163088)
(0.00647122 0 0.222359)
(0.00671198 0 0.203911)
(0.00714899 0 0.256956)
(0.00762639 0 0.240153)
(0.00762334 0 0.292151)
(0.00828845 0 0.27331)
(0.00670181 0 0.334554)
(0.00791263 0 0.311104)
(0.00392584 0 0.357769)
(0.0093379 0 0.359092)
(0.0126631 0 0.189982)
(-0.00261018 0 0.353939)
(0.0282346 0 -0.237778)
(0.0395978 0 0.0182497)
(-0.023877 0 -0.20689)
(0.00165474 0 -0.480885)
(-0.0115127 0 0.228225)
(-0.0364118 0 0.0810295)
(-0.00585941 0 0.360955)
(0.0021468 0 0.369715)
(-0.00761652 0 0.325232)
(-0.011359 0 0.350431)
(-0.00749611 0 0.290218)
(-0.00786522 0 0.304944)
(-0.00677166 0 0.265112)
(-0.00785181 0 0.275757)
(-0.00626967 0 0.24566)
(-0.00711627 0 0.254379)
(-0.00612591 0 0.228639)
(-0.00670433 0 0.23701)
(-0.0062262 0 0.209557)
(-0.00671311 0 0.220582)
(-0.00609264 0 0.180383)
(-0.00684096 0 0.198924)
(-0.00502783 0 0.133749)
(-0.00632275 0 0.161917)
(-0.00314658 0 0.0770411)
(-0.00456558 0 0.10513)
(-0.00169132 0 0.0386589)
(-0.00253443 0 0.0482791)
(-0.00100084 0 0.0417706)
(-0.00150413 0 0.0281726)
(-0.000391335 0 0.0758893)
(-0.000890381 0 0.0538909)
(4.46708e-05 0 0.112296)
(-0.000181089 0 0.0961495)
(1.35729e-05 0 0.134333)
(8.91069e-05 0 0.127375)
(-0.000371293 0 0.141682)
(-0.000180843 0 0.141223)
(-0.000843589 0 0.139725)
(-0.000671896 0 0.142735)
(-0.00124267 0 0.132793)
(-0.00114429 0 0.137529)
(-0.00151645 0 0.123178)
(-0.00149836 0 0.128826)
(-0.00166493 0 0.112002)
(-0.00171654 0 0.118151)
(-0.00170664 0 0.0999273)
(-0.00181206 0 0.106301)
(-0.00166617 0 0.0874681)
(-0.00180882 0 0.0938365)
(-0.00156942 0 0.0750793)
(-0.00173395 0 0.0812417)
(-0.00144077 0 0.0631562)
(-0.00161419 0 0.0689496)
(-0.00130079 0 0.0520107)
(-0.00147326 0 0.0573203)
(-0.00116498 0 0.0418509)
(-0.00132997 0 0.0466155)
(-0.00104367 0 0.0327763)
(-0.00119744 0 0.0369852)
(-0.000943063 0 0.024793)
(-0.0010841 0 0.0284733)
(-0.000866865 0 0.0178419)
(-0.000995156 0 0.0210436)
(-0.000817431 0 0.0118452)
(-0.000930641 0 0.0146105)
(-0.000794191 0 0.0063935)
(-0.000886071 0 0.00909666)
(-0.000885232 0 0.00376401)
(0.00314089 0 -0.010473)
(0.00328298 0 -0.0069514)
(0.00326806 0 -0.0178295)
(0.00338926 0 -0.0144696)
(0.00346243 0 -0.0251873)
(0.00354861 0 -0.0218601)
(0.00372881 0 -0.0327818)
(0.00378011 0 -0.0293772)
(0.0040755 0 -0.0407512)
(0.00409014 0 -0.0372463)
(0.00451071 0 -0.0490301)
(0.00448725 0 -0.0455176)
(0.00504219 0 -0.057256)
(0.00497916 0 -0.0540022)
(0.00568248 0 -0.0645969)
(0.00557468 0 -0.0621591)
(0.00646253 0 -0.0695037)
(0.00629226 0 -0.0688763)
(0.00745816 0 -0.0694971)
(0.00717907 0 -0.0722097)
(0.00882684 0 -0.061218)
(0.00834381 0 -0.0692347)
(0.0108297 0 -0.0410236)
(0.0099934 0 -0.0562856)
(0.01379 0 -0.00621289)
(0.0124366 0 -0.0298464)
(0.0179579 0 0.0435908)
(0.0159983 0 0.0120027)
(0.0233483 0 0.105885)
(0.020841 0 0.0683393)
(0.0297018 0 0.176336)
(0.02683 0 0.135453)
(0.036623 0 0.251244)
(0.0335562 0 0.20868)
(0.0437352 0 0.330233)
(0.0405258 0 0.285386)
(0.050963 0 0.41294)
(0.047684 0 0.367233)
(0.0608365 0 0.460007)
(0.0549067 0 0.449641)
(0.082062 0 0.296261)
(0.0647214 0 0.45215)
(0.0999555 0 -0.244263)
(0.103241 0 0.113426)
(0.014945 0 -0.613687)
(0.0805507 0 -0.579069)
(-0.0737679 0 -0.189117)
(-0.058078 0 -0.554094)
(-0.0465335 0 0.394829)
(-0.0720943 0 0.231537)
(-0.0263562 0 0.544126)
(-0.0242026 0 0.545219)
(-0.0174245 0 0.514742)
(-0.0212477 0 0.528979)
(-0.0103489 0 0.496672)
(-0.0142492 0 0.492605)
(-0.00374205 0 0.482388)
(-0.000720491 0 0.494761)
(0.017649 0 0.280536)
(-0.0101298 0 0.45736)
(0.0413994 0 -0.291019)
(0.0668975 0 0.0467671)
(-0.0669225 0 -0.252127)
(-0.0112945 0 -0.599648)
(-0.0525579 0 0.260688)
(-0.0986498 0 0.12743)
(-0.0330924 0 0.301642)
(-0.0253504 0 0.383475)
(-0.0185254 0 0.135727)
(-0.0333428 0 0.207883)
(-0.00809061 0 0.102473)
(-0.0107495 0 0.0549757)
(-0.00188031 0 0.192148)
(-0.00436196 0 0.144251)
(-0.00161958 0 0.239089)
(-0.000671273 0 0.237695)
(-0.00269891 0 0.222659)
(-0.00274302 0 0.240579)
(-0.00220058 0 0.192676)
(-0.00305762 0 0.204813)
(-0.000920447 0 0.183617)
(-0.00170899 0 0.179867)
(-0.000109842 0 0.195004)
(-0.000373307 0 0.186607)
(-0.000203608 0 0.206446)
(-1.91858e-05 0 0.2031)
(-0.000772671 0 0.208558)
(-0.000537107 0 0.209955)
(-0.00133345 0 0.204261)
(-0.00120631 0 0.207485)
(-0.00177743 0 0.197606)
(-0.00172107 0 0.201324)
(-0.0021877 0 0.18948)
(-0.00214552 0 0.194123)
(-0.00255873 0 0.17755)
(-0.00257845 0 0.18504)
(-0.00261215 0 0.15772)
(-0.00290402 0 0.170132)
(-0.0019718 0 0.130558)
(-0.00265011 0 0.145034)
(-0.000793898 0 0.109731)
(-0.00156141 0 0.115401)
(0.000301288 0 0.111995)
(-0.000216323 0 0.103237)
(0.000945615 0 0.132001)
(0.000809045 0 0.120109)
(0.000968114 0 0.148011)
(0.00117456 0 0.143598)
(0.000887613 0 0.147898)
(0.000960633 0 0.15236)
(0.00148318 0 0.135949)
(0.00110364 0 0.143175)
(0.00293601 0 0.129864)
(0.00225659 0 0.127952)
(0.00482176 0 0.146893)
(0.00417084 0 0.130578)
(0.0066216 0 0.183042)
(0.00628612 0 0.161888)
(0.00786748 0 0.221738)
(0.00793904 0 0.203081)
(0.0087016 0 0.256548)
(0.00902645 0 0.239597)
(0.00930043 0 0.292311)
(0.0098898 0 0.272911)
(0.00850566 0 0.335719)
(0.00936565 0 0.311634)
(0.00649016 0 0.355487)
(0.0114357 0 0.360436)
(0.0159223 0 0.182358)
(0.000260565 0 0.34765)
(0.0275863 0 -0.224944)
(0.0417592 0 0.0104738)
(-0.0244085 0 -0.193209)
(0.000786486 0 -0.446222)
(-0.0143891 0 0.222475)
(-0.038547 0 0.0743499)
(-0.00780958 0 0.359391)
(-1.95937e-05 0 0.365328)
(-0.00912328 0 0.325664)
(-0.0130565 0 0.351307)
(-0.00892926 0 0.289848)
(-0.00898548 0 0.304785)
(-0.00810527 0 0.264558)
(-0.00915854 0 0.275052)
(-0.00751319 0 0.245354)
(-0.00827277 0 0.253848)
(-0.00730076 0 0.22861)
(-0.00778178 0 0.23681)
(-0.00733444 0 0.209498)
(-0.00774041 0 0.220615)
(-0.00709182 0 0.179644)
(-0.00778895 0 0.198673)
(-0.00588289 0 0.131985)
(-0.00715109 0 0.160603)
(-0.00388256 0 0.0749978)
(-0.00527814 0 0.10285)
(-0.00227615 0 0.0372492)
(-0.00315371 0 0.046358)
(-0.00138669 0 0.0408332)
(-0.00196456 0 0.0270568)
(-0.00063785 0 0.0751186)
(-0.00117805 0 0.0529055)
(-0.000120335 0 0.111981)
(-0.000376127 0 0.0954352)
(-0.000113768 0 0.134636)
(-4.998e-05 0 0.127365)
(-0.000494331 0 0.142361)
(-0.000287668 0 0.141801)
(-0.000986241 0 0.14046)
(-0.000777892 0 0.143518)
(-0.0014113 0 0.133393)
(-0.00126598 0 0.138239)
(-0.00170644 0 0.123575)
(-0.00163801 0 0.129343)
(-0.00186828 0 0.112191)
(-0.00186953 0 0.118449)
(-0.00191598 0 0.0999306)
(-0.00197266 0 0.106393)
(-0.00187609 0 0.0873225)
(-0.00197238 0 0.0937558)
(-0.00177659 0 0.0748276)
(-0.00189739 0 0.0810306)
(-0.00164359 0 0.0628421)
(-0.00177591 0 0.0686534)
(-0.00149892 0 0.0516735)
(-0.00163273 0 0.0569824)
(-0.001359 0 0.0415225)
(-0.0014874 0 0.0462728)
(-0.00123479 0 0.0324807)
(-0.00135355 0 0.036666)
(-0.00113278 0 0.0245479)
(-0.00123986 0 0.0281983)
(-0.00105631 0 0.01766)
(-0.0011514 0 0.0208273)
(-0.00100599 0 0.0117315)
(-0.00108802 0 0.0144613)
(-0.000978872 0 0.00634049)
(-0.0010434 0 0.00901232)
(-0.00103586 0 0.0037335)
(0.00353497 0 -0.0107664)
(0.00352924 0 -0.0071421)
(0.00366167 0 -0.0183195)
(0.00363408 0 -0.0148638)
(0.00385909 0 -0.0258641)
(0.00379183 0 -0.0224456)
(0.0041327 0 -0.0336453)
(0.00402518 0 -0.0301508)
(0.00449097 0 -0.0418051)
(0.00433975 0 -0.038212)
(0.00494252 0 -0.0502758)
(0.00474378 0 -0.0466779)
(0.00549611 0 -0.0586988)
(0.00524513 0 -0.0553583)
(0.00616622 0 -0.066267)
(0.00585339 0 -0.063724)
(0.00698677 0 -0.0714933)
(0.00658853 0 -0.0707032)
(0.00803621 0 -0.0720112)
(0.00749945 0 -0.0744371)
(0.00947063 0 -0.0646069)
(0.0086946 0 -0.072137)
(0.0115425 0 -0.0457382)
(0.0103745 0 -0.0602821)
(0.0145624 0 -0.0126335)
(0.0128335 0 -0.0353996)
(0.0187749 0 0.0353924)
(0.016384 0 0.0046179)
(0.0242019 0 0.096272)
(0.0211927 0 0.0592698)
(0.030576 0 0.165982)
(0.0271383 0 0.125298)
(0.0374447 0 0.240869)
(0.033797 0 0.198247)
(0.0443452 0 0.320215)
(0.0405751 0 0.275395)
(0.0512621 0 0.401618)
(0.0473105 0 0.357685)
(0.0608678 0 0.441239)
(0.054289 0 0.437)
(0.0793927 0 0.276589)
(0.0640963 0 0.428911)
(0.0875427 0 -0.206789)
(0.0946907 0 0.10368)
(0.0126727 0 -0.523046)
(0.0671023 0 -0.493709)
(-0.0625297 0 -0.154323)
(-0.0474639 0 -0.472358)
(-0.0429665 0 0.373661)
(-0.0638485 0 0.211266)
(-0.0235199 0 0.530108)
(-0.0217229 0 0.52601)
(-0.0153432 0 0.507568)
(-0.0178937 0 0.521279)
(-0.00919395 0 0.490629)
(-0.0127334 0 0.487084)
(-0.00235981 0 0.470687)
(0.000119964 0 0.488913)
(0.0186033 0 0.264924)
(-0.00714883 0 0.440257)
(0.0349488 0 -0.262694)
(0.0622227 0 0.03587)
(-0.0650004 0 -0.220994)
(-0.013695 0 -0.533016)
(-0.0558365 0 0.250183)
(-0.0966151 0 0.121321)
(-0.0357751 0 0.289784)
(-0.02881 0 0.370101)
(-0.0202949 0 0.12707)
(-0.0350964 0 0.197563)
(-0.0090703 0 0.0967318)
(-0.0114013 0 0.0474926)
(-0.00243959 0 0.189851)
(-0.00510167 0 0.13983)
(-0.00202727 0 0.239269)
(-0.000924346 0 0.23742)
(-0.00309543 0 0.222801)
(-0.00314304 0 0.241291)
(-0.00255733 0 0.192041)
(-0.00342374 0 0.204455)
(-0.00115428 0 0.182879)
(-0.00198807 0 0.178931)
(-0.000255192 0 0.194734)
(-0.000531516 0 0.186007)
(-0.000348338 0 0.206652)
(-0.00014299 0 0.203162)
(-0.000971182 0 0.208928)
(-0.000704659 0 0.210371)
(-0.00159615 0 0.204592)
(-0.00143652 0 0.207901)
(-0.00209372 0 0.197885)
(-0.00200691 0 0.201656)
(-0.00254343 0 0.189727)
(-0.00247356 0 0.194423)
(-0.00293364 0 0.177667)
(-0.00293384 0 0.1853)
(-0.00297055 0 0.157486)
(-0.00326501 0 0.170157)
(-0.00226573 0 0.129905)
(-0.00298063 0 0.144564)
(-0.000966294 0 0.108921)
(-0.00180294 0 0.114534)
(0.000287358 0 0.111364)
(-0.000310366 0 0.102401)
(0.00106204 0 0.13173)
(0.000870148 0 0.119593)
(0.00116815 0 0.147983)
(0.0013386 0 0.143527)
(0.00115433 0 0.147675)
(0.00118201 0 0.152369)
(0.00185226 0 0.135204)
(0.0013899 0 0.14271)
(0.00348448 0 0.128676)
(0.00266983 0 0.126864)
(0.00561803 0 0.14558)
(0.00479789 0 0.129156)
(0.00766201 0 0.181943)
(0.00717026 0 0.160525)
(0.00910815 0 0.22097)
(0.00902744 0 0.202117)
(0.0100829 0 0.256005)
(0.0102577 0 0.238947)
(0.0107845 0 0.292297)
(0.0113281 0 0.272444)
(0.0101877 0 0.336421)
(0.010664 0 0.312032)
(0.00904122 0 0.352711)
(0.0132832 0 0.3612)
(0.0186326 0 0.175901)
(0.00339348 0 0.341256)
(0.0263743 0 -0.210961)
(0.0423882 0 0.00531261)
(-0.0241747 0 -0.178878)
(0.000149884 0 -0.412522)
(-0.0167035 0 0.217265)
(-0.0391756 0 0.0693691)
(-0.00956801 0 0.357334)
(-0.0022712 0 0.360571)
(-0.0103317 0 0.325812)
(-0.0142868 0 0.351816)
(-0.0100542 0 0.289344)
(-0.00984891 0 0.304559)
(-0.0091717 0 0.263886)
(-0.0101995 0 0.274296)
(-0.00851476 0 0.244939)
(-0.00917163 0 0.253258)
(-0.00824134 0 0.22847)
(-0.00862858 0 0.236553)
(-0.00820383 0 0.209307)
(-0.00854274 0 0.220578)
(-0.00785443 0 0.178757)
(-0.00850952 0 0.198311)
(-0.00653717 0 0.13011)
(-0.00776437 0 0.159171)
(-0.0044782 0 0.0728621)
(-0.00582161 0 0.100502)
(-0.00278286 0 0.0356904)
(-0.00365855 0 0.0443304)
(-0.00174357 0 0.0397289)
(-0.00235411 0 0.025753)
(-0.000881781 0 0.0742273)
(-0.00142911 0 0.0517715)
(-0.000291688 0 0.11158)
(-0.000548857 0 0.0946206)
(-0.000229251 0 0.13488)
(-0.000163717 0 0.127275)
(-0.000580834 0 0.143011)
(-0.000356546 0 0.142335)
(-0.00106889 0 0.141188)
(-0.000830166 0 0.144296)
(-0.00150234 0 0.133994)
(-0.00131971 0 0.138963)
(-0.00180779 0 0.123973)
(-0.00169896 0 0.129879)
(-0.00197748 0 0.112377)
(-0.00193701 0 0.118761)
(-0.00202994 0 0.0999281)
(-0.00204443 0 0.106494)
(-0.00199248 0 0.0871695)
(-0.00204656 0 0.0936802)
(-0.00189411 0 0.0745686)
(-0.00197292 0 0.0808219)
(-0.0017617 0 0.0625215)