/*--------------------------------*- C++ -*----------------------------------*\
  =========                 |
  \\      /  F ield         | OpenFOAM: The Open Source CFD Toolbox
   \\    /   O peration     | Website:  https://openfoam.org
    \\  /    A nd           | Version:  9
     \\/     M anipulation  |
\*---------------------------------------------------------------------------*/
FoamFile
{
    format      ascii;
    class       surfaceScalarField;
    location    "0.02";
    object      alphaPhi0.water;
}
// * * * * * * * * * * * * * * * * * * * * * * * * * * * * * * * * * * * * * //

dimensions      [0 3 -1 0 0 0 0];

internalField   nonuniform List<scalar> 
9850
(
2.38773e-23
2.13934e-22
1.0921e-21
9.5681e-21
1.57622e-20
1.55845e-19
1.69529e-19
1.90258e-18
1.74766e-18
2.08744e-17
3.05696e-17
1.94381e-16
7.08374e-16
2.54744e-15
8.70478e-15
3.82331e-14
1.19891e-13
5.61282e-13
1.62436e-12
7.18903e-12
2.42791e-11
6.52915e-11
1.36164e-09
6.17968e-11
2.39808e-07
-2.71555e-09
8.78304e-07
-1.01743e-06
8.2081e-07
-1.5877e-06
8.31845e-07
-1.69442e-06
8.71753e-07
-1.71047e-06
9.00677e-07
-1.67952e-06
9.1147e-07
-1.65503e-06
9.12542e-07
-1.6493e-06
9.11659e-07
-1.3499e-06
9.11154e-07
-1.28881e-06
9.10781e-07
-1.2289e-06
9.10456e-07
-1.1735e-06
9.12061e-07
-1.1291e-06
9.1964e-07
-1.09836e-06
9.35814e-07
-1.06907e-06
9.52644e-07
-1.01224e-06
9.467e-07
-9.03178e-07
4.99014e-07
-6.67554e-07
4.92439e-09
-9.24502e-08
0
-1.12244e-09
0
2.31743e-10
0
6.36818e-11
0
1.54297e-11
0
3.78538e-12
0
8.89664e-13
0
2.05364e-13
0
4.64128e-14
0
1.04477e-14
5.68501e-17
2.33186e-15
1.75514e-16
5.71064e-16
1.35814e-16
2.44082e-16
8.22157e-17
1.28484e-16
4.27745e-17
6.59603e-17
1.88558e-17
3.00063e-17
7.19253e-18
1.19946e-17
2.3487e-18
4.26926e-18
7.57886e-19
1.21309e-18
3.04199e-19
3.12571e-23
2.31732e-22
1.10095e-21
8.39191e-21
1.56657e-20
1.28171e-19
1.79936e-19
1.63911e-18
1.94548e-18
1.83927e-17
3.225e-17
1.63133e-16
8.22063e-16
2.01652e-15
1.15316e-14
2.86306e-14
1.44659e-13
3.47567e-13
2.78114e-12
4.54963e-12
3.37281e-11
2.19682e-10
9.5847e-10
9.34167e-11
1.65371e-07
-1.05329e-09
8.50738e-07
-7.62041e-07
7.93042e-07
-1.52547e-06
8.25094e-07
-1.72638e-06
8.74261e-07
-1.75963e-06
9.0314e-07
-1.7084e-06
9.12183e-07
-1.66408e-06
9.11797e-07
-1.64891e-06
9.10448e-07
-1.34855e-06
9.10639e-07
-1.289e-06
9.1188e-07
-1.23014e-06
9.11944e-07
-1.17356e-06
9.0915e-07
-1.1263e-06
9.06219e-07
-1.09543e-06
9.08705e-07
-1.07156e-06
9.14164e-07
-1.01791e-06
8.97307e-07
-8.90546e-07
3.84151e-07
-5.77843e-07
3.76596e-09
-2.60397e-08
0
-5.27087e-10
0
1.405e-10
0
3.13357e-11
0
8.84071e-12
0
2.45098e-12
0
6.09126e-13
0
1.48526e-13
0
3.4905e-14
0
8.05245e-15
7.2534e-17
1.79982e-15
1.7113e-16
4.87359e-16
1.37053e-16
2.48128e-16
8.56001e-17
1.41928e-16
4.5371e-17
7.47514e-17
2.06931e-17
3.49321e-17
8.36157e-18
1.46152e-17
2.92263e-18
5.49353e-18
1.01221e-18
1.67953e-18
4.28677e-19
3.18526e-23
2.14591e-22
8.92726e-22
5.77939e-21
1.27794e-20
9.79427e-20
1.63308e-19
1.27352e-18
1.82277e-18
1.41188e-17
2.61537e-17
1.19287e-16
6.28879e-16
1.4065e-15
6.83507e-15
1.63318e-14
1.90186e-13
1.38703e-13
1.43658e-11
6.31634e-12
9.17199e-11
1.51404e-10
5.40422e-10
5.52653e-11
4.30502e-08
-1.47419e-10
7.80026e-07
-3.73056e-07
8.16641e-07
-1.45261e-06
8.54555e-07
-1.76399e-06
8.94361e-07
-1.79942e-06
9.11725e-07
-1.72576e-06
9.14245e-07
-1.6666e-06
9.1096e-07
-1.64563e-06
9.0865e-07
-1.34624e-06
9.09834e-07
-1.29018e-06
9.14389e-07
-1.2347e-06
9.16787e-07
-1.17596e-06
9.07366e-07
-1.11688e-06
8.82795e-07
-1.07086e-06
8.54396e-07
-1.04319e-06
8.37284e-07
-1.00127e-06
7.81581e-07
-8.43561e-07
1.64059e-07
-3.95985e-07
1.53134e-09
-8.49007e-09
0
-3.35398e-10
1.76015e-11
9.13546e-11
0
1.90356e-11
0
4.97738e-12
0
1.69912e-12
0
4.02795e-13
0
9.75787e-14
0
2.31335e-14
0
5.3621e-15
1.14684e-16
1.18575e-15
1.6091e-16
3.99576e-16
1.30406e-16
2.41708e-16
8.23449e-17
1.48127e-16
4.38447e-17
8.00826e-17
2.0723e-17
3.8567e-17
8.82813e-18
1.68311e-17
3.26391e-18
6.6095e-18
1.26583e-18
2.1357e-18
5.47597e-19
2.74456e-23
1.59512e-22
7.35849e-22
5.1161e-21
1.31906e-20
9.72215e-20
1.55737e-19
1.20774e-18
1.57276e-18
1.07208e-17
2.06807e-17
9.55402e-17
3.56283e-16
1.09821e-15
4.11532e-15
8.81036e-15
2.09619e-13
4.40286e-14
1.32879e-11
1.32363e-11
6.13601e-11
4.81102e-11
2.19849e-10
1.99742e-11
6.15933e-09
-5.60755e-11
6.93499e-07
-1.07931e-07
9.36535e-07
-1.30484e-06
9.40561e-07
-1.76638e-06
9.37738e-07
-1.79655e-06
9.25063e-07
-1.71309e-06
9.16099e-07
-1.65763e-06
9.09098e-07
-1.63862e-06
9.04876e-07
-1.34202e-06
9.06214e-07
-1.29152e-06
9.15778e-07
-1.24426e-06
9.26805e-07
-1.18699e-06
9.19373e-07
-1.10945e-06
8.80349e-07
-1.03183e-06
8.29381e-07
-9.92296e-07
7.97773e-07
-9.71e-07
5.8395e-07
-8.44617e-07
1.54827e-08
-1.20395e-07
7.16737e-10
-2.62713e-09
0
-1.37284e-10
1.99178e-11
6.53245e-11
0
1.76669e-11
0
2.96657e-12
0
1.36056e-12
0
2.75162e-13
0
6.61603e-14
0
1.52423e-14
0
3.52562e-15
1.24312e-16
7.89334e-16
1.40078e-16
3.32161e-16
1.1603e-16
2.31248e-16
7.53232e-17
1.49613e-16
4.11434e-17
8.43116e-17
2.03339e-17
4.22693e-17
9.04832e-18
1.91019e-17
3.47114e-18
7.72228e-18
1.47527e-18
2.59368e-18
6.36531e-19
2.19572e-23
1.18765e-22
9.23094e-22
6.64036e-21
1.85117e-20
1.4888e-19
1.78795e-19
1.36424e-18
1.3597e-18
9.2818e-18
1.49887e-17
8.22644e-17
2.18154e-16
7.80598e-16
4.55943e-15
5.24794e-15
6.92085e-13
1.09344e-13
4.8552e-12
1.25163e-11
1.99202e-11
2.11928e-11
1.10655e-10
4.14969e-11
2.02479e-09
-4.96435e-11
5.02219e-07
-1.89853e-08
1.12001e-06
-1.04629e-06
1.06101e-06
-1.70278e-06
9.88226e-07
-1.72366e-06
9.34665e-07
-1.65952e-06
9.14395e-07
-1.63736e-06
9.04943e-07
-1.62917e-06
8.97898e-07
-1.33497e-06
8.97099e-07
-1.29072e-06
9.11307e-07
-1.25847e-06
9.37557e-07
-1.21324e-06
9.48386e-07
-1.12029e-06
9.21654e-07
-1.00512e-06
8.85244e-07
-9.55846e-07
8.16666e-07
-9.05831e-07
1.99825e-07
-3.6273e-07
4.16793e-09
-1.46944e-08
0
-1.75361e-09
0
-4.35668e-11
0
3.57192e-11
1.75729e-13
1.84317e-11
0
2.08058e-12
9.00089e-14
1.0238e-12
0
1.91605e-13
0
4.90518e-14
0
1.05441e-14
1.22115e-17
2.47841e-15
1.10607e-16
5.83509e-16
1.15592e-16
2.93123e-16
9.84824e-17
2.21251e-16
6.50596e-17
1.48684e-16
3.68893e-17
8.55716e-17
1.86114e-17
4.3436e-17
8.39511e-18
1.97141e-17
3.31504e-18
8.04133e-18
1.36636e-18
2.76155e-18
6.78244e-19
1.84586e-23
1.07688e-22
1.7511e-21
1.38129e-20
3.39226e-20
2.78308e-19
2.49039e-19
2.00992e-18
1.35915e-18
9.20349e-18
1.16515e-17
6.34939e-17
2.00273e-16
5.78982e-16
7.23841e-15
2.21068e-15
6.51939e-13
3.8353e-13
4.1309e-12
6.6429e-12
8.3859e-12
1.71235e-11
1.14009e-10
8.13534e-11
1.50956e-09
-6.49391e-11
2.2413e-07
-4.45594e-10
1.12016e-06
-5.71631e-07
1.11788e-06
-1.61219e-06
1.00042e-06
-1.60521e-06
9.2642e-07
-1.58546e-06
9.05531e-07
-1.61647e-06
8.97846e-07
-1.62149e-06
8.88387e-07
-1.32551e-06
8.8234e-07
-1.28468e-06
8.95004e-07
-1.27113e-06
9.32471e-07
-1.2507e-06
9.65238e-07
-1.15301e-06
9.56971e-07
-9.96756e-07
8.943e-07
-8.92502e-07
4.19731e-07
-4.64325e-07
1.5742e-08
-3.9666e-08
0
-1.34237e-09
1.26527e-10
-9.35542e-10
0
-3.24747e-12
0
2.01648e-11
5.53503e-13
1.55547e-11
0
1.87932e-12
5.77761e-14
5.65799e-13
0
1.51079e-13
0
3.58874e-14
0
7.5998e-15
4.79982e-17
1.80934e-15
9.02969e-17
4.77453e-16
9.07754e-17
2.70589e-16
7.89278e-17
2.11623e-16
5.22046e-17
1.43019e-16
2.94152e-17
8.20952e-17
1.47461e-17
4.12535e-17
6.62339e-18
1.84946e-17
2.64116e-18
7.49888e-18
8.04634e-19
2.65606e-18
4.9235e-19
4.18432e-23
3.31157e-22
3.84895e-21
2.87898e-20
6.24193e-20
4.70587e-19
3.8932e-19
3.09998e-18
1.58577e-18
1.15088e-17
9.39755e-18
4.84675e-17
1.82335e-16
5.26832e-16
8.87287e-15
2.34679e-15
3.04321e-13
2.36181e-13
5.54935e-12
3.07512e-12
6.155e-11
1.38527e-10
1.46639e-10
6.26428e-11
2.47754e-10
-3.24919e-11
9.46278e-09
-3.76251e-10
5.17239e-07
-4.00129e-08
1.02689e-06
-1.21847e-06
9.50206e-07
-1.51943e-06
8.9923e-07
-1.53383e-06
8.90857e-07
-1.60804e-06
8.89926e-07
-1.62053e-06
8.80731e-07
-1.3163e-06
8.68673e-07
-1.2726e-06
8.68309e-07
-1.27072e-06
8.9258e-07
-1.27463e-06
9.14126e-07
-1.17403e-06
8.45811e-07
-9.24957e-07
4.36601e-07
-4.15403e-07
3.92067e-08
-4.73443e-08
9.91789e-10
-1.90587e-09
1.47119e-10
-2.89299e-10
2.11489e-10
-5.14121e-10
1.38942e-12
1.74031e-12
0
5.26065e-12
1.6343e-12
5.62479e-12
0
3.34796e-12
0
2.12591e-13
1.44465e-15
1.22289e-13
0
2.18189e-14
0
5.84573e-15
5.14366e-17
1.26433e-15
6.97422e-17
4.03332e-16
6.73393e-17
2.54029e-16
5.88354e-17
2.00313e-16
3.83145e-17
1.32731e-16
2.11524e-17
7.3945e-17
1.04079e-17
3.60281e-17
4.62758e-18
1.578e-17
1.84076e-18
6.32285e-18
5.32424e-19
2.15854e-18
3.38165e-19
1.42739e-22
1.09937e-21
7.07817e-21
4.70766e-20
9.78169e-20
6.51072e-19
5.99131e-19
4.32701e-18
2.12564e-18
1.58936e-17
1.19902e-17
4.16349e-17
4.26998e-16
6.73644e-16
6.36783e-15
2.63164e-14
2.46082e-13
8.41634e-14
1.92229e-11
5.79858e-12
9.70628e-11
1.69065e-10
1.038e-10
2.32138e-11
1.49343e-10
-2.54945e-11
1.69587e-09
-9.91167e-10
4.73055e-08
-1.82865e-09
6.80145e-07
-1.54004e-07
8.98528e-07
-1.21509e-06
8.77735e-07
-1.50401e-06
8.8029e-07
-1.60921e-06
8.86439e-07
-1.62619e-06
8.83739e-07
-1.3132e-06
8.76919e-07
-1.2651e-06
8.64275e-07
-1.25674e-06
8.42691e-07
-1.24695e-06
7.29473e-07
-9.75717e-07
2.75856e-07
-3.05196e-07
4.62352e-08
-2.78829e-08
1.54985e-09
-1.38552e-09
1.38842e-11
-1.784e-10
1.35808e-10
-1.19437e-10
1.13256e-10
-2.22938e-10
4.07323e-12
1.74289e-12
4.72468e-15
3.12579e-12
3.22257e-13
0
1.93442e-13
5.32193e-12
0
2.1112e-13
2.4068e-15
6.49269e-14
0
9.42111e-15
5.2001e-17
4.35644e-15
3.47528e-17
8.697e-16
4.845e-17
3.42545e-16
4.57807e-17
2.37285e-16
3.95166e-17
1.84997e-16
2.45939e-17
1.16329e-16
1.31183e-17
6.1492e-17
6.29681e-18
2.87356e-17
2.76922e-18
1.22762e-17
1.08447e-18
4.82858e-18
2.86193e-19
1.53706e-18
1.89924e-19
3.44775e-22
2.27646e-21
1.0478e-20
6.13129e-20
1.28733e-19
7.53344e-19
7.98916e-19
4.98089e-18
2.74197e-18
1.90221e-17
1.87213e-17
4.09618e-17
8.95156e-16
8.98112e-16
9.20911e-15
2.45258e-14
1.3585e-13
5.23843e-14
3.29867e-12
3.40256e-11
7.79422e-11
1.54283e-10
7.88779e-11
1.57583e-11
1.35466e-10
-2.24357e-11
1.3336e-09
-4.29527e-10
2.24656e-09
-1.87785e-10
6.34552e-08
-3.08515e-09
6.73314e-07
-1.15584e-07
8.91487e-07
-8.79373e-07
8.79164e-07
-1.53206e-06
8.88489e-07
-1.62285e-06
9.08119e-07
-1.32259e-06
9.30087e-07
-1.2642e-06
8.87838e-07
-9.92418e-07
5.23431e-07
-5.51958e-07
1.18751e-07
-1.17411e-07
2.47477e-08
-1.06196e-08
9.83781e-10
-1.80129e-09
1.84542e-12
-1.80899e-10
4.00667e-11
-2.92338e-11
8.54521e-11
-3.74321e-11
6.42208e-11
-6.31058e-11
0
4.81385e-13
0
1.61647e-12
6.13032e-14
0
5.97796e-13
5.85923e-12
0
3.54241e-13
0
1.57665e-14
0
4.82089e-15
7.1203e-17
1.99142e-15
2.54236e-17
6.31452e-16
2.79612e-17
3.05652e-16
2.61782e-17
2.16939e-16
2.20294e-17
1.62151e-16
1.27709e-17
9.36407e-17
6.55653e-18
4.6291e-17
3.09105e-18
2.07898e-17
1.34717e-18
8.70304e-18
5.04348e-19
3.28851e-18
1.12406e-19
9.12447e-19
8.33149e-20
5.69026e-22
3.23432e-21
1.27124e-20
6.6081e-20
1.44649e-19
7.67097e-19
8.92221e-19
5.03421e-18
3.24622e-18
1.9785e-17
1.63115e-17
6.0334e-17
4.06335e-16
9.63929e-16
6.44519e-15
1.2328e-14
2.01319e-13
5.12151e-14
2.51834e-11
1.37574e-10
5.85779e-11
1.42273e-10
3.9468e-11
1.91151e-11
1.61177e-10
-6.5555e-12
2.90473e-10
-2.80055e-10
4.75137e-11
-4.10949e-11
6.67533e-10
-1.4107e-10
2.15339e-08
-3.88111e-09
3.91205e-07
-1.39766e-08
6.38392e-07
-3.12207e-07
6.46443e-07
-4.97852e-07
6.28476e-07
-4.0264e-07
4.54342e-07
-2.49993e-07
1.80252e-07
-2.01161e-08
7.7679e-08
-5.96244e-09
5.4406e-09
-2.14514e-09
2.19845e-10
-7.92593e-10
1.97026e-11
-2.23142e-10
0
-3.02418e-11
1.0324e-11
-6.20218e-12
2.36774e-11
-8.43776e-12
2.01933e-11
-3.89263e-12
0
8.64692e-13
6.05245e-14
1.49124e-14
1.333e-13
9.22066e-14
6.85134e-14
7.76498e-13
0
5.86257e-14
9.71215e-19
2.02388e-15
2.39863e-17
2.66428e-15
8.27306e-18
6.47471e-16
1.09398e-17
4.72714e-16
1.01828e-17
2.7558e-16
9.84171e-18
1.90551e-16
8.14668e-18
1.30688e-16
4.49274e-18
6.82598e-17
2.29833e-18
3.19854e-17
1.0939e-18
1.40668e-17
4.71931e-19
5.75969e-18
1.60161e-19
1.9919e-18
2.71626e-20
4.43181e-19
2.63373e-20
7.25939e-22
3.6568e-21
1.34594e-20
6.61933e-20
1.49645e-19
7.57433e-19
9.26793e-19
4.93773e-18
3.69361e-18
2.02039e-17
1.83419e-17
9.08026e-17
5.7842e-16
1.02803e-15
2.00045e-14
5.11742e-15
9.68053e-12
4.27403e-12
2.99965e-11
4.95895e-11
3.37541e-11
9.67654e-13
2.10421e-11
1.94745e-11
7.93655e-12
-1.56277e-11
4.385e-11
-1.14234e-10
2.08233e-11
-9.39999e-12
7.03696e-11
-2.69724e-11
3.39761e-10
-2.27522e-10
3.54222e-10
-8.37294e-10
9.52606e-09
-1.47416e-09
3.49991e-08
-2.97698e-09
3.30196e-08
-1.97468e-09
1.04022e-08
-1.3523e-09
1.0186e-09
-1.12048e-09
2.49953e-10
-5.8404e-10
1.68222e-10
-2.43308e-10
2.26648e-10
-2.08133e-10
0
-5.27097e-11
0
-6.32335e-12
1.62528e-12
-1.48901e-12
3.43716e-12
-2.23294e-12
2.16345e-12
0
0
1.72111e-13
0
2.12243e-14
9.84397e-16
0
-6.55851e-15
0
-1.54348e-15
4.1419e-14
-1.55039e-16
1.19987e-15
-3.99248e-17
4.96168e-16
-2.1827e-17
4.24663e-16
-9.94184e-18
3.74407e-16
-4.62902e-18
2.36436e-16
-1.91892e-18
1.56957e-16
-4.62839e-19
9.55083e-17
2.00484e-20
4.6208e-17
1.00283e-19
2.12764e-17
7.52593e-20
9.27504e-18
3.67276e-20
3.58805e-18
1.07061e-20
1.04906e-18
1.16348e-21
1.70435e-19
5.44898e-21
7.9058e-22
3.70783e-21
1.36988e-20
6.43706e-20
1.49516e-19
7.11241e-19
9.50863e-19
4.76748e-18
4.1951e-18
2.15732e-17
2.45576e-17
1.13017e-16
5.25806e-16
8.9094e-16
1.95958e-14
2.66124e-15
3.51955e-12
6.07118e-12
1.06771e-11
1.05893e-12
1.30359e-11
6.72472e-13
1.31506e-10
1.95078e-11
2.90236e-10
-5.25301e-11
2.93925e-11
-8.86905e-11
8.97304e-13
-2.91904e-12
1.03442e-11
-3.89309e-12
6.29332e-11
-2.71803e-11
1.26984e-10
-1.26179e-10
1.34715e-10
-1.39405e-10
1.5302e-10
-2.36298e-10
9.68304e-11
-2.0662e-10
1.29014e-10
-1.63248e-10
1.92717e-10
-1.72575e-10
1.18032e-10
-1.20297e-10
4.56895e-11
-6.15751e-11
1.82476e-11
-5.1484e-11
2.10768e-13
-2.74321e-11
0
-2.07942e-12
1.07935e-12
-3.12729e-13
2.29322e-12
-4.00491e-13
8.17294e-13
2.81469e-13
0
3.96449e-14
1.12305e-16
9.13857e-15
-4.31213e-15
0
-5.36163e-15
0
-1.22985e-15
8.80391e-15
-1.13854e-16
5.33651e-16
-4.60779e-17
3.91261e-16
-3.70579e-17
3.64902e-16
-2.41128e-17
2.99132e-16
-1.48186e-17
1.92142e-16
-8.51597e-18
1.19775e-16
-4.09209e-18
6.52199e-17
-1.85654e-18
3.09574e-17
-8.06791e-19
1.42921e-17
-3.11822e-19
6.00067e-18
-9.1057e-20
2.04441e-18
-1.49181e-20
4.66041e-19
-6.41976e-22
5.27766e-20
9.29338e-22
8.12893e-22
3.69289e-21
1.33435e-20
5.91728e-20
1.42412e-19
6.35031e-19
9.55805e-19
4.48497e-18
4.67977e-18
2.28005e-17
2.91368e-17
1.20256e-16
1.00326e-15
4.8516e-16
3.5918e-13
4.585e-14
1.50876e-12
2.70409e-12
2.07399e-12
1.10805e-12
1.76396e-11
4.28287e-12
2.5342e-10
4.07415e-11
2.53852e-10
-6.9675e-11
5.60099e-12
-8.39871e-11
5.46422e-14
-2.35707e-12
8.1469e-13
-1.29965e-12
3.95965e-12
-2.33318e-12
1.98857e-11
-8.88298e-12
6.44833e-11
-2.83823e-11
7.75049e-11
-4.18301e-11
7.29043e-11
-4.14781e-11
6.37487e-11
-4.20515e-11
2.34196e-11
-2.62135e-11
1.09538e-11
-1.31467e-11
1.0259e-11
-5.86749e-12
1.58302e-11
-3.04889e-11
4.13775e-12
-1.5046e-11
1.72466e-13
-5.13608e-13
4.51202e-13
-7.02623e-14
1.18663e-12
1.69323e-14
3.99587e-13
1.13779e-13
0
7.11743e-14
-9.62055e-16
2.1042e-15
-1.62099e-15
0
-1.33555e-15
3.82709e-16
-2.57855e-16
4.64196e-16
-7.79732e-17
4.22937e-16
-5.53912e-17
3.59553e-16
-4.6002e-17
3.24064e-16
-3.07997e-17
2.37669e-16
-1.88632e-17
1.49442e-16
-1.03603e-17
8.66483e-17
-5.08599e-18
4.44738e-17
-2.40207e-18
2.13063e-17
-1.03071e-18
9.5739e-18
-3.56019e-19
3.62057e-18
-8.19123e-20
1.00115e-18
-9.50024e-21
1.67137e-19
-2.59647e-22
1.31546e-20
1.68686e-22
8.01233e-22
3.45284e-21
1.22054e-20
5.08542e-20
1.28797e-19
5.39407e-19
9.22121e-19
4.04319e-18
4.977e-18
2.28015e-17
4.62362e-17
1.22723e-16
1.99959e-15
3.16184e-16
7.10316e-14
9.06473e-14
3.52382e-13
2.3254e-13
8.08677e-13
1.44097e-12
4.89736e-12
4.83006e-12
1.76364e-10
4.14063e-11
3.09283e-10
-1.98159e-11
2.69579e-12
-7.05163e-11
0
-2.48905e-12
1.58241e-13
-7.41889e-13
3.27523e-13
-4.32766e-13
1.29971e-12
-7.803e-13
3.13731e-12
-1.66331e-12
6.7691e-12
-3.50062e-12
7.69783e-12
-3.98821e-12
7.14934e-12
-3.87118e-12
5.97496e-12
-3.35868e-12
4.30676e-12
-2.05428e-12
9.50217e-12
-2.28542e-13
1.21708e-11
-1.38672e-11
3.02308e-12
-1.18592e-11
3.60846e-13
-5.28803e-13
1.56259e-13
-2.14484e-14
5.03666e-13
5.32382e-14
1.41298e-13
0
-2.35461e-15
2.81603e-13
-5.50552e-16
2.6548e-15
-4.75661e-16
4.04966e-16
-2.69108e-16
3.24819e-16
-1.0499e-16
3.99757e-16
-7.04551e-17
3.65134e-16
-6.18862e-17
3.30552e-16
-4.8866e-17
2.76781e-16
-3.19776e-17
1.86716e-16
-1.88447e-17
1.1324e-16
-1.00371e-17
6.21202e-17
-4.99412e-18
3.12092e-17
-2.30195e-18
1.46612e-17
-8.87215e-19
5.99842e-18
-2.47974e-19
1.88375e-18
-4.18205e-20
3.93243e-19
-3.39387e-21
4.63766e-20
-7.39389e-23
2.61068e-21
3.21036e-23
7.33122e-22
2.95875e-21
1.05034e-20
4.12605e-20
1.11439e-19
4.41047e-19
8.47884e-19
3.48633e-18
4.97442e-18
2.11547e-17
6.50123e-17
9.81094e-17
4.93468e-15
1.32945e-15
3.80495e-14
6.69411e-14
1.59743e-13
1.77294e-13
5.30791e-12
6.98469e-13
6.33931e-11
6.71523e-11
1.84415e-10
4.19945e-11
2.64298e-10
3.35286e-11
1.68992e-12
-7.11344e-11
0
-3.30034e-12
7.8789e-14
-6.32777e-13
5.66562e-14
-1.92646e-13
1.0394e-13
-9.23488e-14
3.23403e-13
-1.5803e-13
7.88935e-13
-3.36168e-13
1.2388e-12
-4.48441e-13
1.31195e-12
-5.23518e-13
1.10277e-12
-4.39407e-13
9.41991e-13
-2.63913e-13
1.96547e-12
-1.47737e-14
1.21323e-11
-3.11285e-12
4.88349e-12
-9.69906e-12
4.55483e-13
-3.80485e-13
7.27698e-14
2.1353e-15
2.21159e-13
4.6159e-14
2.12774e-14
4.02908e-14
-4.97003e-15
8.63657e-13
-3.93452e-16
1.44677e-15
-1.87739e-16
5.70702e-16
-1.21248e-16
4.8221e-16
-8.30622e-17
4.01963e-16
-7.49354e-17
3.45785e-16
-6.55981e-17
3.07167e-16
-4.76425e-17
2.30563e-16
-3.00425e-17
1.46392e-16
-1.70818e-17
8.50743e-17
-8.94473e-18
4.47801e-17
-4.32963e-18
2.17574e-17
-1.80611e-18
9.39579e-18
-5.74282e-19
3.23366e-18
-1.20865e-19
7.82413e-19
-1.45018e-20
1.17505e-19
-8.70248e-22
9.8727e-21
-1.86232e-23
4.47555e-22
6.22536e-24
6.22242e-22
2.35533e-21
8.58168e-21
3.20595e-20
9.28798e-20
3.49813e-19
7.4786e-19
2.90789e-18
4.66633e-18
1.85022e-17
6.7053e-17
9.01676e-17
1.76365e-15
1.80883e-15
1.7705e-14
6.63426e-15
1.95193e-13
7.59502e-14
1.16099e-11
4.20263e-12
5.05313e-11
5.13078e-11
1.9093e-10
1.28409e-10
2.07574e-10
5.60328e-11
1.18769e-12
-1.1738e-10
0
-5.53967e-12
0
-6.98647e-13
2.4316e-14
-1.16484e-13
1.71957e-14
-4.00802e-14
2.57981e-14
-1.89333e-14
8.09344e-14
-3.40941e-14
1.58665e-13
-4.8724e-14
2.0392e-13
-6.02422e-14
1.77539e-13
-5.49673e-14
1.94025e-13
-3.20738e-14
2.70962e-13
-4.42374e-15
5.81722e-12
-6.89709e-13
3.77005e-12
-3.77172e-12
2.42336e-13
-1.32796e-13
5.16315e-15
1.38878e-14
6.12865e-14
1.2851e-14
-4.03417e-14
1.33806e-13
-1.87071e-15
7.89949e-13
-2.64736e-16
8.84545e-16
-1.23162e-16
5.28061e-16
-1.03116e-16
4.79198e-16
-8.93068e-17
3.94202e-16
-8.05338e-17
3.37228e-16
-6.49868e-17
2.76249e-16
-4.41681e-17
1.88061e-16
-2.66915e-17
1.14443e-16
-1.46041e-17
6.29232e-17
-7.33468e-18
3.13424e-17
-3.2323e-18
1.4016e-17
-1.12704e-18
5.15143e-18
-2.75183e-19
1.38537e-18
-4.19665e-20
2.45207e-19
-3.69305e-21
2.64744e-20
-1.8865e-22
1.74458e-21
-4.44174e-24
7.75487e-23
1.2302e-24
4.87379e-22
1.79057e-21
6.80804e-21
2.54151e-20
7.55866e-20
2.74992e-19
6.40977e-19
2.3761e-18
4.35505e-18
1.6108e-17
4.17874e-17
1.09234e-16
6.0748e-16
1.63297e-15
5.77344e-15
2.04304e-15
9.34509e-14
1.68927e-14
6.06492e-12
4.55557e-12
1.16421e-10
1.68552e-11
3.71618e-10
5.6322e-10
3.64033e-10
3.44434e-11
4.83025e-12
-1.05887e-10
0
-6.62114e-12
0
-7.95524e-13
0
-1.11589e-13
7.33161e-15
-2.51371e-14
7.02294e-15
-8.93678e-15
8.92624e-15
-5.06264e-15
2.09493e-14
-5.94012e-15
3.23431e-14
-7.28634e-15
3.32138e-14
-6.79056e-15
4.56861e-14
-3.65605e-15
1.11416e-13
-1.35671e-15
2.83121e-12
-2.12919e-13
2.06881e-12
-3.44241e-13
2.51818e-15
8.63889e-14
0
1.50384e-14
9.8141e-15
3.57357e-15
-6.79853e-14
3.92736e-14
-9.30101e-16
5.58388e-13
-2.44327e-16
6.48971e-16
-1.24615e-16
5.44333e-16
-1.08684e-16
5.05854e-16
-9.73129e-17
3.82749e-16
-8.32087e-17
3.25928e-16
-6.08332e-17
2.39156e-16
-3.92308e-17
1.49682e-16
-2.23922e-17
8.69871e-17
-1.15017e-17
4.40627e-17
-5.2589e-18
1.99609e-17
-1.95963e-18
7.68599e-18
-5.32801e-19
2.23693e-18
-9.58792e-20
4.46855e-19
-1.08025e-20
5.7658e-20
-7.87101e-22
4.86952e-21
-4.0874e-23
3.02804e-22
-1.02517e-24
1.50838e-23
2.44958e-25
4.05672e-22
1.6415e-21
5.94509e-21
2.39938e-20
6.17455e-20
2.28949e-19
5.42187e-19
1.93164e-18
4.06654e-18
1.41709e-17
3.76498e-17
1.21802e-16
3.69078e-16
1.19848e-15
3.00414e-15
1.48919e-15
1.60299e-13
3.13997e-14
4.22595e-12
1.78658e-12
1.61877e-10
1.31518e-11
5.22024e-10
3.96799e-10
6.26254e-10
-3.8383e-11
0
-6.4181e-11
0
-8.43718e-12
0
-2.10978e-12
0
-2.54023e-13
0
-2.98147e-14
2.60517e-15
-6.50978e-15
2.85519e-15
-2.32517e-15
3.53746e-15
-1.12562e-15
6.26189e-15
-9.90079e-16
7.63714e-15
-5.17814e-16
1.74041e-14
-2.51424e-17
8.83087e-14
5.57756e-16
9.2362e-13
1.92291e-14
3.32936e-13
0
1.09026e-13
1.93701e-13
0
1.64201e-14
-7.92233e-17
9.37198e-16
-2.70694e-14
0
-5.75686e-16
4.07244e-15
-2.24733e-16
5.76574e-16
-1.39074e-16
5.47938e-16
-1.14755e-16
5.32879e-16
-1.02718e-16
3.61736e-16
-8.15634e-17
3.06587e-16
-5.38768e-17
1.979e-16
-3.27115e-17
1.13508e-16
-1.71282e-17
6.14008e-17
-7.91446e-18
2.75386e-17
-3.09398e-18
1.07558e-17
-9.12772e-19
3.34155e-18
-1.85972e-19
7.33655e-19
-2.506e-20
1.08634e-19
-2.32227e-21
1.10507e-20
-1.65131e-22
8.65036e-22
-9.22366e-24
5.84383e-23
-2.31021e-25
3.15356e-24
4.87897e-26
4.27064e-22
1.72426e-21
6.23982e-21
2.5606e-20
5.57259e-20
2.20202e-19
4.53285e-19
1.58408e-18
3.65986e-18
1.21667e-17
3.45072e-17
1.1715e-16
2.31548e-16
7.31421e-16
2.10868e-15
9.64089e-16
4.00338e-14
4.01642e-14
4.50284e-13
1.47833e-12
8.13323e-11
4.9781e-12
5.2283e-10
2.29951e-10
6.50952e-10
-8.83303e-11
3.58625e-11
-4.82547e-10
0
-1.06369e-10
0
-5.77028e-12
0
-5.55993e-13
0
-5.101e-14
6.91646e-16
-5.87647e-15
1.3626e-15
-1.58637e-15
1.39855e-15
-5.60907e-16
1.46924e-15
-2.52813e-16
2.46726e-15
-8.63494e-18
8.78732e-15
2.07946e-16
1.83202e-13
4.64143e-14
3.44459e-13
4.6072e-15
3.27799e-13
5.16889e-14
1.19526e-13
5.44681e-13
0
1.8029e-14
-4.50022e-16
9.41604e-16
-2.80856e-15
0
-3.68409e-16
1.37812e-15
-2.05992e-16
6.45312e-16
-1.59518e-16
6.05989e-16
-1.16835e-16
5.39173e-16
-1.03311e-16
3.28347e-16
-7.45744e-17
2.73149e-16
-4.41937e-17
1.51957e-16
-2.45986e-17
7.87315e-17
-1.13506e-17
3.80265e-17
-4.48979e-18
1.44379e-17
-1.41741e-18
4.61842e-18
-3.18907e-19
1.10847e-18
-4.94468e-20
1.83579e-19
-5.49249e-21
2.17051e-20
-4.86442e-22
2.03057e-21
-3.67403e-23
1.68386e-22
-2.13089e-24
1.24314e-23
-5.09817e-26
6.75586e-25
9.64854e-27
5.61394e-22
2.5495e-21
7.87368e-21
3.5923e-20
5.71796e-20
2.3208e-19
3.83908e-19
1.39257e-18
3.01035e-18
9.55585e-18
2.50794e-17
7.26189e-17
1.28818e-16
3.33519e-16
6.63191e-16
6.96787e-16
6.76959e-13
1.3336e-13
7.08321e-12
1.11195e-11
5.62437e-11
7.46974e-12
4.58125e-10
2.75229e-10
5.41558e-10
-1.12823e-10
6.67274e-10
-5.328e-10
0
-1.20416e-10
0
-6.3261e-12
3.21894e-15
-5.86847e-13
1.26964e-15
-5.08958e-14
6.39073e-16
-5.05501e-15
1.15989e-15
-1.1303e-15
1.10924e-15
-3.74834e-16
1.04309e-15
-8.62199e-17
1.21923e-15
1.13718e-16
1.3516e-14
3.89057e-16
3.61507e-13
1.43221e-13
2.72959e-13
3.6151e-14
4.05693e-13
1.46337e-13
8.8118e-14
7.91369e-13
-7.22689e-17
2.80407e-14
-3.51421e-16
7.22697e-16
-6.34471e-16
5.73058e-16
-2.76272e-16
8.06614e-16
-1.98329e-16
6.76043e-16
-1.78111e-16
6.236e-16
-1.16475e-16
5.14878e-16
-9.74367e-17
2.85362e-16
-6.14277e-17
2.18293e-16
-3.23695e-17
1.03699e-16
-1.59013e-17
4.77027e-17
-6.2003e-18
1.95736e-17
-2.01188e-18
6.06523e-18
-4.96612e-19
1.54032e-18
-8.64938e-20
2.8584e-19
-1.11339e-20
3.8301e-20
-1.17031e-21
4.15277e-21
-1.07766e-22
4.05796e-22
-8.54746e-24
3.61779e-23
-4.98305e-25
2.74163e-24
-1.09861e-26
1.47002e-25
1.87281e-27
1.08275e-21
5.56239e-21
1.28249e-20
6.57074e-20
6.64568e-20
2.99957e-19
3.54128e-19
1.36051e-18
2.22868e-18
7.21873e-18
1.44092e-17
4.14543e-17
1.22503e-16
2.0253e-16
1.68726e-15
3.64453e-16
1.09735e-13
4.92633e-13
1.59909e-11
2.87295e-11
7.51932e-11
1.25562e-11
4.95835e-10
4.11069e-10
6.08526e-10
-1.95143e-10
2.98189e-10
-8.71501e-10
3.1211e-12
-5.13643e-11
2.65899e-13
-4.01408e-12
2.28476e-14
-3.74731e-13
3.10029e-15
-3.21874e-14
1.10589e-15
-3.21031e-15
1.04189e-15
-8.24686e-16
1.04263e-15
-2.47116e-16
9.26123e-16
3.091e-17
8.72935e-16
2.31425e-16
1.03772e-13
4.99824e-15
3.50556e-13
1.1629e-13
2.26297e-13
1.2131e-13
2.70086e-13
2.9714e-13
4.46129e-14
1.04142e-12
-7.90186e-16
7.13534e-14
-2.43546e-16
7.10221e-16
-2.45539e-16
6.8824e-16
-2.08428e-16
7.03751e-16
-1.99324e-16
6.90112e-16
-1.81151e-16
5.91705e-16
-1.10361e-16
4.35221e-16
-8.2357e-17
2.28073e-16
-4.38153e-17
1.4822e-16
-2.03716e-17
6.05079e-17
-8.47247e-18
2.42759e-17
-2.70725e-18
8.08712e-18
-7.06347e-19
2.01924e-18
-1.38123e-19
4.10014e-19
-2.01217e-20
6.2505e-20
-2.43316e-21
7.65563e-21
-2.63484e-22
8.55062e-22
-2.52271e-23
8.92734e-23
-2.02252e-24
8.15702e-24
-1.17624e-25
6.10221e-25
-2.29251e-27
3.24321e-26
3.51256e-28
2.58056e-21
1.36777e-20
2.46804e-20
1.34822e-19
9.2397e-20
4.71914e-19
3.54108e-19
1.43934e-18
1.85313e-18
6.45095e-18
1.10203e-17
3.4353e-17
1.44414e-16
1.7775e-16
9.11431e-15
1.28285e-15
1.02371e-12
1.84286e-13
7.29511e-12
1.14265e-11
5.3347e-12
7.35017e-12
5.98595e-10
2.79568e-10
7.51957e-10
-3.1576e-10
5.56021e-11
-5.87244e-10
1.79958e-12
-2.48132e-11
1.65238e-13
-2.39804e-12
1.44664e-14
-2.15336e-13
2.326e-15
-1.78726e-14
1.18568e-15
-2.02193e-15
1.02831e-15
-6.24164e-16
9.10298e-16
-1.26188e-16
7.92495e-16
1.51191e-16
6.7384e-16
3.48751e-16
5.94095e-14
4.81859e-15
2.84952e-13
1.23485e-13
1.76451e-13
1.6027e-13
1.8555e-13
8.62999e-13
-1.75282e-14
1.21558e-12
-5.73833e-16
5.21207e-13
-2.99549e-16
6.23535e-16
-1.85884e-16
6.42227e-16
-2.03018e-16
6.74355e-16
-1.93889e-16
6.20987e-16
-1.59994e-16
4.77808e-16
-9.39773e-17
3.16079e-16
-5.91472e-17
1.61146e-16
-2.63658e-17
8.30537e-17
-1.07046e-17
2.9606e-17
-3.64118e-18
1.01401e-17
-9.48031e-19
2.68339e-18
-2.02166e-19
5.51953e-19
-3.33757e-20
9.44218e-20
-4.53054e-21
1.30704e-20
-5.58521e-22
1.62367e-21
-6.26746e-23
1.92164e-22
-6.06385e-24
2.05591e-23
-4.84026e-25
1.8607e-24
-2.78811e-26
1.37548e-25
-4.56546e-28
7.18464e-27
6.22718e-29
6.03781e-21
3.13962e-20
4.88502e-20
2.70653e-19
1.46094e-19
8.16945e-19
3.87755e-19
1.77207e-18
1.73863e-18
6.15644e-18
1.03298e-17
3.07462e-17
1.17508e-16
1.52436e-16
4.72017e-15
2.85435e-15
8.75089e-14
1.22767e-13
1.26084e-11
1.69746e-12
4.50787e-10
5.59007e-10
7.02132e-10
1.36678e-10
7.81532e-10
-3.64496e-10
1.63111e-11
-2.16312e-10
1.52319e-12
-1.07073e-11
1.29669e-13
-1.06973e-12
1.07656e-14
-9.39971e-14
1.83802e-15
-7.94455e-15
1.11426e-15
-1.27026e-15
9.1907e-16
-4.5449e-16
7.90058e-16
-1.54496e-18
6.64683e-16
2.71563e-16
6.2294e-16
4.66577e-16
7.97591e-14
9.06502e-14
1.48876e-13
7.72448e-14
2.24184e-13
2.33155e-13
6.81202e-14
1.14451e-12
-1.62539e-13
1.32059e-12
-3.80118e-16
5.00742e-13
-3.07451e-16
6.12059e-16
-1.96967e-16
6.41271e-16
-1.92043e-16
6.85609e-16
-1.67071e-16
4.60839e-16
-1.23721e-16
3.51061e-16
-6.8847e-17
2.06278e-16
-3.50307e-17
9.64206e-17
-1.33136e-17
3.85802e-17
-4.64104e-18
1.21713e-17
-1.27567e-18
3.48027e-18
-2.77799e-19
7.45586e-19
-5.10155e-20
1.33249e-19
-7.76055e-21
2.0758e-20
-1.06038e-21
2.84806e-21
-1.34895e-22
3.71155e-22
-1.52761e-23
4.5024e-23
-1.47047e-24
4.76837e-24
-1.16459e-25
4.262e-25
-6.57476e-27
3.11734e-26
-8.47738e-29
1.5843e-27
9.84263e-30
1.28632e-20
6.48613e-20
9.24327e-20
5.06295e-19
2.39959e-19
1.40845e-18
4.84323e-19
2.50746e-18
1.58175e-18
5.95486e-18
6.20431e-18
2.15713e-17
1.0514e-16
4.56713e-17
1.48964e-14
7.64698e-15
7.53332e-13
4.1078e-12
9.4014e-12
1.30961e-12
5.30671e-10
2.90886e-10
7.70347e-10
1.26595e-10
1.87884e-10
-3.3097e-10
6.5066e-12
-1.03345e-10
6.09085e-13
-5.01645e-12
5.1357e-14
-5.20558e-13
4.84167e-15
-4.4949e-14
1.34118e-15
-4.01286e-15
9.84757e-16
-9.21348e-16
8.04653e-16
-2.92661e-16
6.72179e-16
1.25048e-16
5.53446e-16
3.90143e-16
1.06764e-14
3.1562e-15
1.03249e-13
2.51008e-13
7.15269e-14
1.49998e-13
4.71467e-14
4.66683e-13
-8.80989e-14
1.31056e-12
-9.22051e-14
1.37594e-12
-3.18222e-16
1.24825e-13
-2.81596e-16
6.21181e-16
-2.19714e-16
6.37724e-16
-1.64985e-16
6.86263e-16
-1.3334e-16
3.30762e-16
-8.81909e-17
2.45998e-16
-4.23415e-17
1.24628e-16
-1.71998e-17
4.70411e-17
-5.69884e-18
1.52861e-17
-1.67515e-18
4.27163e-18
-3.80342e-19
1.01106e-18
-7.28476e-20
1.85593e-19
-1.23182e-20
3.07062e-20
-1.84983e-21
4.66285e-21
-2.59338e-22
6.59199e-22
-3.32947e-23
8.81059e-23
-3.74517e-24
1.05993e-23
-3.57522e-25
1.10715e-24
-2.79938e-26
9.78951e-26
-1.54044e-27
7.0587e-27
-1.32665e-29
3.48822e-28
1.8889e-30
2.47446e-20
1.2112e-19
1.62757e-19
8.72736e-19
3.90512e-19
2.32508e-18
6.69201e-19
3.78208e-18
1.37586e-18
5.89121e-18
4.11289e-18
1.03519e-17
7.15058e-17
2.73037e-17
3.05397e-13
5.00826e-14
3.14164e-12
6.75948e-12
1.78593e-11
2.36404e-12
2.22963e-10
3.55118e-12
2.63241e-10
0
3.96177e-11
-1.02127e-10
1.25388e-12
-6.22755e-11
1.22476e-13
-4.67636e-12
1.29578e-14
-4.70621e-13
2.04655e-15
-3.67942e-14
1.10207e-15
-3.19844e-15
8.45181e-16
-7.22453e-16
6.71632e-16
-1.29883e-16
5.38175e-16
2.50412e-16
5.49758e-16
5.56408e-16
5.01426e-14
8.93584e-14
1.08948e-13
1.82725e-13
6.39685e-14
2.38565e-13
-2.66101e-14
1.34443e-12
-2.04631e-13
1.5194e-12
-9.88742e-14
9.81327e-13
-3.33039e-16
2.61792e-14
-2.86815e-16
6.31229e-16
-2.34441e-16
6.79319e-16
-1.34274e-16
6.38854e-16
-9.98114e-17
2.28473e-16
-5.74906e-17
1.59693e-16
-2.14807e-17
6.71484e-17
-7.20657e-18
1.88097e-17
-2.10319e-18
5.33522e-18
-5.19012e-19
1.30911e-18
-1.02382e-19
2.61782e-19
-1.82242e-20
4.41341e-20
-2.99984e-21
7.11389e-21
-4.57024e-22
1.09266e-21
-6.46856e-23
1.58069e-22
-8.25076e-24
2.10195e-23
-9.19875e-25
2.49406e-24
-8.67278e-26
2.57879e-25
-6.69041e-27
2.24696e-26
-3.59254e-28
1.59151e-27
-1.76081e-30
7.68484e-29
2.82771e-31
4.33193e-20
2.06807e-19
2.65879e-19
1.39293e-18
6.12861e-19
3.64161e-18
9.12913e-19
5.62077e-18
1.25741e-18
6.30011e-18
1.04931e-17
9.61797e-18
4.36297e-16
8.53724e-17
2.94398e-13
5.94172e-13
3.71491e-12
5.3184e-12
1.68886e-12
1.86128e-12