/*--------------------------------*- C++ -*----------------------------------*\
  =========                 |
  \\      /  F ield         | OpenFOAM: The Open Source CFD Toolbox
   \\    /   O peration     | Website:  https://openfoam.org
    \\  /    A nd           | Version:  9
     \\/     M anipulation  |
\*---------------------------------------------------------------------------*/
FoamFile
{
    format      ascii;
    class       volScalarField;
    location    "0.02";
    object      alpha.water;
}
// * * * * * * * * * * * * * * * * * * * * * * * * * * * * * * * * * * * * * //

dimensions      [0 0 0 0 0 0 0];

internalField   nonuniform List<scalar> 
5000
(
3.30732e-17
1.64811e-15
2.67539e-14
3.1976e-13
3.4281e-12
3.1318e-11
4.19523e-10
6.23179e-09
9.12872e-08
1.26872e-06
3.53196e-06
5.36338e-06
0.00630538
0.696202
0.999875
0.999995
1
1
1
1
1
1
1
1
1
1
0.999999
0.999992
0.999989
0.899555
0.174036
0.000460409
0.000101074
2.20059e-05
5.0006e-06
1.15097e-06
2.54007e-07
5.73149e-08
1.30248e-08
3.02856e-09
6.87984e-10
1.81535e-10
1.05686e-10
6.66206e-11
3.73017e-11
1.77763e-11
7.24744e-12
2.58221e-12
6.93533e-13
1.46675e-13
4.01577e-17
1.52538e-15
2.37024e-14
2.91896e-13
3.18883e-12
2.81678e-11
3.51999e-10
5.12002e-09
7.0181e-08
6.79567e-07
1.28108e-05
1.65296e-05
3.23191e-05
0.612447
0.999844
0.999994
1
1
1
1
1
1
1
1
1
1
0.999999
0.999999
0.999991
0.837622
0.106278
0.000360839
0.000156691
1.60593e-05
4.32456e-06
1.00387e-06
2.27624e-07
5.29598e-08
1.22198e-08
2.84731e-09
6.3805e-10
1.81334e-10
1.18453e-10
7.79596e-11
4.42821e-11
2.16543e-11
9.27754e-12
3.53365e-12
1.05134e-12
2.3198e-13
3.83061e-17
1.147e-15
1.72693e-14
2.32084e-13
2.60863e-12
2.18204e-11
2.52593e-10
3.75637e-09
1.96784e-08
6.31919e-07
4.91991e-05
3.57287e-05
4.2068e-05
0.445689
0.996329
0.999988
0.999999
1
1
1
1
1
1
1
1
1
1
0.999998
0.999967
0.639157
0.0152781
0.000297912
0.00023309
9.15059e-06
3.12195e-06
7.92266e-07
1.73866e-07
4.10672e-08
9.68164e-09
2.26321e-09
4.91807e-10
1.7257e-10
1.26756e-10
8.5214e-11
4.85998e-11
2.43366e-11
1.0933e-11
4.40585e-12
1.41456e-12
3.3184e-13
3.11298e-17
8.53067e-16
1.61662e-14
1.97597e-13
1.98873e-12
1.66713e-11
1.98327e-10
2.43019e-09
1.77023e-09
1.2874e-06
3.97673e-05
2.98921e-05
2.83595e-05
0.247657
0.963773
0.999943
0.999997
1
1
1
1
1
1
1
1
1
0.999999
0.999985
0.956901
0.295333
0.000818709
0.00023455
0.00019413
1.00009e-05
1.68014e-06
6.60346e-07
1.2408e-07
2.91002e-08
6.90692e-09
1.60238e-09
3.43659e-10
1.59235e-10
1.26562e-10
8.85263e-11
5.2002e-11
2.71339e-11
1.27832e-11
5.36072e-12
1.81337e-12
4.3463e-13
2.32369e-17
9.91565e-16
2.08718e-14
2.12019e-13
1.55364e-12
1.43755e-11
1.45858e-10
6.16913e-10
7.84286e-10
2.79018e-06
5.04378e-06
1.78949e-05
2.01893e-05
0.0938034
0.835778
0.999841
0.99999
0.999999
1
1
1
1
1
1
1
0.999999
0.999985
0.999747
0.620947
0.0351092
0.000508606
0.000310881
0.000108293
1.1981e-05
7.02285e-07
6.40418e-07
9.08757e-08
2.22872e-08
4.89568e-09
1.15537e-09
2.56921e-10
1.47649e-10
1.24224e-10
8.899e-11
5.44448e-11
2.92935e-11
1.40396e-11
6.02927e-12
2.1378e-12
4.92102e-13
1.80673e-17
1.74469e-15
3.60292e-14
2.81536e-13
1.49094e-12
1.1558e-11
1.03409e-10
9.83805e-11
4.91741e-08
2.07459e-06
2.06647e-06
3.21885e-05
2.86372e-05
0.0103675
0.53812
0.997024
0.999963
0.999995
0.999999
1
1
1
1
1
0.999997
0.999988
0.999751
0.79376
0.112314
0.000354545
0.000701544
0.000311066
5.07139e-05
1.29115e-05
4.84348e-07
4.44515e-07
6.58741e-08
1.78339e-08
3.53451e-09
8.88911e-10
2.20605e-10
1.40292e-10
1.20527e-10
8.73128e-11
5.3365e-11
2.8531e-11
1.35784e-11
5.81423e-12
2.12104e-12
4.2185e-13
3.81543e-17
3.65117e-15
6.35023e-14
4.25211e-13
1.70622e-12
8.83169e-12
7.88892e-11
8.24455e-11
4.3565e-08
5.16494e-07
1.01944e-05
8.41808e-05
0.000103375
0.000105627
0.165609
0.874077
0.999676
0.999954
0.999995
0.999998
0.999998
0.999998
0.999997
0.999983
0.999964
0.999626
0.815251
0.15443
0.000186447
0.000109023
0.00052454
0.000260943
8.77152e-06
1.09119e-05
1.10822e-06
1.1027e-07
6.66089e-08
1.25615e-08
2.79635e-09
6.60659e-10
1.98779e-10
1.35111e-10
1.15869e-10
8.31192e-11
4.98792e-11
2.60994e-11
1.22128e-11
5.19517e-12
1.8951e-12
3.03086e-13
1.25003e-16
6.50136e-15
9.51689e-14
6.26176e-13
2.2829e-12
6.95598e-12
9.38157e-11
2.05929e-09
6.85395e-09
3.41587e-07
4.5679e-05
5.64959e-05
0.000106733
0.000322293
0.000187839
0.36136
0.970105
0.999676
0.99995
0.999971
0.999975
0.999969
0.999938
0.999695
0.995568
0.698207
0.127986
8.89878e-05
2.53203e-05
9.66601e-05
0.000210997
0.000104838
3.79743e-06
3.75695e-06
2.77099e-06
6.17629e-08
4.72346e-08
6.47177e-09
2.4656e-09
4.69646e-10
1.75896e-10
1.29487e-10
1.09497e-10
7.55711e-11
4.35273e-11
2.19849e-11
1.00609e-11
4.23058e-12
1.47395e-12
1.91046e-13
2.96363e-16
9.35007e-15
1.19975e-13
7.93781e-13
2.95268e-12
6.41029e-12
1.2025e-10
4.76581e-09
3.24406e-09
5.77127e-07
4.7419e-05
1.52353e-05
0.00012651
0.000732603
0.000140324
9.18896e-05
0.387684
0.897735
0.997804
0.999557
0.999564
0.999
0.982233
0.817885
0.431151
0.0568769
8.89878e-05
2.47704e-05
1.84874e-05
4.40012e-05
0.000130868
1.2922e-05
3.08651e-06
1.44425e-06
2.92289e-06
1.57e-07
1.70888e-08
3.12722e-09
1.57667e-09
3.52124e-10
1.60279e-10
1.21711e-10
9.95726e-11
6.4024e-11
3.46833e-11
1.68226e-11
7.54272e-12
3.09208e-12
9.74114e-13
9.64749e-14
4.80829e-16
1.10116e-14
1.29241e-13
8.41141e-13
3.21039e-12
8.25862e-12
1.41175e-10
1.70684e-09
1.85097e-09
1.77451e-05
4.74882e-05
1.48645e-05
5.39746e-05
0.000319832
4.64083e-05
3.66958e-05
9.18896e-05
0.194992
0.537937
0.706528
0.690749
0.575778
0.329266
0.113669
0.000143453
0.00016435
0.000111206
2.94651e-05
4.66003e-06
1.39344e-05
3.93082e-05
4.28232e-06
5.10691e-07
5.1985e-07
2.16446e-06
3.58896e-08
2.66852e-09
2.21579e-09
5.58629e-10
2.66651e-10
1.48756e-10
1.10659e-10
8.45795e-11
4.94205e-11
2.51854e-11
1.18669e-11
5.2316e-12
2.0206e-12
5.35025e-13
3.72442e-14
6.00191e-16
1.12293e-14
1.28039e-13
8.30251e-13
3.28165e-12
1.24445e-11
1.60103e-10
1.65806e-10
2.55659e-07
2.41969e-05
2.57147e-05
1.48299e-05
4.99336e-05
4.31243e-05
8.03836e-06
3.26504e-05
0.000109975
0.000117577
0.000798835
0.0289095
0.0217922
7.2921e-05
0.000128363
0.000125643
9.45029e-05
0.000217473
7.00432e-05
6.11748e-06
1.39031e-06
3.17663e-06
4.32108e-06
1.61428e-06
3.44739e-08
1.70663e-07
1.18848e-07
2.67899e-08
4.43196e-10
5.75953e-10
2.42918e-10
2.09123e-10
1.32417e-10
9.52544e-11
6.54796e-11
3.48716e-11
1.71707e-11
8.00463e-12
3.40713e-12
1.16052e-12
2.36102e-13
1.00068e-14
6.34314e-16
1.10552e-14
1.23097e-13
8.09923e-13
3.4579e-12
1.71551e-11
1.47216e-10
1.20662e-10
9.92836e-07
9.60246e-06
1.85487e-06
1.22572e-05
0.000284213
8.68165e-05
3.29039e-06
3.74894e-06
2.47796e-05
0.000110232
6.75883e-05
3.26466e-05
4.01658e-05
4.62856e-05
0.000125782
0.000143388
9.31518e-05
4.14048e-05
1.42776e-05
1.45047e-06
3.078e-07
1.64522e-06
3.40108e-06
1.1122e-07
1.88142e-08
1.96081e-08
1.35742e-08
1.40137e-08
2.18026e-10
1.88894e-10
1.85322e-10
1.67264e-10
1.11631e-10
7.61826e-11
4.64491e-11
2.3558e-11
1.15606e-11
5.28601e-12
2.05359e-12
5.68559e-13
8.23191e-14
1.76635e-15
6.32803e-16
1.04644e-14
1.13318e-13
7.75111e-13
3.73609e-12
1.91982e-11
4.91514e-11
1.53337e-09
1.08091e-06
4.73483e-07
5.57944e-07
2.4843e-05
0.000398286
0.000122121
6.19062e-07
5.1721e-07
1.50472e-06
5.47788e-06
2.55593e-05
3.26386e-05
3.94035e-05
4.74545e-05
2.57109e-05
1.05527e-05
5.30142e-06
1.50378e-05
1.18099e-05
7.68133e-07
9.12092e-08
8.06769e-07
2.37184e-06
3.41947e-08
2.81827e-09
3.37314e-09
2.50831e-09
1.13377e-09
2.0185e-10
1.69296e-10
1.64818e-10
1.3412e-10
8.95556e-11
5.69314e-11
3.18265e-11
1.6131e-11
7.843e-12
3.33753e-12
1.09544e-12
2.2877e-13
2.26292e-14
2.73072e-16
6.09907e-16
9.33349e-15
9.90056e-14
7.15745e-13
3.80707e-12
1.99213e-11
2.00696e-11
1.19931e-08
2.62525e-07
1.82413e-07
3.23538e-07
3.98179e-05
0.000403726
0.000113505
4.32614e-07
3.67704e-07
1.84733e-07
4.48823e-07
8.11207e-07
2.03638e-06
3.10455e-06
3.08154e-06
3.34894e-06
2.37692e-06
7.39821e-07
1.28904e-05
9.6854e-06
2.47582e-07
6.60972e-08
3.71864e-07
1.45163e-06
8.76456e-08
7.78411e-10
7.75439e-10
4.97323e-10
1.71729e-10
1.67879e-10
1.55995e-10
1.43602e-10
1.06417e-10
6.92287e-11
4.12587e-11
2.22343e-11
1.12407e-11
5.13714e-12
1.88854e-12
4.8512e-13
7.20629e-14
4.76553e-15
4.70661e-17
5.47521e-16
7.82992e-15
8.29162e-14
6.33109e-13
3.6562e-12
1.74385e-11
1.13567e-10
1.46058e-08
9.86499e-09
3.77062e-08
1.98418e-05
3.17285e-05
0.000410613
0.000111702
3.40435e-07
2.6775e-07
6.45568e-08
4.09066e-08
8.61066e-08
2.01252e-07
3.7725e-07
5.54307e-07
5.5628e-07
3.71059e-07
1.31937e-08
4.66798e-06
8.68931e-06
6.54523e-07
4.90866e-08
1.74872e-07
8.86682e-07
3.26421e-07
3.31543e-10
3.31477e-10
2.45899e-10
1.6394e-10
1.5365e-10
1.46042e-10
1.21756e-10
8.39524e-11
5.26293e-11
2.99617e-11
1.57455e-11
7.54506e-12
3.01462e-12
8.86992e-13
1.6679e-13
1.69199e-14
7.74862e-16
8.7144e-18
4.55781e-16
6.23794e-15
6.69992e-14
5.39216e-13
3.30079e-12
1.40752e-11
2.58251e-10
7.1129e-09
3.26072e-09
4.52201e-07
2.05777e-05
2.42669e-05
0.000418126
0.000150894
3.19684e-07
1.99301e-07
4.12892e-08
1.02271e-08
8.11298e-09
1.77106e-08
4.09693e-08
6.99068e-08
8.28582e-08
6.15983e-08
7.81361e-09
1.21546e-06
5.93952e-06
7.62652e-07
2.68713e-08
5.07775e-08
4.84989e-07
5.07288e-07
2.72044e-10
2.27336e-10
1.91479e-10
1.65524e-10
1.49227e-10
1.33925e-10
1.00904e-10
6.62139e-11
3.96025e-11
2.15168e-11
1.06582e-11
4.51413e-12
1.46373e-12
3.2187e-13
4.22608e-14
2.95361e-15
1.12775e-16
1.69187e-18
3.49095e-16
4.81223e-15
5.296e-14
4.46794e-13
2.89458e-12
1.63937e-11
2.74787e-10
1.11548e-09
1.59295e-09
1.21666e-06
3.91792e-06
0.000232473
0.000422648
0.000178406
4.06521e-07
2.0945e-07
2.40329e-08
6.49462e-09
2.48759e-09
2.60574e-09
5.06686e-09
9.32655e-09
1.48874e-08
1.18496e-08
5.11979e-09
7.32029e-07
2.77008e-06
6.7187e-07
1.12495e-08
7.43112e-09
2.05991e-07
4.87504e-07
2.21494e-10
2.11102e-10
1.98469e-10
1.63288e-10
1.45203e-10
1.18656e-10
8.18426e-11
5.14579e-11
2.87609e-11
1.44978e-11
6.39101e-12
2.22478e-12
5.47661e-13
8.57931e-14
7.87861e-15
4.40339e-16
1.98301e-17
3.35277e-19
2.81336e-16
4.1033e-15
4.2236e-14
3.65955e-13
2.55497e-12
2.02557e-11
2.34328e-10
2.62031e-10
4.89345e-09
2.97959e-07
2.60116e-07
0.000415267
0.000422648
0.000120255
1.60693e-06
3.1043e-07
2.81248e-08
5.23657e-09
1.7048e-09
9.16254e-10
1.05836e-09
1.83496e-09
2.86457e-09
3.022e-09
3.3183e-09
6.47922e-07
5.16424e-07
4.49091e-07
1.28041e-08
2.93643e-09
2.06319e-08
9.02071e-08
2.15324e-10
2.11046e-10
2.10674e-10
1.56252e-10
1.38882e-10
1.01014e-10
6.40071e-11
3.79664e-11
1.91786e-11
8.56651e-12
3.15045e-12
8.44901e-13
1.50984e-13
1.68957e-14
1.23415e-15
7.45499e-17
4.20839e-18
6.65867e-20
2.9125e-16
4.28385e-15
3.77729e-14
2.98958e-13
2.24212e-12
1.99101e-11
1.61277e-10
1.17338e-10
5.66326e-09
6.82794e-09
3.64216e-08
0.000372114
0.000422648
0.000212877
1.1705e-05
5.72335e-07
4.90522e-08
4.41566e-09
1.33955e-09
7.04886e-10
5.24856e-10
6.09285e-10
5.48132e-10
5.33302e-10
3.22951e-08
1.48426e-07
2.09748e-07
4.75967e-07
9.36085e-09
8.18775e-10
2.01607e-09
2.40974e-10
2.40855e-10
2.27847e-10
2.15873e-10
1.44315e-10
1.27857e-10
8.09359e-11
4.66891e-11
2.52743e-11
1.10668e-11
4.15726e-12
1.20292e-12
2.38542e-13
3.11588e-14
2.79588e-15
2.10813e-16
1.57564e-17
9.3829e-19
1.31223e-20
3.7399e-16
5.37362e-15
3.91582e-14
2.51205e-13
1.84737e-12
1.5143e-11
8.41522e-11
8.68631e-11
2.18759e-09
2.6019e-06
1.33988e-06
0.000244748
0.000423793
0.000420727
5.63468e-05
2.84132e-07
2.75011e-08
2.90765e-09
7.32915e-10
5.6366e-10
4.69195e-10
4.53613e-10
4.34041e-10
4.42219e-10
1.49061e-07
1.20358e-07
1.7641e-07
5.2209e-07
1.17871e-08
4.02483e-10
5.39603e-10
2.49828e-10
2.46856e-10
2.39078e-10
2.10313e-10
1.28572e-10
1.08427e-10
5.88403e-11
3.04369e-11
1.43764e-11
5.23391e-12
1.5792e-12
3.46852e-13
5.1429e-14
5.46756e-15
4.95026e-16
4.41565e-17
3.62943e-18
2.09636e-19
2.5323e-21
7.07122e-16
8.85654e-15
4.66362e-14
2.35764e-13
1.38872e-12
8.70853e-12
3.76343e-11
4.05469e-11
9.32486e-08
6.74381e-06
2.73728e-06
0.000331911
0.000425055
0.000395946
2.79897e-05
2.0683e-07
1.92501e-08
2.19351e-09
5.63896e-10
4.62701e-10
4.38359e-10
4.3242e-10
4.32621e-10
1.54889e-09
1.64446e-07
1.20207e-07
1.50354e-07
5.33223e-07
9.08813e-09
2.21847e-10
3.15684e-10
2.50496e-10
2.53735e-10
2.322e-10
1.88863e-10
1.07292e-10
8.02385e-11
3.72963e-11
1.70059e-11
6.67395e-12
1.96047e-12
4.63818e-13
7.83051e-14
9.58617e-15
1.01221e-15
1.05609e-16
1.02906e-17
8.33662e-19
4.70249e-20
4.69348e-22
1.68358e-15
1.75731e-14
6.78316e-14
2.44959e-13
1.16036e-12
6.25864e-12
3.25912e-11
1.03014e-10
1.6988e-08
3.01544e-06
2.92737e-06
0.000409655
0.000425055
0.000229085
3.18127e-06
1.10513e-07
1.06445e-08
1.36087e-09
4.82276e-10
4.38388e-10
4.3242e-10
4.32055e-10
4.3242e-10
4.32606e-10
1.6299e-07
1.20646e-07
2.25546e-07
5.43702e-07
1.53158e-07
2.07973e-10
2.43495e-10
2.37121e-10
2.3995e-10
2.01799e-10
1.48138e-10
8.08591e-11
4.97135e-11
2.00264e-11
7.88198e-12
2.47025e-12
5.82617e-13
1.09985e-13
1.55277e-14
1.8583e-15
2.20117e-16
2.49689e-17
2.42755e-18
1.91109e-19
1.0555e-20
8.10959e-23
3.96283e-15
3.57692e-14
1.14111e-13
2.84407e-13
1.10352e-12
5.69696e-12
2.81044e-11
3.53234e-10
4.23059e-10
4.10246e-09
0.000123211
0.00042252
0.000425055
0.000110236
5.91422e-07
5.43905e-08
5.42896e-09
8.5048e-10
4.50917e-10
4.33361e-10
4.32048e-10
4.32055e-10
4.32055e-10
1.71931e-08
7.09079e-08
1.185e-07
5.73414e-07
5.67098e-07
2.19411e-07
2.03235e-10
2.12616e-10
2.35977e-10
1.92716e-10
1.5553e-10
1.02245e-10
5.28184e-11
2.54413e-11
9.01281e-12
2.98288e-12
7.38342e-13
1.44233e-13
2.33011e-14
3.14409e-15
4.10705e-16
5.25558e-17
5.96329e-18
5.66505e-19
4.37981e-20
2.34317e-21
1.23951e-23
8.51616e-15
6.9086e-14
1.9855e-13
3.81766e-13
1.05675e-12
4.62113e-12
7.63098e-12
4.32393e-10
5.68382e-08
9.30959e-08
0.000256799
0.000415732
0.000284609
2.81194e-05
2.65054e-07
2.4071e-08
2.59868e-09
5.75505e-10
4.38392e-10
4.32388e-10
4.32071e-10
4.32055e-10
4.3207e-10
7.19876e-08
7.27242e-08
1.25814e-07
5.80657e-07
5.77268e-07
6.52459e-08
2.00258e-10
2.03235e-10
2.3543e-10
1.41113e-10
1.12098e-10
6.44851e-11
2.86331e-11
1.09145e-11
3.4188e-12
9.30047e-13
1.87803e-13
3.24309e-14
4.95152e-15
7.03132e-16
9.85899e-17
1.26752e-17
1.4057e-18
1.31403e-19
9.98867e-21
5.159e-22
1.17873e-24
1.65628e-14
1.23564e-13
3.35806e-13
5.67602e-13
1.0577e-12
2.27162e-12
2.14281e-12
3.56969e-12
1.21436e-06
2.74046e-07
7.08607e-05
0.000139115
5.47698e-05
1.76678e-05
1.89776e-07
1.74169e-08
1.71684e-09
4.87394e-10
4.3499e-10
4.32147e-10
4.32123e-10
4.32071e-10
1.0121e-08
1.19979e-07
7.82111e-08
2.79042e-07
5.80657e-07
5.72736e-07
1.99193e-10
1.96737e-10
2.10829e-10
2.25905e-10
9.92731e-11
7.56405e-11
3.68782e-11
1.26432e-11
4.04252e-12
1.1108e-12
2.48198e-13
4.38694e-14
7.22017e-15
1.12377e-15
1.69142e-16
2.39737e-17
3.01998e-18
3.29763e-19
3.03044e-20
2.26061e-21
1.13664e-22
2.51833e-26
2.93964e-14
2.04497e-13
5.42214e-13
8.5333e-13
1.10467e-12
1.57408e-12
1.74322e-12
4.84774e-08
1.35673e-06
9.41933e-07
4.73255e-07
9.03187e-06
1.56821e-05
1.23215e-05
1.50455e-06
2.58519e-08
1.60119e-09
4.81078e-10
4.36229e-10
4.34086e-10
4.32157e-10
4.01811e-09
1.00888e-07
1.24757e-07
1.31428e-07
5.76577e-07
5.80657e-07
2.65128e-07
1.70005e-10
1.91055e-10
2.53137e-10
1.91617e-10
6.53161e-11
4.66281e-11
1.82476e-11
4.66509e-12
1.32851e-12
3.16493e-13
6.0178e-14
1.00835e-14
1.67086e-15
2.70422e-16
4.14689e-17
5.77666e-18
7.16573e-19
7.71305e-20
6.96542e-21
5.07523e-22
2.49741e-23
-2.68001e-29
4.81085e-14
3.15509e-13
8.24646e-13
1.27334e-12
1.37381e-12
1.65005e-12
1.94267e-12
1.79196e-07
1.34885e-06
4.04266e-07
1.36318e-07
6.5681e-07
5.27438e-06
1.9778e-05
3.53472e-06
1.72294e-08
1.686e-09
5.11377e-10
4.45206e-10
4.36299e-10
5.88796e-09
6.3144e-08
9.35492e-08
5.24033e-08
2.66096e-07
5.66225e-07
5.76792e-07
3.60773e-09
1.40121e-10
1.86922e-10
2.55384e-10
1.47348e-10
3.92458e-11
2.54273e-11
7.45776e-12
1.5155e-12
3.94666e-13
8.15722e-14
1.40913e-14
2.37283e-15
4.03893e-16
6.66231e-17
1.01171e-17
1.388e-18
1.69794e-19
1.79442e-20
1.60141e-21
1.13878e-22
5.4993e-24
-3.70573e-30
7.3193e-14
4.5846e-13
1.19386e-12
1.83673e-12
1.96649e-12
2.14692e-12
2.67457e-12
2.10072e-07
7.14636e-07
1.02888e-07
2.39906e-08
4.0221e-06
4.21225e-05
2.05563e-05
6.55531e-08
7.39764e-09
1.18289e-09
7.24058e-10
5.26836e-10
3.56157e-09
5.15736e-08
6.31744e-08
1.69304e-08
1.90455e-08
2.60666e-07
5.59522e-07
2.49826e-07
1.39956e-10
1.02065e-10
1.83638e-10
2.41938e-10
7.538e-11
2.16253e-11
1.17497e-11
2.47733e-12
4.52682e-13
1.07576e-13
1.97714e-14
3.32649e-15
5.77193e-16
1.0006e-16
1.64327e-17
2.46115e-18
3.33729e-19
4.01242e-20
4.16288e-21
3.68112e-22
2.58187e-23
1.22246e-24
-5.07283e-31
1.04023e-13
6.2888e-13
1.63674e-12
2.51033e-12
2.4396e-12
2.33273e-12
2.30357e-09
7.68593e-08
2.28147e-08
5.24317e-08
2.15818e-08
4.03952e-05
4.36232e-05
7.24644e-06
2.67718e-08
2.91276e-09
9.88453e-10
8.90657e-10
1.22684e-09
8.85221e-09
2.94527e-08
1.84848e-08
2.29664e-09
2.26223e-08
1.03309e-07
1.10131e-07
2.25502e-09
1.06394e-10
9.86885e-11
1.6709e-10
1.80356e-10
2.88574e-11
1.08349e-11
4.39897e-12
6.92466e-13
1.27033e-13
2.74215e-14
4.69928e-15
8.07526e-16
1.43854e-16
2.49451e-17
4.04855e-18
5.99795e-19
8.02108e-20
9.4769e-21
9.67795e-22
8.47295e-23
5.87918e-24
2.73493e-25
-6.85045e-32
1.3779e-13
8.05155e-13
2.09287e-12
3.18383e-12
2.58861e-12
9.39029e-11
6.34767e-09
5.60186e-09
9.15143e-09
1.68913e-08
2.02885e-08
5.07376e-05
3.40538e-05
4.90753e-07
9.4873e-09
1.3072e-09
8.92017e-10
8.88086e-10
1.79646e-09
4.90769e-09
1.58811e-09
1.18469e-09
1.94273e-09
1.13746e-08
4.19585e-09
3.3967e-09
2.6028e-10
8.51108e-11
8.29514e-11
1.30731e-10
8.45557e-11
1.1363e-11
4.76259e-12
1.31929e-12
1.76134e-13
3.38707e-14
6.71708e-15
1.13227e-15
2.01738e-16
3.62408e-17
6.22519e-18
1.00035e-18
1.46509e-19
1.9306e-20
2.24755e-21
2.2621e-22
1.95645e-23
1.33973e-24
6.12876e-26
-1.67252e-32
1.68965e-13
9.45046e-13
2.43439e-12
3.79568e-12
3.89118e-12
3.19699e-10
4.79991e-09
2.85068e-09
4.07508e-09
5.8765e-09
2.38402e-05
5.15039e-05
1.93348e-05
5.97426e-08
4.05698e-09
9.30715e-10
8.31513e-10
8.85669e-10
1.15231e-09
8.12388e-10
7.31933e-10
8.87502e-10
1.29875e-09
1.74988e-09
1.03588e-09
7.44779e-10
1.09661e-10
6.41701e-11
6.89056e-11
8.0773e-11
2.67082e-11
4.73896e-12
1.74837e-12
3.32539e-13
4.3977e-14
8.69489e-15
1.63178e-15
2.80829e-16
5.13103e-17
9.15962e-18
1.55924e-18
2.48194e-19
3.59043e-20
4.67236e-21
5.37475e-22
5.33233e-23
4.54967e-24
3.06953e-25
1.37742e-26
-1.11035e-33
1.91129e-13
1.00702e-12
2.64897e-12
4.74031e-12
2.16971e-11
3.23855e-10
7.78273e-10
7.11176e-10
1.01988e-09
1.08723e-08
4.95435e-05
5.14587e-05
8.35891e-06
2.04082e-08
1.57957e-09
7.98206e-10
8.00156e-10
7.89082e-10
6.09823e-10
6.22084e-10
7.07304e-10
8.92774e-10
9.83933e-10
4.8523e-10
3.96313e-10
2.37888e-10
6.34898e-11
5.19729e-11
5.33768e-11
3.80267e-11
7.90216e-12
1.84257e-12
5.25577e-13
7.74412e-14
1.11512e-14
2.18994e-15
4.0282e-16
7.15231e-17
1.3142e-17
2.32363e-18
3.92673e-19
6.18646e-20
8.85559e-21
1.14117e-21
1.29876e-22
1.27169e-23
1.07038e-24
7.13491e-26
3.11827e-27
-1.27887e-34
2.0368e-13
1.03107e-12
2.74059e-12
5.46729e-12
2.39598e-11
1.88936e-10
1.66208e-10
2.33329e-10
7.50571e-07
1.87376e-06
4.93541e-05
3.75188e-05
8.98756e-07
4.24322e-09
8.0502e-10
7.07194e-10
8.01234e-10
6.8913e-10
6.06233e-10
6.40443e-10
8.18998e-10
9.1203e-10
7.69539e-10
3.71574e-10
2.37919e-10
1.24445e-10
5.04354e-11
4.17398e-11
3.39206e-11
1.45414e-11
2.55527e-12
6.17257e-13
1.34392e-13
1.82019e-14
2.87365e-15
5.52172e-16
1.01984e-16
1.8502e-17
3.37789e-18
5.93243e-19
9.9457e-20
1.5527e-20
2.20508e-21
2.81993e-22
3.178e-23
3.07325e-24
2.55376e-25
1.67914e-26
7.14393e-28
-2.70172e-34
2.09312e-13
1.03879e-12
2.73156e-12
5.0841e-12
1.46913e-11
3.21093e-11
7.69826e-11
3.75003e-08
1.57164e-06
3.3236e-06
4.90844e-05
1.75771e-05
2.08116e-08
1.43137e-09
6.02594e-10
6.69879e-10
7.43617e-10
6.19271e-10
6.0623e-10
6.87413e-10
8.43365e-10
8.55101e-10
4.95887e-10
2.65856e-10
1.72663e-10
8.87896e-11
4.27433e-11
2.98295e-11
1.71085e-11
4.87806e-12
8.17742e-13
1.77914e-13
3.19692e-14
4.48735e-15
7.47977e-16
1.41196e-16
2.63823e-17
4.82008e-18
8.73277e-19
1.52551e-19
2.53712e-20
3.93456e-21
5.55495e-22
7.06032e-23
7.89119e-24
7.5588e-25
6.17518e-26
3.99796e-27
1.6633e-28
9.45994e-49
2.09129e-13
1.01744e-12
2.55555e-12
3.90101e-12
5.7082e-12
3.59386e-11
3.83253e-11
1.86422e-06
1.9326e-06
1.90864e-06
4.72436e-05
6.0115e-06
5.16781e-09
5.44463e-10
4.4348e-10
5.89943e-10
6.22681e-10
5.58464e-10
6.15707e-10
7.58044e-10
8.23854e-10
5.91764e-10
2.70604e-10
1.73766e-10
1.21717e-10
6.3466e-11
3.20569e-11
1.71868e-11
6.92369e-12
1.46523e-12
2.40417e-13
4.65443e-14
7.70817e-15
1.15578e-15
1.96314e-16
3.67141e-17
6.91929e-18
1.2622e-18
2.27607e-19
3.95223e-20
6.53311e-21
1.00853e-21
1.41779e-22
1.79268e-23
1.99208e-24
1.89467e-25
1.51861e-26
9.66555e-28
3.95302e-29
2.36498e-49
2.08444e-13
8.74901e-13
1.58759e-12
3.68053e-12
1.34603e-11
1.69007e-09
1.19606e-06
2.20796e-06
1.95528e-06
2.01278e-05
8.57619e-06
6.38891e-09
4.4032e-10
3.02217e-10
3.97318e-10
4.74377e-10
5.08825e-10
5.32575e-10
6.41609e-10
7.34356e-10
6.38714e-10
2.94517e-10
1.48236e-10
1.11853e-10
7.79784e-11
4.00937e-11
1.86961e-11
7.82781e-12
2.30893e-12
4.03515e-13
6.56579e-14
1.18461e-14
1.94755e-15
3.05945e-16
5.19953e-17
9.67972e-18
1.83111e-18
3.32924e-19
5.98241e-20
1.03293e-20
1.70081e-21
2.61743e-22
3.66889e-23
4.62046e-24
5.11855e-25
4.84253e-26
3.80357e-27
2.38023e-28
9.61717e-30
-3.10992e-34
1.88089e-13
6.61472e-13
9.93647e-13
3.25826e-12
3.58735e-12
7.77171e-08
2.05674e-06
2.08172e-06
4.32962e-06
2.35377e-05
5.43726e-06
2.37137e-09
2.44338e-10
2.35642e-10
3.31764e-10
3.8019e-10
4.41258e-10
5.30007e-10
6.06255e-10
6.08484e-10
3.3751e-10
1.36457e-10
9.03052e-11
7.11803e-11
4.54574e-11
2.16513e-11
8.80124e-12
2.89145e-12
6.6587e-13
1.06704e-13
1.74794e-14
3.06701e-15
5.11884e-16
8.22498e-17
1.39025e-17
2.58027e-18
4.88436e-19
8.86041e-20
1.58574e-20
2.72722e-21
4.47968e-22
6.88046e-23
9.62737e-24
1.20967e-24
1.3389e-25
1.26525e-26
9.76516e-28
5.98022e-29
2.39593e-30
-7.9329e-33
1.55105e-13
4.46004e-13
9.96999e-13
1.28414e-12
4.05991e-12
2.51227e-07
7.68831e-07
6.11235e-07
7.87366e-06
2.36255e-05
6.42411e-06
1.24439e-09
1.6587e-10
2.22449e-10
2.76036e-10
3.20135e-10
3.97938e-10
4.8356e-10
5.15111e-10
3.69089e-10
1.46302e-10
7.58054e-11
5.83885e-11
4.30828e-11
2.38493e-11
9.99882e-12
3.44507e-12
9.18169e-13
1.78807e-13
2.83327e-14
4.70085e-15
8.16769e-16
1.37868e-16
2.23393e-17
3.75309e-18
6.9459e-19
1.31352e-19
2.37941e-20
4.24198e-21
7.27936e-22
1.19398e-22
1.83219e-23
2.56156e-24
3.21713e-25
3.56397e-26
3.37291e-27
2.59952e-28
1.53939e-29
6.11477e-31
-6.27564e-33
1.21188e-13
2.42421e-13
7.42413e-13
7.66015e-13
7.37295e-09
1.72369e-07
5.39453e-08
9.77679e-08
4.56301e-06
2.37457e-05
4.29076e-06
6.85524e-11
9.98889e-11
1.97099e-10
2.3544e-10
2.77082e-10
3.4385e-10
3.87381e-10
3.55199e-10
1.77373e-10
7.18721e-11
4.81195e-11
3.70859e-11
2.38969e-11
1.1198e-11
4.02819e-12
1.17393e-12
2.67053e-13
4.77721e-14
7.7158e-15
1.28998e-15
2.22561e-16
3.77071e-17
6.12147e-18
1.02333e-18
1.888e-19
3.5628e-20
6.44487e-21
1.14603e-21
1.9644e-22
3.22036e-23
4.94176e-24
6.90961e-25
8.68734e-26
9.64563e-27
9.15945e-28
7.09077e-29
4.11003e-30
1.59757e-31
-3.28615e-33
9.02012e-14
1.66053e-13
1.69772e-13
4.31917e-10
1.89171e-08
1.86307e-08
2.43969e-08
3.33148e-08
1.08954e-05
2.37823e-05
1.62878e-06
5.46791e-11
8.1994e-11
1.75923e-10
2.01786e-10
2.33768e-10
2.7e-10
2.81281e-10
1.98437e-10
8.53062e-11
4.27095e-11
3.11267e-11
2.18786e-11
1.18998e-11
4.71259e-12
1.45637e-12
3.67082e-13
7.51922e-14
1.31058e-14
2.15605e-15
3.60181e-16
6.16352e-17
1.04325e-17
1.69272e-18
2.81894e-19
5.18153e-20
9.75098e-21
1.76084e-21
3.12733e-22
5.35846e-23
8.78676e-24
1.34942e-24
1.88879e-25
2.38003e-26
2.65134e-27
2.52979e-28
1.97336e-29
1.15183e-30
4.23168e-32
-1.42368e-33
6.45351e-14
1.59944e-13
1.62017e-13
1.3581e-09
1.45246e-08
8.0736e-09
8.47143e-09
1.60374e-06
2.37491e-05
2.37632e-05
3.49676e-07
3.51198e-11
7.881e-11
1.55573e-10
1.70108e-10
1.88145e-10
2.00997e-10
1.81745e-10
1.03552e-10
4.69643e-11
2.71934e-11
1.91662e-11
1.16519e-11
5.30796e-12
1.7982e-12
4.86898e-13
1.10215e-13
2.12904e-14
3.7026e-15
6.14042e-16
1.01905e-16
1.72784e-17
2.91572e-18
4.72563e-19
7.84256e-20
1.43513e-20
2.69258e-21
4.85407e-22
8.61756e-23
1.47699e-23
2.4241e-24
3.72796e-25
5.22855e-26
6.60858e-27
7.39265e-28
7.09413e-29
5.58157e-30
3.31109e-31
1.14552e-32
-5.55148e-34
3.33113e-14
1.86939e-13
5.75061e-11
1.39882e-09
2.90655e-09
3.47147e-09
3.36019e-09
2.93351e-06
2.34555e-05
1.00759e-05
3.83179e-09
3.41963e-11
7.5285e-11
1.34718e-10
1.40534e-10
1.44447e-10
1.44069e-10
1.08648e-10
5.72652e-11
2.85095e-11
1.70322e-11
1.08511e-11
5.5779e-12
2.15067e-12
6.36906e-13
1.55501e-13
3.28139e-14
6.15672e-15
1.06979e-15
1.77269e-16
2.91482e-17
4.89451e-18
8.228e-19
1.33198e-19
2.20226e-20
4.01051e-21
7.50227e-22
1.35034e-22
2.39723e-23
4.1125e-24
6.75884e-25
1.04167e-25
1.46497e-26
1.85845e-27
2.08869e-28
2.01674e-29
1.60013e-30
9.60412e-32
3.32824e-33
-2.04963e-34
2.26256e-14
1.21432e-12
1.47957e-10
1.12874e-09
8.56462e-10
1.33631e-09
1.62246e-09
3.67604e-06
2.31287e-05
4.20913e-07
7.82215e-08
3.27589e-11
6.78432e-11
1.14292e-10
1.15496e-10
1.08177e-10
9.69299e-11
6.48421e-11
3.42277e-11
1.77444e-11
1.00695e-11
5.59077e-12
2.43199e-12
8.11222e-13
2.15661e-13
4.88463e-14
9.8624e-15
1.81846e-15
3.14176e-16
5.17462e-17
8.42164e-18
1.40032e-18
2.34409e-19
3.78972e-20
6.24281e-21
1.13153e-21
2.10799e-22
3.78254e-23
6.71499e-24
1.15277e-24
1.89853e-25
2.93487e-26
4.14345e-27
5.2815e-28
5.97061e-29
5.80333e-30
4.63497e-31
2.78505e-32
9.28533e-34
-7.46978e-35
3.96674e-14
3.9696e-12
1.49632e-10
7.26326e-10
6.95358e-10
1.12725e-09
2.21232e-07
1.49118e-05
2.04738e-05
2.39204e-08
5.13835e-09
3.18571e-11
7.06594e-11
9.7403e-11
9.26142e-11
7.85899e-11
6.35261e-11
4.0015e-11
2.12954e-11
1.08156e-11
5.53228e-12
2.64399e-12
9.8857e-13
2.9283e-13
7.16595e-14
1.53791e-14
3.01016e-15
5.46406e-16
9.34903e-17
1.52645e-17
2.45787e-18
4.04695e-19
6.74291e-20
1.08832e-20
1.78353e-21
3.20336e-22
5.93883e-23
1.06898e-23
1.9129e-24
3.30979e-25
5.46326e-26
8.44371e-27
1.19064e-27
1.51711e-28
1.71821e-29
1.681e-30
1.35371e-31
8.02197e-33
2.25389e-34
-2.75599e-35
1.05536e-13
8.39332e-12
1.27828e-10
3.92616e-10
5.45149e-10
7.92026e-10
5.68964e-07
1.50194e-05
3.77634e-06
1.80186e-10
1.78053e-10
3.16892e-11
6.70904e-11
8.3159e-11
7.25807e-11
5.62147e-11
4.1832e-11
2.53756e-11
1.32903e-11
6.32309e-12
2.83301e-12
1.17162e-12
3.84831e-13
1.03672e-13
2.37933e-14
4.89696e-15
9.33339e-16
1.66585e-16
2.81608e-17
4.55163e-18
7.24991e-19
1.18203e-19
1.95762e-20
3.13904e-21
5.08673e-22
9.11119e-23
1.6939e-23
3.03011e-24
5.29013e-25
8.88528e-26
1.47275e-26
2.33767e-27
3.40416e-28
4.4761e-29
5.15833e-30
5.05334e-31
3.97987e-32
2.30341e-33
4.80748e-35
-1.03884e-35
2.32092e-13
9.78302e-12
8.93474e-11
1.48092e-10
4.00526e-10
4.1773e-10
4.71302e-06
1.50194e-05
3.92153e-07
1.29459e-07
2.81821e-07
3.1616e-11
4.91402e-11
7.0722e-11
5.63695e-11
4.02837e-11
2.79206e-11
1.6243e-11
8.15061e-12
3.5352e-12
1.37388e-12
4.99127e-13
1.47091e-13
3.66751e-14
7.98025e-15
1.58271e-15
2.93852e-16
5.14903e-17
8.5874e-18
1.37281e-18
2.16234e-19
3.48308e-20
5.68275e-21
8.95277e-22
1.42529e-22
2.40355e-23
3.8739e-24
5.56133e-25
7.4934e-26
1.10771e-26
1.78139e-27
2.9454e-28
4.80619e-29
7.63255e-30
1.15144e-30
1.36814e-31
1.21708e-32
6.7571e-34
4.06636e-36
-3.88985e-36
3.43022e-13
8.25372e-12
5.03901e-11
9.44378e-11
9.01261e-11
2.58154e-07
6.91924e-06
7.31477e-06
9.35758e-07
1.41385e-06
1.32073e-07
2.97962e-11
3.45611e-11
5.99761e-11
4.37016e-11
2.92508e-11
1.88764e-11
1.038e-11
4.88864e-12
1.90857e-12
6.45424e-13
2.09633e-13
5.63305e-14
1.31336e-14
2.72136e-15
5.20324e-16
9.39778e-17
1.61415e-17
2.65246e-18
4.18872e-19
6.50098e-20
1.02348e-20
1.61833e-21
2.37316e-22
2.75732e-23
2.25729e-24
3.42112e-26
2.88714e-27
-2.18597e-31
-2.84141e-29
-1.20258e-29
-1.79012e-30
-2.94612e-31
6.3697e-32
4.76543e-33
3.25473e-33
1.39098e-33
8.06295e-35
-2.97446e-39
-1.39422e-36
3.83522e-13
5.42129e-12
1.81923e-11
6.67573e-11
7.17534e-11
1.31781e-06
5.42312e-06
1.15472e-06
2.69802e-06
2.54794e-06
2.98056e-11
2.98123e-11
3.05149e-11
5.08323e-11
3.39565e-11
2.15879e-11
1.29429e-11
6.62312e-12
2.88924e-12
1.01241e-12
3.00886e-13
8.87052e-14
2.19544e-14
4.80693e-15
9.48383e-16
1.74442e-16
3.05763e-17
5.13781e-18
8.29952e-19
1.28736e-19
1.94001e-20
2.85914e-21
3.6193e-22
2.23729e-23
2.09638e-25
0
-8.42001e-26
-1.50501e-25
-5.03453e-26
-1.09309e-26
-1.74128e-27
-1.93672e-28
-1.0865e-29
2.73917e-33
-3.50757e-39
-1.6276e-34
4.82512e-36
-7.9686e-37
-3.96752e-39
-4.69494e-37
3.44917e-13
2.74075e-12
1.06673e-11
1.1227e-11
5.88248e-08
1.37415e-06
9.56086e-07
7.65429e-07
2.70161e-06
2.69162e-06
2.98123e-11
2.9796e-11
3.13519e-11
4.15016e-11
2.71751e-11
1.60863e-11
9.03501e-12
4.25412e-12
1.70755e-12
5.38429e-13
1.42282e-13
3.84965e-14
8.82076e-15
1.81398e-15
3.39761e-16
5.98732e-17
1.0142e-17
1.65994e-18
2.62002e-19
3.92591e-20
5.35895e-21
5.2799e-22
4.06036e-24
-4.32775e-40
-6.58267e-24
-5.30778e-24
-2.37132e-24
-7.59093e-25
-1.89274e-25
-3.7784e-26
-6.07707e-27
-7.71915e-28
-7.37036e-29
-4.7095e-30
-2.06767e-31
-6.0837e-34
-7.92114e-39
-4.39828e-52
-1.38712e-37
-2.47549e-37
3.35749e-13
1.37428e-12
5.05946e-12
2.56733e-10
1.26826e-07
5.19566e-07
1.26849e-07
4.56715e-07
2.70161e-06
2.44597e-06
3.03272e-11
2.98123e-11
7.069e-11
2.77977e-11
2.31338e-11
1.20576e-11
6.41407e-12
2.7799e-12
1.02508e-12
2.92478e-13
6.94787e-14
1.73875e-14
3.69724e-15
7.128e-16
1.26155e-16
2.11767e-17
3.44762e-18
5.45907e-19
8.229e-20
1.09842e-20
8.76792e-22
3.00248e-24
-6.03704e-24
-4.763e-23
-3.39123e-23
-1.51967e-23
-5.34981e-24
-1.52163e-24
-3.57415e-25
-6.94285e-26
-1.11169e-26
-1.4475e-27
-1.49633e-28
-1.17639e-29
-6.86487e-31
-2.44642e-32
-4.88356e-34
0
-3.80572e-37
-2.2561e-37
3.5393e-13
1.3317e-12
1.35652e-12
4.01335e-09
1.02525e-07
3.47424e-08
8.18258e-08
4.70541e-07
2.70161e-06
6.05556e-07
4.18613e-11
2.05416e-10
3.11719e-10
1.13461e-11
1.91599e-11
9.16548e-12
4.58978e-12
1.86111e-12
6.31942e-13
1.64475e-13
3.54859e-14
8.26938e-15
1.63553e-15
2.95069e-16
4.90855e-17
7.78151e-18
1.19996e-18
1.78798e-19