/*--------------------------------*- C++ -*----------------------------------*\
  =========                 |
  \\      /  F ield         | OpenFOAM: The Open Source CFD Toolbox
   \\    /   O peration     | Website:  https://openfoam.org
    \\  /    A nd           | Version:  9
     \\/     M anipulation  |
\*---------------------------------------------------------------------------*/
FoamFile
{
    format      ascii;
    class       volScalarField;
    location    "0.02";
    object      p_rgh;
}
// * * * * * * * * * * * * * * * * * * * * * * * * * * * * * * * * * * * * * //

dimensions      [1 -1 -2 0 0 0 0];

internalField   nonuniform List<scalar> 
5000
(
-0.044812
-0.0543481
-0.0655331
-0.0786042
-0.0938926
-0.111919
-0.133244
-0.158462
-0.188242
-0.224064
-0.259418
-0.255872
-3.04432
-261.565
-380.919
-381.394
-381.273
-381.115
-381.006
-380.892
-380.775
-380.663
-380.53
-380.338
-380.072
-379.708
-379.229
-378.647
-377.946
-338.079
-68.8693
-0.855385
-0.663561
-0.59152
-0.541228
-0.489213
-0.43492
-0.381976
-0.332824
-0.288227
-0.248023
-0.211717
-0.178761
-0.148666
-0.121026
-0.0955093
-0.0718387
-0.0497584
-0.0289972
-0.00953529
-0.0450028
-0.0541567
-0.0646635
-0.0766607
-0.0903017
-0.10566
-0.122794
-0.141829
-0.161836
-0.181658
-0.205656
-0.146168
0.0229333
-230.988
-380.908
-380.47
-379.637
-379.282
-379.114
-378.967
-378.855
-378.765
-378.658
-378.495
-378.256
-377.885
-377.342
-376.759
-376.223
-314.316
-42.7366
-0.725765
-0.621102
-0.539035
-0.503671
-0.462061
-0.415359
-0.367702
-0.322051
-0.279777
-0.241197
-0.206096
-0.174079
-0.144738
-0.117722
-0.0927415
-0.0695651
-0.0479958
-0.0278149
-0.00902002
-0.0447681
-0.0534943
-0.063293
-0.0742084
-0.0862374
-0.099096
-0.112373
-0.125804
-0.13721
-0.140844
-0.142771
-0.0348934
0.323349
-172.878
-381.284
-380.674
-378.152
-377.419
-377.199
-377.024
-376.935
-376.892
-376.843
-376.74
-376.553
-376.175
-375.59
-374.899
-373.779
-244.727
-6.52916
-0.607762
-0.576012
-0.483007
-0.460998
-0.429546
-0.390921
-0.349164
-0.307644
-0.268297
-0.231872
-0.198434
-0.16776
-0.139552
-0.113529
-0.0894484
-0.067106
-0.0463114
-0.0268567
-0.00870926
-0.0441784
-0.0524592
-0.0615912
-0.0715043
-0.082052
-0.0927605
-0.102816
-0.111497
-0.115966
-0.106113
-0.0840258
0.0282428
0.251565
-98.8845
-367.866
-379.782
-376.2
-375.26
-375.153
-375.038
-375.007
-375.038
-375.08
-375.073
-375.036
-374.964
-374.813
-374.165
-358.007
-116.361
-0.752039
-0.539588
-0.513288
-0.439505
-0.423384
-0.399371
-0.366888
-0.329969
-0.292112
-0.255597
-0.221395
-0.189758
-0.160594
-0.133691
-0.108823
-0.0857776
-0.064368
-0.0444075
-0.025711
-0.00828293
-0.0432982
-0.051156
-0.0596904
-0.0687457
-0.0780652
-0.0870885
-0.0947628
-0.099987
-0.0999498
-0.0836596
-0.0429655
0.0496723
0.152559
-37.7621
-319.139
-375.485
-373.68
-372.922
-372.965
-373.002
-373.064
-373.179
-373.351
-373.539
-373.858
-374.387
-374.82
-374.586
-236.875
-14.0039
-0.63645
-0.560249
-0.464659
-0.417249
-0.400139
-0.37792
-0.34767
-0.313226
-0.277466
-0.243166
-0.210861
-0.180862
-0.153142
-0.12753
-0.103824
-0.0818355
-0.0613885
-0.0423062
-0.0244174
-0.00777382
-0.0421797
-0.049666
-0.0576998
-0.0660835
-0.0744947
-0.0823655
-0.0886263
-0.092073
-0.0904123
-0.0741311
-0.0365299
0.0319206
0.0949843
-3.96341
-209.932
-369.212
-371.685
-371.217
-370.91
-370.974
-371.113
-371.277
-371.621
-372.204
-373.064
-374.05
-374.497
-298.215
-43.2514
-0.528566
-0.628097
-0.552305
-0.44216
-0.412258
-0.388996
-0.363866
-0.332704
-0.298703
-0.2644
-0.231466
-0.200618
-0.172052
-0.145681
-0.121318
-0.0987635
-0.0778312
-0.0583538
-0.0401649
-0.0231164
-0.00727711
-0.0408629
-0.0480447
-0.0556943
-0.0636071
-0.0714424
-0.0786958
-0.0844589
-0.0877411
-0.087084
-0.0745903
-0.0539443
-0.00982461
0.00922238
0.112904
-64.6943
-325.919
-370.181
-370.072
-369.19
-369.12
-369.317
-369.506
-369.831
-370.238
-371.439
-373.673
-304.162
-58.1973
-0.442513
-0.370796
-0.511936
-0.500918
-0.419889
-0.403419
-0.377608
-0.349118
-0.31716
-0.283652
-0.250626
-0.219252
-0.190024
-0.163013
-0.138086
-0.115044
-0.0936895
-0.0738449
-0.0553562
-0.038073
-0.0218715
-0.00683373
-0.0393717
-0.0463197
-0.0537044
-0.0613398
-0.0689085
-0.0760142
-0.0820005
-0.0862388
-0.0882734
-0.081975
-0.0888513
-0.0627234
-0.0702948
-0.0977015
-0.233003
-136.458
-358.762
-368.337
-366.989
-367.029
-367.608
-367.942
-367.797
-366.389
-365.781
-262.044
-48.495
-0.322618
-0.313946
-0.353832
-0.411499
-0.407795
-0.378884
-0.368935
-0.350446
-0.324648
-0.295497
-0.264768
-0.234409
-0.205502
-0.178495
-0.153445
-0.130238
-0.108698
-0.0886563
-0.0699625
-0.0524902
-0.0361141
-0.0207401
-0.00646099
-0.0377155
-0.0445006
-0.05173
-0.0592569
-0.0668188
-0.0741377
-0.0808219
-0.0865708
-0.0919617
-0.0928566
-0.108412
-0.0960903
-0.146546
-0.135893
-0.178777
-0.191186
-144.368
-331.046
-362.532
-362.984
-364.617
-364.96
-358.123
-302.857
-164.625
-22.6507
-0.300473
-0.247299
-0.272465
-0.305333
-0.334945
-0.331688
-0.331881
-0.326879
-0.314227
-0.293846
-0.269297
-0.242811
-0.216202
-0.19055
-0.166327
-0.143645
-0.122445
-0.102608
-0.0840033
-0.0665212
-0.0500672
-0.0345438
-0.0198885
-0.00621123
-0.0358913
-0.0425767
-0.0497449
-0.0572977
-0.0650478
-0.0728215
-0.0804502
-0.0877969
-0.0959661
-0.106937
-0.122718
-0.11521
-0.133834
-0.251943
-0.15796
-0.177347
-0.22387
-73.5261
-198.546
-254.161
-248.616
-211.712
-124.913
-43.7018
-0.185008
-0.145988
-0.203209
-0.214935
-0.227994
-0.259731
-0.284279
-0.291213
-0.294413
-0.291479
-0.281236
-0.264418
-0.243673
-0.221096
-0.19821
-0.175919
-0.15464
-0.134505
-0.115494
-0.097525
-0.0804971
-0.0643159
-0.0488898
-0.0341129
-0.0199117
-0.00634367
-0.0338851
-0.0405178
-0.0476994
-0.0553785
-0.0634472
-0.071811
-0.0804573
-0.0892364
-0.0992905
-0.11142
-0.122784
-0.124581
-0.139587
-0.138969
-0.147625
-0.182895
-0.23262
-0.237083
-0.503658
-11.2398
-8.57402
-0.154953
-0.172326
-0.218379
-0.190491
-0.199529
-0.195131
-0.197647
-0.212205
-0.231806
-0.248342
-0.259837
-0.264285
-0.262041
-0.252936
-0.238535
-0.220834
-0.201591
-0.182033
-0.162871
-0.144449
-0.126885
-0.110177
-0.0942626
-0.0790448
-0.0644047
-0.0501792
-0.036128
-0.0219729
-0.007425
-0.0316743
-0.0382845
-0.0455322
-0.0534072
-0.061874
-0.0708962
-0.0805561
-0.0906242
-0.101608
-0.11415
-0.117561
-0.13235
-0.204245
-0.174495
-0.154376
-0.174448
-0.201658
-0.228308
-0.213291
-0.189923
-0.194911
-0.184063
-0.200602
-0.20634
-0.190923
-0.169998
-0.173858
-0.184254
-0.196355
-0.211313
-0.224738
-0.233822
-0.23785
-0.235766
-0.227946
-0.215732
-0.2008
-0.184582
-0.168058
-0.151808
-0.136131
-0.121162
-0.106954
-0.0935291
-0.0809087
-0.0691347
-0.058265
-0.0483552
-0.0395581
-0.032405
-0.0292295
-0.0358294
-0.0431732
-0.051287
-0.0601988
-0.0699276
-0.0806174
-0.0920746
-0.104241
-0.115255
-0.124671
-0.145056
-0.213857
-0.199435
-0.166313
-0.179775
-0.190226
-0.186347
-0.188242
-0.187393
-0.187676
-0.181276
-0.166725
-0.158217
-0.152814
-0.159019
-0.165467
-0.171005
-0.180949
-0.193226
-0.204145
-0.211786
-0.214888
-0.212838
-0.206134
-0.195902
-0.183483
-0.169993
-0.156203
-0.142583
-0.129392
-0.116771
-0.104792
-0.0935006
-0.0829259
-0.0730914
-0.0639933
-0.0555799
-0.0477965
-0.0405764
-0.026517
-0.0331024
-0.040547
-0.0489162
-0.058294
-0.0687753
-0.0805549
-0.0935782
-0.107599
-0.120492
-0.13218
-0.158429
-0.221456
-0.21176
-0.178091
-0.186857
-0.189886
-0.182357
-0.174602
-0.171558
-0.168718
-0.161226
-0.152895
-0.147724
-0.144612
-0.149891
-0.1532
-0.157176
-0.166091
-0.176717
-0.186247
-0.192902
-0.195454
-0.193621
-0.187934
-0.179408
-0.169124
-0.15795
-0.146482
-0.135092
-0.123996
-0.11332
-0.103136
-0.0934854
-0.0843925
-0.0758676
-0.0678899
-0.0604039
-0.053422
-0.0469906
-0.0235018
-0.0300537
-0.0375785
-0.0461907
-0.0560267
-0.0672763
-0.0801859
-0.0948412
-0.111037
-0.125867
-0.145504
-0.157754
-0.249736
-0.224623
-0.191708
-0.195855
-0.19331
-0.183672
-0.174774
-0.170487
-0.165745
-0.157842
-0.149025
-0.142041
-0.137697
-0.138327
-0.139936
-0.144393
-0.152469
-0.162346
-0.171207
-0.177308
-0.17957
-0.178099
-0.173379
-0.166316
-0.157801
-0.148523
-0.138951
-0.129383
-0.120002
-0.110921
-0.102212
-0.093919
-0.0860694
-0.0786798
-0.0717318
-0.0651695
-0.0590222
-0.0534118
-0.0201484
-0.0266319
-0.0341936
-0.0430049
-0.0532577
-0.065238
-0.0792749
-0.0955483
-0.114341
-0.132126
-0.155074
-0.161654
-0.279681
-0.255781
-0.20753
-0.20613
-0.199178
-0.188417
-0.179513
-0.174832
-0.169099
-0.160316
-0.150083
-0.140503
-0.133135
-0.129621
-0.130226
-0.134266
-0.142029
-0.151328
-0.159782
-0.165337
-0.167466
-0.166289
-0.162367
-0.156492
-0.149396
-0.141631
-0.133575
-0.125474
-0.117486
-0.109717
-0.102236
-0.0950879
-0.0883016
-0.081896
-0.0758536
-0.0701141
-0.0647152
-0.0598518
-0.0164224
-0.0227824
-0.0303172
-0.0392526
-0.0498454
-0.062468
-0.0775919
-0.095528
-0.11686
-0.139238
-0.163239
-0.259971
-0.304337
-0.280853
-0.218096
-0.214077
-0.205627
-0.196094
-0.188874
-0.184743
-0.178288
-0.168256
-0.15606
-0.143678
-0.133199
-0.126811
-0.125679
-0.129142
-0.136404
-0.145046
-0.15268
-0.157533
-0.15936
-0.15825
-0.154834
-0.149804
-0.143759
-0.13714
-0.130252
-0.123299
-0.116419
-0.109706
-0.103225
-0.0970166
-0.0911081
-0.0855194
-0.0802349
-0.0751955
-0.0704464
-0.0662316
-0.0122944
-0.0184539
-0.0258769
-0.0348337
-0.0456523
-0.0587768
-0.0748453
-0.0942308
-0.117627
-0.143363
-0.169299
-0.298251
-0.318703
-0.253914
-0.2201
-0.219208
-0.213103
-0.207047
-0.203064
-0.200358
-0.193347
-0.181832
-0.167436
-0.152341
-0.139079
-0.130298
-0.127343
-0.130116
-0.13655
-0.144089
-0.15035
-0.154196
-0.155257
-0.153874
-0.150611
-0.146058
-0.140696
-0.134873
-0.128831
-0.122736
-0.116702
-0.110812
-0.105119
-0.0996574
-0.094453
-0.0895243
-0.0848562
-0.0803909
-0.07618
-0.0724971
-0.00774244
-0.0136098
-0.0208124
-0.0296601
-0.0405494
-0.0539831
-0.0707338
-0.0911818
-0.115484
-0.141437
-0.161363
-0.29936
-0.321834
-0.288339
-0.232189
-0.227905
-0.224307
-0.221967
-0.221984
-0.221185
-0.213735
-0.200704
-0.184112
-0.166521
-0.150881
-0.140101
-0.135727
-0.137399
-0.142418
-0.1482
-0.152609
-0.15487
-0.154815
-0.152801
-0.149345
-0.144928
-0.13992
-0.134586
-0.129109
-0.123619
-0.118204
-0.11293
-0.107838
-0.102955
-0.0983015
-0.0938936
-0.0897143
-0.0857044
-0.0819212
-0.0786635
-0.00275218
-0.00822936
-0.0150815
-0.0236607
-0.034423
-0.0479339
-0.065067
-0.0862565
-0.110757
-0.136523
-0.149674
-0.256147
-0.325093
-0.338861
-0.261874
-0.239548
-0.238127
-0.240275
-0.24475
-0.245944
-0.238152
-0.223759
-0.205203
-0.185494
-0.167983
-0.155632
-0.149997
-0.15011
-0.153209
-0.156552
-0.158658
-0.158925
-0.157407
-0.154467
-0.150537
-0.14598
-0.141063
-0.13597
-0.130833
-0.125741
-0.120758
-0.11593
-0.111285
-0.106839
-0.102607
-0.0986031
-0.0948052
-0.091151
-0.0877024
-0.0847845
0.00268332
-0.00229933
-0.00865627
-0.0167827
-0.0271846
-0.0405254
-0.0577757
-0.0797277
-0.105535
-0.133393
-0.152016
-0.299742
-0.340126
-0.356734
-0.262877
-0.249077
-0.252128
-0.260547
-0.269696
-0.272755
-0.264763
-0.249342
-0.229252
-0.207938
-0.189057
-0.175558
-0.168703
-0.166985
-0.167551
-0.167993
-0.167413
-0.165448
-0.162259
-0.15821
-0.15362
-0.148733
-0.143717
-0.138686
-0.133718
-0.128867
-0.124171
-0.119657
-0.115336
-0.111217
-0.107307
-0.103614
-0.100115
-0.0967395
-0.0935551
-0.0909141
0.00856191
0.00418882
-0.00152005
-0.00899339
-0.0187781
-0.0316612
-0.0487564
-0.0714817
-0.0997184
-0.133775
-0.161721
-0.329197
-0.348625
-0.333716
-0.255535
-0.256435
-0.266004
-0.281288
-0.294849
-0.29956
-0.291575
-0.275578
-0.254527
-0.232227
-0.212568
-0.198309
-0.190209
-0.186356
-0.183892
-0.18118
-0.177726
-0.173434
-0.168549
-0.16334
-0.158009
-0.15269
-0.147463
-0.142378
-0.137467
-0.13275
-0.12824
-0.123944
-0.119861
-0.115987
-0.112325
-0.108879
-0.105618
-0.102468
-0.099498
-0.0970899
0.0148682
0.0112299
0.00632888
-0.000277305
-0.00915684
-0.021208
-0.0376998
-0.0606965
-0.091419
-0.131724
-0.214958
-0.311099
-0.339611
-0.281916
-0.251554
-0.261838
-0.279351
-0.301046
-0.318355
-0.324467
-0.316753
-0.300692
-0.279316
-0.25674
-0.236852
-0.222167
-0.212782
-0.206422
-0.200683
-0.194756
-0.188493
-0.182001
-0.175518
-0.169205
-0.163147
-0.157376
-0.151896
-0.146703
-0.141789
-0.137145
-0.132759
-0.128622
-0.12472
-0.121041
-0.11758
-0.114337
-0.111276
-0.108315
-0.105529
-0.103326
0.0215709
0.0187954
0.0148688
0.00936405
0.00170669
-0.009026
-0.024169
-0.0461063
-0.0768595
-0.118909
-0.20646
-0.28035
-0.295047
-0.237705
-0.245423
-0.265067
-0.291044
-0.318442
-0.338702
-0.345986
-0.338854
-0.323229
-0.30221
-0.280077
-0.260514
-0.245548
-0.234677
-0.225529
-0.216502
-0.207567
-0.198768
-0.190357
-0.182495
-0.175229
-0.168534
-0.162356
-0.156641
-0.151339
-0.146408
-0.141813
-0.137525
-0.133519
-0.12977
-0.126258
-0.122973
-0.119911
-0.117029
-0.11424
-0.111624
-0.109612
0.0286224
0.0268308
0.0240453
0.0198794
0.0137848
0.00492642
-0.00793588
-0.0269911
-0.0548603
-0.0912062
-0.15202
-0.201988
-0.207397
-0.218347
-0.236055
-0.265753
-0.300244
-0.332463
-0.354885
-0.363206
-0.356957
-0.342225
-0.322217
-0.301156
-0.282281
-0.26708
-0.254415
-0.242404
-0.230322
-0.218717
-0.207821
-0.197878
-0.188939
-0.180933
-0.173746
-0.167259
-0.161371
-0.155998
-0.151071
-0.146535
-0.142346
-0.138467
-0.134865
-0.131514
-0.128398
-0.12551
-0.122804
-0.120185
-0.117738
-0.115914
0.0359611
0.0352596
0.0337673
0.0311511
0.0269471
0.0204673
0.0106603
-0.00425276
-0.0267244
-0.0561696
-0.0934193
-0.126928
-0.162053
-0.193612
-0.224548
-0.26444
-0.306556
-0.342527
-0.36648
-0.375792
-0.370679
-0.357245
-0.338821
-0.3192
-0.301154
-0.285514
-0.270756
-0.255966
-0.241329
-0.227597
-0.215144
-0.204117
-0.194439
-0.185943
-0.178443
-0.171777
-0.165809
-0.160429
-0.155552
-0.151107
-0.14704
-0.143305
-0.139863
-0.136683
-0.133745
-0.13104
-0.128517
-0.126078
-0.123809
-0.122181
0.0435124
0.0439858
0.0439067
0.0430078
0.0409486
0.0372067
0.0309171
0.0206089
0.00366891
-0.0203894
-0.0537652
-0.0850596
-0.121341
-0.169808
-0.212802
-0.261425
-0.309739
-0.34847
-0.373567
-0.383886
-0.380066
-0.368303
-0.351689
-0.333628
-0.31638
-0.299727
-0.282854
-0.265571
-0.249022
-0.233843
-0.220426
-0.208778
-0.198712
-0.189985
-0.182369
-0.175669
-0.169729
-0.164425
-0.15966
-0.155355
-0.151448
-0.147888
-0.144632
-0.141645
-0.138906
-0.136402
-0.134079
-0.131836
-0.129763
-0.128341
0.0511875
0.0528974
0.0543148
0.0552522
0.0554901
0.0546878
0.0521471
0.0465697
0.0351696
0.0161195
-0.0134787
-0.0498308
-0.103818
-0.147954
-0.197931
-0.256376
-0.30964
-0.350498
-0.376565
-0.38791
-0.385533
-0.375494
-0.360729
-0.344116
-0.327021
-0.309025
-0.290101
-0.271074
-0.253251
-0.23733
-0.223527
-0.211702
-0.201583
-0.192879
-0.185338
-0.178752
-0.172956
-0.167819
-0.163238
-0.159131
-0.155432
-0.152088
-0.149054
-0.146292
-0.143778
-0.141498
-0.139398
-0.137374
-0.135517
-0.134316
0.0588923
0.061871
0.0648289
0.0676686
0.0702913
0.0725195
0.0738345
0.0730053
0.0671816
0.0526811
0.0268042
-0.0210308
-0.0692753
-0.122007
-0.183326
-0.249232
-0.306479
-0.349043
-0.376008
-0.388393
-0.38742
-0.379026
-0.365871
-0.350116
-0.332416
-0.312896
-0.292381
-0.272372
-0.25409
-0.238107
-0.224442
-0.212838
-0.202966
-0.194516
-0.187231
-0.180902
-0.175363
-0.170485
-0.166164
-0.162318
-0.158882
-0.1558
-0.153027
-0.150523
-0.148265
-0.146237
-0.144383
-0.142601
-0.140981
-0.140014
0.066526
0.0707752
0.0752816
0.0800395
0.085062
0.0903195
0.0954539
0.0992091
0.0983663
0.0881682
0.0654423
0.0154394
-0.0388406
-0.0948794
-0.168183
-0.24007
-0.300426
-0.344433
-0.372279
-0.385646
-0.385908
-0.378826
-0.366671
-0.350885
-0.332119
-0.311274
-0.289928
-0.269748
-0.251786
-0.236344
-0.223264
-0.212215
-0.202847
-0.194854
-0.187986
-0.182043
-0.176869
-0.172338
-0.168352
-0.164831
-0.16171
-0.158938
-0.156465
-0.154254
-0.152281
-0.15053
-0.148946
-0.147428
-0.146066
-0.145344
0.0739861
0.0794779
0.0855043
0.0921426
0.0995078
0.107704
0.116485
0.124507
0.128109
0.121643
0.093149
0.0506811
-0.00586186
-0.0725823
-0.15269
-0.22873
-0.291421
-0.336677
-0.365428
-0.379605
-0.380773
-0.374401
-0.36237
-0.345869
-0.326012
-0.304451
-0.283159
-0.263673
-0.246702
-0.232286
-0.220147
-0.209921
-0.201268
-0.1939
-0.187586
-0.182145
-0.17743
-0.173328
-0.169746
-0.166608
-0.163854
-0.161432
-0.159297
-0.15741
-0.155749
-0.154298
-0.153003
-0.15177
-0.150682
-0.150215
0.0811719
0.0878522
0.0953338
0.103763
0.113349
0.124319
0.136492
0.148398
0.155897
0.152797
0.122113
0.0810819
0.02474
-0.0516601
-0.135986
-0.214759
-0.27914
-0.325483
-0.355004
-0.369736
-0.371282
-0.364873
-0.352254
-0.334829
-0.314369
-0.293021
-0.272746
-0.254708
-0.23925
-0.226223
-0.215287
-0.206088
-0.198312
-0.191704
-0.186058
-0.181214
-0.177041
-0.173438
-0.170318
-0.167615
-0.165269
-0.163234
-0.161467
-0.15993
-0.158603
-0.157471
-0.156482
-0.155549
-0.15475
-0.154544
0.0879875
0.0957793
0.104616
0.114702
0.126332
0.139848
0.155092
0.170418
0.180948
0.179923
0.152793
0.108261
0.0509361
-0.031355
-0.117595
-0.197812
-0.263041
-0.310165
-0.340206
-0.3551
-0.356415
-0.349405
-0.335976
-0.31805
-0.297922
-0.277858
-0.259455
-0.243433
-0.229854
-0.218459
-0.208907
-0.200877
-0.194097
-0.18835
-0.18346
-0.179288
-0.175722
-0.172673
-0.170064
-0.167834
-0.165931
-0.164311
-0.162935
-0.161769
-0.160792
-0.159992
-0.159322
-0.1587
-0.1582
-0.158255
0.0943443
0.103149
0.113209
0.12478
0.13823
0.153979
0.171885
0.190131
0.203317
0.204302
0.178556
0.134518
0.0715975
-0.0111125
-0.0973166
-0.177352
-0.242514
-0.28994
-0.320113
-0.334697
-0.335351
-0.32766
-0.313869
-0.29642
-0.27779
-0.259962
-0.244055
-0.230414
-0.218924
-0.209301
-0.201239
-0.194468
-0.188764
-0.183947
-0.179874
-0.176429
-0.173517
-0.171062
-0.168998
-0.167271
-0.165834
-0.164649
-0.16368
-0.162897
-0.162282
-0.161823
-0.161477
-0.161173
-0.160976
-0.161291
0.100163
0.109861
0.120986
0.133841
0.148849
0.166448
0.186495
0.206413
0.222456
0.226258
0.19556
0.156153
0.0901051
0.00946037
-0.0748895
-0.153039
-0.217165
-0.264215
-0.294053
-0.307993
-0.308002
-0.300175
-0.287036
-0.271286
-0.255206
-0.240303
-0.227256
-0.216164
-0.206848
-0.199051
-0.192524
-0.187054
-0.182466
-0.17862
-0.1754
-0.172715
-0.170487
-0.168651
-0.167152
-0.165945
-0.164988
-0.164249
-0.163696
-0.163303
-0.163054
-0.162937
-0.162918
-0.162932
-0.163037
-0.163605
0.105376
0.11583
0.127844
0.141756
0.158026
0.177071
0.198363
0.220246
0.237077
0.235354
0.21684
0.172943
0.107236
0.0302909
-0.0502017
-0.125058
-0.187111
-0.232977
-0.262083
-0.275394
-0.275339
-0.268398
-0.257138
-0.24418
-0.231369
-0.219742
-0.209671
-0.201139
-0.19398
-0.187994
-0.182996
-0.178829
-0.175367
-0.172503
-0.17015
-0.168238
-0.166705
-0.165498
-0.164573
-0.163891
-0.163419
-0.163128
-0.162993
-0.162989
-0.163104
-0.163327
-0.163629
-0.163959
-0.16436
-0.16517
0.109929
0.120989
0.133704
0.148432
0.165649
0.185715
0.208076
0.230781
0.24719
0.246407
0.227846
0.184638
0.122788
0.0512037
-0.0239254
-0.0942361
-0.153148
-0.197107
-0.225292
-0.238406
-0.23927
-0.234338
-0.225992
-0.216521
-0.207286
-0.198981
-0.191807
-0.185732
-0.180639
-0.176395
-0.17288
-0.169985
-0.167627
-0.165733
-0.16424
-0.163095
-0.162253
-0.161671
-0.161316
-0.161156
-0.161164
-0.161316
-0.161591
-0.161971
-0.162442
-0.162996
-0.163611
-0.164247
-0.164937
-0.165976
0.113784
0.125292
0.138513
0.15381
0.17165
0.192362
0.215431
0.238816
0.253568
0.253851
0.233033
0.193074
0.136827
0.071615
0.00291397
-0.0619021
-0.11682
-0.158401
-0.185722
-0.199328
-0.20212
-0.200045
-0.195192
-0.18943
-0.183725
-0.178558
-0.174074
-0.170273
-0.167102
-0.164491
-0.162374
-0.160697
-0.159403
-0.158446
-0.157787
-0.157389
-0.157219
-0.157247
-0.157447
-0.157795
-0.158269
-0.158851
-0.159525
-0.160274
-0.161089
-0.161962
-0.162878
-0.163808
-0.164773
-0.166028
0.116913
0.128714
0.142243
0.157856
0.175989
0.196965
0.220336
0.243449
0.258922
0.256061
0.236382
0.199423
0.149236
0.0908169
0.0290598
-0.0297112
-0.0801724
-0.119207
-0.145877
-0.160624
-0.166032
-0.167179
-0.165905
-0.16368
-0.161205
-0.158858
-0.156784
-0.155033
-0.153609
-0.1525
-0.151684
-0.151141
-0.150846
-0.150776
-0.150909
-0.151223
-0.151695
-0.152307
-0.153037
-0.153871
-0.15479
-0.155782
-0.156835
-0.157937
-0.159078
-0.160254
-0.161454
-0.162664
-0.163891
-0.165345
0.119305
0.131244
0.144886
0.160561
0.17866
0.199451
0.222297
0.244466
0.256886
0.254535
0.237498
0.203811
0.159648
0.108027
0.0532602
0.000625121
-0.0453144
-0.0818486
-0.108079
-0.124335
-0.132561
-0.136831
-0.138839
-0.139734
-0.140058
-0.140148
-0.140171
-0.140223
-0.140355
-0.140597
-0.140964
-0.141462
-0.14209
-0.142845
-0.143717
-0.144697
-0.145772
-0.146931
-0.14816
-0.149449
-0.150787
-0.152164
-0.153573
-0.155005
-0.156453
-0.157912
-0.15938
-0.160852
-0.162324
-0.163961
0.120963
0.132889
0.146453
0.161949
0.179705
0.19989
0.221785
0.242082
0.252959
0.249736
0.236333
0.206271
0.167716
0.12258
0.0744564
0.027683
-0.0139452
-0.0481241
-0.0740013
-0.0917676
-0.102579
-0.109553
-0.114329
-0.117816
-0.120466
-0.122599
-0.124402
-0.126006
-0.127496
-0.128932
-0.130354
-0.131791
-0.133258
-0.134766
-0.136316
-0.137908
-0.139539
-0.141202
-0.142892
-0.144602
-0.146326
-0.148059
-0.149797
-0.151535
-0.153267
-0.154988
-0.156703
-0.158417
-0.160116
-0.161919
0.121901
0.133672
0.146981
0.162077
0.179223
0.19848
0.219156
0.237601
0.24807
0.245947
0.232545
0.206626
0.173224
0.134032
0.0919677
0.0505598
0.012902
-0.0190623
-0.0445158
-0.0634953
-0.0763839
-0.0854905
-0.0924502
-0.0979897
-0.102506
-0.106304
-0.109585
-0.112498
-0.115151
-0.117623
-0.119972
-0.12224
-0.124456
-0.126639
-0.1288
-0.130945
-0.133079
-0.1352
-0.137307
-0.1394
-0.141477
-0.143534
-0.145573
-0.14759
-0.14958
-0.151541
-0.15348
-0.155416
-0.157321
-0.159271
0.122146
0.13363
0.146525
0.161028
0.177338
0.195432
0.21472
0.232165
0.239701
0.24151
0.227151
0.204942
0.176153
0.142233
0.105548
0.0689281
0.0348777
0.00503748
-0.0198027
-0.0395354
-0.0538909
-0.0645408
-0.0731198
-0.0802149
-0.0861799
-0.0913005
-0.0957802
-0.099776
-0.103406
-0.106761
-0.10991
-0.112901
-0.115773
-0.118551
-0.121252
-0.123889
-0.12647
-0.128999
-0.131481
-0.133917
-0.136309
-0.138658
-0.140966
-0.143234
-0.145458
-0.147632
-0.149773
-0.151907
-0.153997
-0.156074
0.121735
0.132818
0.14516
0.15891
0.174187
0.190933
0.208552
0.221932
0.230267
0.232593
0.220404
0.201388
0.176638
0.147316
0.115328
0.0829358
0.0521642
0.0244052
0.000418607
-0.0195733
-0.034807
-0.0464685
-0.0561719
-0.064392
-0.071442
-0.0775832
-0.0830116
-0.087883
-0.0923182
-0.0964116
-0.100236
-0.103845
-0.107281
-0.110573
-0.113744
-0.116809
-0.119782
-0.12267
-0.125481
-0.12822
-0.130891
-0.133499
-0.136046
-0.138536
-0.140965
-0.143328
-0.145647
-0.147954
-0.150205
-0.15239
0.120719
0.131298
0.142973
0.155829
0.169915
0.185123
0.20071
0.21421
0.223063
0.222721
0.212414
0.196196
0.174951
0.149608
0.121699
0.0930374
0.0652647
0.0395672
0.0166636
-0.00314453
-0.0187543
-0.030985
-0.0414024
-0.0503886
-0.058216
-0.0651176
-0.0712754
-0.0768369
-0.0819195
-0.086616
-0.0909991
-0.0951246
-0.0990353
-0.102764
-0.106335
-0.109768
-0.113077
-0.116275
-0.119371
-0.122373
-0.125287
-0.128119
-0.130875
-0.133557
-0.136165
-0.138692
-0.141162
-0.14362
-0.146009
-0.148283
0.119148
0.129143
0.140061
0.15193
0.164717
0.178321
0.191369
0.203815
0.213895
0.212206
0.203433
0.18966
0.171448
0.149543
0.125185
0.0998295
0.0748172
0.0511587
0.0295203
0.0102485
-0.00534282
-0.0177934
-0.0285966
-0.0380572
-0.0464072
-0.0538491
-0.0605464
-0.0666344
-0.0722225
-0.0773986
-0.0822324
-0.0867785
-0.0910798
-0.0951696
-0.0990744
-0.102815
-0.106409
-0.109869
-0.113207
-0.116433
-0.119555
-0.122579
-0.125512
-0.128359
-0.131118
-0.133783
-0.136382
-0.138966
-0.141471
-0.143814
0.117081
0.126429
0.136522
0.14733
0.158766
0.170595
0.182412
0.193596
0.202185
0.200617
0.193756
0.182103
0.166513
0.147589
0.126337
0.10393
0.0814667
0.0598067
0.0395548
0.0210751
0.00579456
-0.0066102
-0.0175443
-0.0272471
-0.0359116
-0.0437099
-0.0507847
-0.0572565
-0.063224
-0.068768
-0.0739533
-0.0788319
-0.0834452
-0.0878264
-0.0920024
-0.0959951
-0.0998224
-0.1035
-0.107039
-0.110452
-0.113746
-0.11693
-0.12001
-0.122994
-0.125878
-0.128658
-0.131363
-0.13405
-0.13665
-0.139047
0.114577
0.123234
0.132455
0.142157
0.152214
0.162306
0.172573
0.183892
0.189556
0.189042
0.183643
0.173813
0.160509
0.144187
0.125669
0.105905
0.0857969
0.0660719
0.0472693
0.0297509
0.0149872
0.00282386
-0.00804703
-0.0178102
-0.0266219
-0.0346247
-0.0419402
-0.0486726
-0.0549089
-0.0607214
-0.066169
-0.0713
-0.0761536
-0.0807617
-0.085151
-0.0893435
-0.0933575
-0.0972086
-0.10091
-0.104474
-0.107908
-0.11122
-0.11442
-0.117513
-0.120499
-0.12337
-0.126159
-0.128929
-0.131606
-0.13404
0.1117
0.119635
0.127956
0.136536
0.145188
0.153869
0.16316
0.172429
0.177472
0.177443
0.173243
0.165047
0.153748
0.139718
0.123624
0.106239
0.088303
0.0704287
0.0530898
0.0366329
0.0225236
0.0107414
7.79202e-05
-0.00960536
-0.0184311
-0.0265144
-0.0339561
-0.0408441
-0.0472535
-0.0532473
-0.0588783
-0.0641902
-0.0692193
-0.073996
-0.0785456
-0.0828897
-0.0870465
-0.0910314
-0.0948581
-0.0985379
-0.10208
-0.105493
-0.108785
-0.111963
-0.115026
-0.117968
-0.120822
-0.123656
-0.126391
-0.12885
0.108511
0.115708
0.123118
0.130575
0.13787
0.144996
0.152906
0.160767
0.165315
0.165847
0.162733
0.156002
0.146487
0.134493
0.120564
0.105327
0.0893896
0.073267
0.05737
0.0420225
0.0286535
0.0173483
0.00699711
-0.00249988
-0.0112352
-0.0192989
-0.0267723
-0.0337277
-0.0402283
-0.0463283
-0.0520737
-0.0575036
-0.0626508
-0.0675435
-0.0722055
-0.0766573
-0.0809165
-0.0849981
-0.0889156
-0.0926803
-0.0963015
-0.0997871
-0.103146
-0.106387
-0.109507
-0.1125
-0.1154
-0.118279
-0.121056
-0.123528
0.105074
0.111527
0.11803
0.124382
0.13036
0.136064
0.142215
0.148868
0.153266
0.154679
0.152252
0.146843
0.138932
0.128763
0.116776
0.103482
0.0893809
0.0749021
0.0604002
0.0461728
0.0335917
0.022826
0.0128608
0.00362925
-0.00493495
-0.0128994
-0.0203274
-0.0272771
-0.0338002
-0.0399423
-0.0457428
-0.0512358
-0.0564508
-0.061413
-0.0661447
-0.0706647
-0.0749897
-0.0791344
-0.0831115
-0.0869322
-0.0906056
-0.0941396
-0.0975432
-0.100825
-0.103981
-0.107007
-0.109937
-0.112845
-0.115649
-0.118122
0.101448
0.107164
0.11278
0.118064
0.122771
0.12698
0.131535
0.136704
0.141376
0.143556
0.141875
0.137693
0.131242
0.12272
0.112484
0.100952
0.0885334
0.0755874
0.0624182
0.0492955
0.0375222
0.0273332
0.017804
0.00889502
0.000563129
-0.00723971
-0.0145607
-0.0214449
-0.0279335
-0.0340639
-0.0398691
-0.0453783
-0.0506172
-0.0556084
-0.0603719
-0.0649252
-0.0692837
-0.0734613
-0.0774702
-0.081321
-0.0850226
-0.0885826
-0.0920099
-0.0953125
-0.0984884
-0.10153
-0.104474
-0.107396
-0.110211
-0.112674
0.097689
0.102688
0.107452
0.111721
0.115227
0.118045
0.121144
0.125305
0.129784
0.13239
0.131661
0.128641
0.123535
0.116511
0.107861
0.0979281
0.08705
0.0755267
0.0636185
0.0515682
0.0406028
0.0310088
0.0219468
0.0134003
0.00534579
-0.00224773
-0.00941321
-0.0161838
-0.0225914
-0.0286654
-0.0344329
-0.0399183
-0.0451436
-0.0501287
-0.0548913
-0.0594474
-0.0638112
-0.0679953
-0.0720115
-0.0758696
-0.0795781
-0.0831442
-0.0865764
-0.0898826
-0.0930609
-0.0961038
-0.0990458
-0.101966
-0.10478
-0.107222
0.0938495
0.0981628
0.102121
0.105446
0.107844
0.109389
0.111033
0.11431
0.118514
0.121523
0.121677
0.119756
0.115899
0.110246
0.103038
0.0945595
0.085091
0.0748839
0.0641611
0.0531398
0.0429685
0.033974
0.0253962
0.0172382
0.00949284
0.00214411
-0.00482851
-0.0114477
-0.0177365
-0.0237176
-0.0294121
-0.0348401
-0.04002
-0.0449691
-0.049703
-0.0542358
-0.0585804
-0.0627484
-0.0667505
-0.070596
-0.0742926
-0.0778471
-0.0812675
-0.0845615
-0.0877271
-0.0907566
-0.093684
-0.0965897
-0.0993889
-0.101801
0.0899769
0.0936446
0.0968559
0.0993175
0.100721
0.101121
0.101454
0.103773
0.107996
0.110995
0.111977
0.111089
0.108396
0.104007
0.0981151
0.0909627
0.0827841
0.073792
0.0641778
0.0541356
0.0447352
0.0363341
0.0282467
0.0204919
0.013077
0.00599848
-0.00075323
-0.00719153
-0.0133318
-0.0191901
-0.0247827
-0.0301254
-0.0352335
-0.0401215
-0.0448031
-0.0492907
-0.0535954
-0.0577279
-0.0616976
-0.0655132
-0.0691815
-0.0727088
-0.0761025
-0.0793702
-0.0825097
-0.0855131
-0.0884137
-0.0912921
-0.0940652
-0.0964383
0.0861137
0.0891826
0.0917118
0.0933999
0.0939292
0.0933278
0.092599
0.0938558
0.0976146
0.100822
0.102595
0.102676
0.101074
0.0978551
0.0931714
0.0872298
0.0802317
0.0723591
0.0637777
0.0546608
0.0460015
0.0381805
0.0305811
0.023236
0.0161642
0.00937308
0.00286263
-0.00337244
-0.00934068
-0.0150526
-0.0205199
-0.0257546
-0.0307692
-0.0355756
-0.0401853
-0.044609
-0.0488565
-0.0529368
-0.0568585
-0.0606291
-0.0642549
-0.0677414
-0.0710955
-0.0743244
-0.077426
-0.0803922
-0.0832553
-0.0860958
-0.0888326
-0.0911597
0.0822969
0.0848184
0.086735
0.0877448
0.0875263
0.0860886
0.0845179
0.0848954
0.0876267
0.0910635
0.0935724
0.0945384
0.0939666
0.0918386
0.0882688
0.0834343
0.0775165
0.0706738
0.0630513
0.0548044
0.046852
0.0395921
0.0324722
0.0255364
0.0188136
0.0123206
0.00606551
5.00608e-05
-0.00572841
-0.0112756
-0.016599
-0.0217077
-0.0266111
-0.0313189
-0.0358407
-0.0401852
-0.0443606
-0.0483747
-0.0522349
-0.0559478
-0.0595188
-0.0629527
-0.0662561
-0.0694356
-0.0724892
-0.0754087
-0.0782254
-0.0810189
-0.0837109
-0.0859862
0.0785579
0.0805859
0.0819615
0.082389
0.0815474
0.0794153
0.0769864
0.0763292
0.0782961
0.0817679
0.084965
0.0863411
0.0870872
0.0859957
0.0834575
0.0796356
0.0747055
0.0688086
0.0620737
0.0546409
0.0473586
0.040637
0.0339835
0.0274515
0.0210784
0.0148889
0.00889814
0.00311372
-0.002462
-0.00783052
-0.012996
-0.0179644
-0.0227426
-0.0273383
-0.0317588
-0.0360113
-0.0401023
-0.0440383
-0.0478255
-0.0514697
-0.0549754
-0.0583469
-0.0615901
-0.0647113
-0.0677086
-0.0705738
-0.0733368
-0.0760762
-0.0787167
-0.0809361
0.0749226
0.0765123
0.0774187
0.0773578
0.0760143
0.0733341
0.0701702
0.0685406
0.0697171
0.0727297
0.0758732
0.0789154
0.0804938
0.0803705
0.0787792
0.0758818
0.0718533
0.0668228
0.0609069
0.0542328
0.0475821
0.0413737
0.03517
0.0290326
0.0230059
0.0171213
0.0113995
0.00585331
0.000489247
-0.00469068
-0.00968762
-0.0145048
-0.019147
-0.0236196
-0.0279281
-0.0320779
-0.0360742
-0.039922
-0.0436266
-0.0471928