/*--------------------------------*- C++ -*----------------------------------*\
  =========                 |
  \\      /  F ield         | OpenFOAM: The Open Source CFD Toolbox
   \\    /   O peration     | Website:  https://openfoam.org
    \\  /    A nd           | Version:  9
     \\/     M anipulation  |
\*---------------------------------------------------------------------------*/
FoamFile
{
    format      ascii;
    class       surfaceScalarField;
    location    "0.02";
    object      phi;
}
// * * * * * * * * * * * * * * * * * * * * * * * * * * * * * * * * * * * * * //

dimensions      [0 3 -1 0 0 0 0];

internalField   nonuniform List<scalar> 
9850
(
3.71614e-07
5.75862e-06
3.44494e-07
5.81791e-06
3.15569e-07
5.88826e-06
2.85297e-07
5.97158e-06
2.54685e-07
6.0693e-06
2.23523e-07
6.18725e-06
1.86004e-07
6.35507e-06
1.39945e-07
6.62535e-06
1.32103e-07
6.92156e-06
2.76387e-07
6.73745e-06
6.21833e-07
5.23943e-06
9.99722e-07
2.31924e-06
9.80059e-07
-2.01487e-07
8.84735e-07
-1.38456e-06
8.20166e-07
-1.59024e-06
8.29872e-07
-1.69587e-06
8.70136e-07
-1.71571e-06
8.9993e-07
-1.68482e-06
9.11271e-07
-1.65857e-06
9.12491e-07
-1.65167e-06
9.11573e-07
-1.3516e-06
9.11036e-07
-1.29052e-06
9.10666e-07
-1.23057e-06
9.10266e-07
-1.17486e-06
9.11503e-07
-1.12987e-06
9.18329e-07
-1.09877e-06
9.3363e-07
-1.07022e-06
9.50259e-07
-1.01549e-06
9.47748e-07
-9.08788e-07
9.11256e-07
-7.54098e-07
8.86438e-07
-5.84655e-07
9.55867e-07
-3.37313e-07
1.15259e-06
4.96057e-07
1.36488e-06
1.29418e-06
1.54021e-06
1.9063e-06
1.65884e-06
2.27496e-06
1.72377e-06
2.4244e-06
1.74873e-06
2.41866e-06
1.74933e-06
2.32384e-06
1.73785e-06
2.18969e-06
1.72201e-06
2.04607e-06
1.70574e-06
1.90743e-06
1.69069e-06
1.77899e-06
1.67732e-06
1.66151e-06
1.66562e-06
1.55411e-06
1.65544e-06
1.45559e-06
1.6466e-06
1.36492e-06
1.63889e-06
1.28146e-06
1.63206e-06
1.20508e-06
1.13566e-06
3.98435e-07
5.77973e-06
3.76254e-07
5.84009e-06
3.53356e-07
5.91116e-06
3.30566e-07
5.99437e-06
3.09058e-07
6.09081e-06
2.88244e-07
6.20806e-06
2.63173e-07
6.38014e-06
2.36907e-07
6.65161e-06
2.60383e-07
6.89809e-06
4.37394e-07
6.56043e-06
7.87577e-07
4.88925e-06
1.08971e-06
2.01711e-06
1.09324e-06
-2.05019e-07
8.61256e-07
-1.15258e-06
7.93128e-07
-1.52212e-06
8.23772e-07
-1.72652e-06
8.73303e-07
-1.76524e-06
9.02793e-07
-1.71431e-06
9.12147e-07
-1.66792e-06
9.11801e-07
-1.65132e-06
9.1037e-07
-1.35017e-06
9.10517e-07
-1.29066e-06
9.11828e-07
-1.23188e-06
9.11946e-07
-1.17497e-06
9.08765e-07
-1.12669e-06
9.04526e-07
-1.09453e-06
9.04903e-07
-1.07059e-06
9.08955e-07
-1.01954e-06
8.9977e-07
-8.99603e-07
8.61372e-07
-7.15701e-07
8.54207e-07
-5.7749e-07
8.65567e-07
-3.48673e-07
9.93099e-07
3.68526e-07
1.15597e-06
1.13131e-06
1.30322e-06
1.75904e-06
1.41216e-06
2.16602e-06
1.48067e-06
2.35589e-06
1.51558e-06
2.38375e-06
1.5277e-06
2.31172e-06
1.52676e-06
2.19063e-06
1.51961e-06
2.05321e-06
1.51027e-06
1.91677e-06
1.50071e-06
1.78855e-06
1.49171e-06
1.6705e-06
1.48352e-06
1.5623e-06
1.47611e-06
1.463e-06
1.46935e-06
1.37167e-06
1.46312e-06
1.28769e-06
1.45749e-06
1.21071e-06
1.13953e-06
4.2567e-07
5.79682e-06
4.08288e-07
5.85748e-06
3.91184e-07
5.92826e-06
3.75406e-07
6.01015e-06
3.62126e-07
6.10409e-06
3.50516e-07
6.21967e-06
3.37086e-07
6.39357e-06
3.30288e-07
6.65841e-06
3.81241e-07
6.84713e-06
5.74534e-07
6.36714e-06
9.07109e-07
4.55668e-06
1.1669e-06
1.75731e-06
1.25927e-06
-2.97381e-07
8.93376e-07
-7.86687e-07
8.20532e-07
-1.44927e-06
8.5581e-07
-1.76179e-06
8.95101e-07
-1.80453e-06
9.12068e-07
-1.73128e-06
9.14397e-07
-1.67025e-06
9.11001e-07
-1.64792e-06
9.08531e-07
-1.3477e-06
9.0958e-07
-1.29171e-06
9.14249e-07
-1.23655e-06
9.17117e-07
-1.17784e-06
9.08089e-07
-1.11766e-06
8.82828e-07
-1.06927e-06
8.52317e-07
-1.04008e-06
8.34117e-07
-1.00134e-06
8.2659e-07
-8.92076e-07
8.49485e-07
-7.38596e-07
8.96494e-07
-6.24499e-07
8.63063e-07
-3.15241e-07
9.11655e-07
3.19933e-07
1.01224e-06
1.03073e-06
1.11547e-06
1.65581e-06
1.20028e-06
2.08122e-06
1.25926e-06
2.29691e-06
1.29473e-06
2.34828e-06
1.31236e-06
2.29409e-06
1.31843e-06
2.18455e-06
1.31803e-06
2.05362e-06
1.31449e-06
1.92031e-06
1.3097e-06
1.79334e-06
1.30457e-06
1.67563e-06
1.29945e-06
1.56742e-06
1.29441e-06
1.46804e-06
1.28935e-06
1.37673e-06
1.28416e-06
1.29288e-06
1.27918e-06
1.2157e-06
1.14289e-06
4.52982e-07
5.81003e-06
4.40185e-07
5.87027e-06
4.28497e-07
5.93995e-06
4.19108e-07
6.01954e-06
4.13157e-07
6.11004e-06
4.09649e-07
6.22318e-06
4.0656e-07
6.39666e-06
4.16395e-07
6.64858e-06
4.86467e-07
6.77706e-06
6.72658e-07
6.18095e-06
9.53568e-07
4.27577e-06
1.24525e-06
1.46563e-06
1.4039e-06
-4.56035e-07
1.06656e-06
-4.49346e-07
9.4729e-07
-1.33e-06
9.46294e-07
-1.7608e-06
9.40945e-07
-1.79919e-06
9.26229e-07
-1.71656e-06
9.16346e-07
-1.66037e-06
9.0912e-07
-1.6407e-06
9.04679e-07
-1.34326e-06
9.05685e-07
-1.29272e-06
9.15221e-07
-1.24608e-06
9.27171e-07
-1.18979e-06
9.21646e-07
-1.11213e-06
8.84102e-07
-1.03172e-06
8.33386e-07
-9.89368e-07
8.09527e-07
-9.7748e-07
8.62185e-07
-9.44735e-07
9.88047e-07
-8.64457e-07
1.04306e-06
-6.79509e-07
9.84248e-07
-2.56433e-07
9.36235e-07
3.67946e-07
9.42514e-07
1.02445e-06
9.80169e-07
1.61816e-06
1.02433e-06
2.03706e-06
1.06227e-06
2.25897e-06
1.08977e-06
2.32078e-06
1.10715e-06
2.27671e-06
1.11661e-06
2.17509e-06
1.1208e-06
2.04943e-06
1.12186e-06
1.91926e-06
1.12118e-06
1.79402e-06
1.11957e-06
1.67725e-06
1.1174e-06
1.56959e-06
1.11477e-06
1.47067e-06
1.11163e-06
1.37987e-06
1.10803e-06
1.29647e-06
1.1046e-06
1.21913e-06
1.14491e-06
4.80063e-07
5.81953e-06
4.71566e-07
5.87877e-06
4.6486e-07
5.94666e-06
4.6118e-07
6.02322e-06
4.61546e-07
6.10967e-06
4.64894e-07
6.21984e-06
4.70425e-07
6.39113e-06
4.92345e-07
6.62666e-06
5.71083e-07
6.69832e-06
7.37212e-07
6.01482e-06
9.63453e-07
4.04952e-06
1.24034e-06
1.18875e-06
1.32131e-06
-5.37009e-07
1.25075e-06
-3.7879e-07
1.13299e-06
-1.21224e-06
1.0684e-06
-1.6962e-06
9.9266e-07
-1.72345e-06
9.36015e-07
-1.65992e-06
9.14397e-07
-1.63875e-06
9.04859e-07
-1.63116e-06
8.9767e-07
-1.33607e-06
8.96301e-07
-1.29135e-06
9.09952e-07
-1.25973e-06
9.36916e-07
-1.21676e-06
9.50428e-07
-1.12565e-06
9.26727e-07
-1.00802e-06
8.94728e-07
-9.57369e-07
9.14205e-07
-9.96957e-07
1.00297e-06
-1.0335e-06
1.12322e-06
-9.84707e-07
1.21914e-06
-7.75428e-07
1.11288e-06
-1.50181e-07
9.8232e-07
4.98512e-07
8.97398e-07
1.10937e-06
8.66838e-07
1.64872e-06
8.67082e-07
2.03681e-06
8.80389e-07
2.24567e-06
8.96639e-07
2.30453e-06
9.10803e-07
2.26254e-06
9.21528e-07
2.16436e-06
9.2893e-07
2.04202e-06
9.33722e-07
1.91446e-06
9.36662e-07
1.79108e-06
9.38309e-07
1.6756e-06
9.38988e-07
1.56892e-06
9.38844e-07
1.47082e-06
9.37981e-07
1.38074e-06
9.3674e-07
1.29771e-06
9.35827e-07
1.22005e-06
1.14503e-06
5.06649e-07
5.82554e-06
5.02124e-07
5.88329e-06
4.99932e-07
5.94885e-06
5.01273e-07
6.02188e-06
5.0696e-07
6.10398e-06
5.15906e-07
6.21089e-06
5.28336e-07
6.3787e-06
5.58702e-07
6.59629e-06
6.39592e-07
6.61743e-06
7.86399e-07
5.86801e-06
9.52243e-07
3.88368e-06
1.02752e-06
1.11347e-06
9.96398e-07
-5.05886e-07
1.17742e-06
-5.5981e-07
1.21036e-06
-1.24518e-06
1.12008e-06
-1.60593e-06
1.00238e-06
-1.60575e-06
9.26689e-07
-1.58423e-06
9.0492e-07
-1.61698e-06
8.97622e-07
-1.62386e-06
8.88282e-07
-1.32673e-06
8.8155e-07
-1.28462e-06
8.92838e-07
-1.27102e-06
9.29693e-07
-1.25361e-06
9.63625e-07
-1.15958e-06
9.60603e-07
-1.005e-06
9.60777e-07
-9.57543e-07
9.84709e-07
-1.02089e-06
1.05652e-06
-1.10531e-06
1.06054e-06
-9.88726e-07
1.1634e-06
-8.78286e-07
1.09093e-06
-7.77136e-08
9.29342e-07
6.60105e-07
8.03172e-07
1.23554e-06
7.31075e-07
1.72081e-06
7.01701e-07
2.06618e-06
6.97701e-07
2.24967e-06
7.06082e-07
2.29615e-06
7.18737e-07
2.24989e-06
7.31246e-07
2.15185e-06
7.41861e-07
2.03141e-06
7.50237e-07
1.90609e-06
7.56606e-07
1.78471e-06
7.6133e-07
1.67088e-06
7.64712e-07
1.56553e-06
7.67005e-07
1.46852e-06
7.68559e-07
1.37918e-06
7.69929e-07
1.29634e-06
7.71581e-07
1.21839e-06
1.14354e-06
5.3253e-07
5.82832e-06
5.31635e-07
5.88419e-06
5.33479e-07
5.94701e-06
5.39178e-07
6.01618e-06
5.49293e-07
6.09387e-06
5.62724e-07
6.19746e-06
5.8053e-07
6.36089e-06
6.17025e-07
6.5598e-06
6.98541e-07
6.53592e-06
8.30505e-07
5.73605e-06
9.43491e-07
3.7707e-06
8.00675e-07
1.25629e-06
6.00756e-07
-3.05967e-07
8.83783e-07
-8.42836e-07
1.04945e-06
-1.41084e-06
1.03073e-06
-1.58721e-06
9.49424e-07
-1.52444e-06
8.98482e-07
-1.53328e-06
8.89911e-07
-1.60841e-06
8.89726e-07
-1.62368e-06
8.81021e-07
-1.31802e-06
8.6869e-07
-1.27229e-06
8.66927e-07
-1.26926e-06
8.89725e-07
-1.27641e-06
9.14081e-07
-1.18393e-06
9.04545e-07
-9.95464e-07
9.06734e-07
-9.59731e-07
9.29385e-07
-1.04354e-06
8.84409e-07
-1.06034e-06
8.43668e-07
-9.47985e-07
8.18046e-07
-8.52664e-07
8.0372e-07
-6.3387e-08
7.23606e-07
7.40218e-07
6.23239e-07
1.3359e-06
5.52008e-07
1.79205e-06
5.16535e-07
2.10166e-06
5.0842e-07
2.25778e-06
5.16021e-07
2.28855e-06
5.30418e-07
2.23549e-06
5.46118e-07
2.13616e-06
5.60424e-07
2.0171e-06
5.72409e-07
1.8941e-06
5.82024e-07
1.7751e-06
5.89549e-07
1.66335e-06
5.9535e-07
1.55973e-06
5.99868e-07
1.46401e-06
6.03674e-07
1.37538e-06
6.07321e-07
1.29269e-06
6.10832e-07
1.21488e-06
1.14117e-06
5.57539e-07
5.82809e-06
5.59939e-07
5.88179e-06
5.65359e-07
5.94159e-06
5.74797e-07
6.00674e-06
5.88546e-07
6.08012e-06
6.05481e-07
6.18053e-06
6.27265e-07
6.33911e-06
6.68378e-07
6.51868e-06
7.51547e-07
6.45275e-06
8.73354e-07
5.61424e-06
9.46216e-07
3.69783e-06
7.2023e-07
1.48227e-06
5.00369e-07
-8.61063e-08
9.47825e-07
-1.29029e-06
9.70137e-07
-1.43316e-06
9.28475e-07
-1.54555e-06
9.00905e-07
-1.49687e-06
8.78694e-07
-1.51107e-06
8.80365e-07
-1.61008e-06
8.87039e-07
-1.63035e-06
8.85372e-07
-1.31635e-06
8.80242e-07
-1.26716e-06
8.70048e-07
-1.25906e-06
8.55926e-07
-1.26229e-06
8.20098e-07
-1.1481e-06
8.01249e-07
-9.76616e-07
7.73958e-07
-9.3244e-07
8.60528e-07
-1.13011e-06
9.1259e-07
-1.1124e-06
9.55943e-07
-9.91338e-07
7.89876e-07
-6.86597e-07
6.43899e-07
8.259e-08
5.37924e-07
8.46194e-07
4.38404e-07
1.43542e-06
3.67313e-07
1.86314e-06
3.31225e-07
2.13775e-06
3.23756e-07
2.26525e-06
3.33456e-07
2.27885e-06
3.50924e-07
2.21802e-06
3.70074e-07
2.11701e-06
3.87759e-07
1.99942e-06
4.02777e-07
1.87909e-06
4.14956e-07
1.76292e-06
4.24579e-07
1.65373e-06
4.3213e-07
1.55218e-06
4.38236e-07
1.4579e-06
4.43573e-07
1.37004e-06
4.48541e-07
1.28773e-06
4.52846e-07
1.21058e-06
1.13859e-06
5.81554e-07
5.82511e-06
5.86927e-07
5.87642e-06
5.9549e-07
5.93302e-06
6.081e-07
5.99413e-06
6.24763e-07
6.06346e-06
6.44329e-07
6.16096e-06
6.68988e-07
6.31445e-06
7.14079e-07
6.47359e-06
8.0367e-07
6.36316e-06
9.39224e-07
5.47869e-06
1.02152e-06
3.61554e-06
9.96663e-07
1.50713e-06
1.12259e-06
-2.12035e-07
1.1751e-06
-1.3428e-06
1.02927e-06
-1.28733e-06
8.66115e-07
-1.38239e-06
9.22036e-07
-1.55279e-06
9.01329e-07
-1.49037e-06
8.86998e-07
-1.59575e-06
8.96755e-07
-1.64011e-06
9.1906e-07
-1.33866e-06
9.51528e-07
-1.29963e-06
9.77866e-07
-1.2854e-06
9.31918e-07
-1.21634e-06
8.36287e-07
-1.05247e-06
6.06417e-07
-7.46746e-07
8.3272e-07
-1.15874e-06
9.98396e-07
-1.29579e-06
1.06014e-06
-1.17414e-06
9.98337e-07
-9.29536e-07
7.73878e-07
-4.62139e-07
5.63022e-07
2.93446e-07
4.05117e-07
1.0041e-06
2.84835e-07
1.55571e-06
2.0498e-07
1.94299e-06
1.65961e-07
2.17676e-06
1.57691e-07
2.27352e-06
1.6821e-07
2.26833e-06
1.87315e-07
2.19892e-06
2.08407e-07
2.09591e-06
2.28008e-07
1.97982e-06
2.44715e-07
1.86238e-06
2.58265e-07
1.74937e-06
2.68959e-07
1.64303e-06
2.77383e-07
1.54376e-06
2.84264e-07
1.45102e-06
2.90241e-07
1.36406e-06
2.95529e-07
1.28244e-06
2.99732e-07
1.20638e-06
1.13628e-06
6.04488e-07
5.8196e-06
6.12538e-07
5.86837e-06
6.23854e-07
5.92171e-06
6.3912e-07
5.97886e-06
6.5803e-07
6.04454e-06
6.79396e-07
6.13959e-06
7.05996e-07
6.28785e-06
7.54298e-07
6.42529e-06
8.50681e-07
6.26678e-06
9.92335e-07
5.33703e-06
1.10866e-06
3.49921e-06
1.15617e-06
1.45963e-06
1.19557e-06
-2.51444e-07
1.02812e-06
-1.17534e-06
9.22744e-07
-1.18196e-06
8.96354e-07
-1.356e-06
9.388e-07
-1.59524e-06
9.46068e-07
-1.49763e-06
9.09369e-07
-1.55905e-06
9.21083e-07
-1.65182e-06
9.97039e-07
-1.41462e-06
1.08923e-06
-1.39182e-06
1.13354e-06
-1.32971e-06
1.15825e-06
-1.24105e-06
1.09758e-06
-9.91798e-07
1.22708e-06
-8.76244e-07
1.23144e-06
-1.1631e-06
1.22524e-06
-1.28959e-06
1.15918e-06
-1.10808e-06
9.76712e-07
-7.47065e-07
6.97239e-07
-1.82665e-07
4.59666e-07
5.31019e-07
2.77887e-07
1.18588e-06
1.46095e-07
1.6875e-06
6.16248e-08
2.02746e-06
2.10374e-08
2.21735e-06
1.24596e-08
2.2821e-06
2.30005e-08
2.25779e-06
4.2317e-08
2.1796e-06
6.37331e-08
2.0745e-06
8.36914e-08
1.95986e-06
1.00711e-07
1.84536e-06
1.14494e-07
1.73558e-06
1.25358e-07
1.63217e-06
1.33909e-07
1.53521e-06
1.40792e-07
1.44414e-06
1.46412e-07
1.35844e-06
1.50737e-07
1.27811e-06
1.53373e-07
1.20374e-06
1.13523e-06
6.26288e-07
5.81178e-06
6.3675e-07
5.8579e-06
6.50478e-07
5.90798e-06
6.67932e-07
5.96141e-06
6.8846e-07
6.02402e-06
7.10738e-07
6.11732e-06
7.38049e-07
6.26053e-06
7.8735e-07
6.37599e-06
8.86156e-07
6.16797e-06
1.02053e-06
5.20266e-06
1.13177e-06
3.38797e-06
1.21338e-06
1.37802e-06
1.24922e-06
-2.87289e-07
1.11091e-06
-1.03702e-06
9.78921e-07
-1.04997e-06
9.38677e-07
-1.31576e-06
9.69716e-07
-1.62628e-06
1.03312e-06
-1.56104e-06
1.02831e-06
-1.55424e-06
1.02725e-06
-1.65076e-06
1.09063e-06
-1.478e-06
1.12905e-06
-1.43024e-06
1.13681e-06
-1.33746e-06
1.09632e-06
-1.20056e-06
1.1269e-06
-1.02238e-06
1.26783e-06
-1.01717e-06
1.30033e-06
-1.19561e-06
1.23971e-06
-1.22897e-06
1.11088e-06
-9.79253e-07
8.82043e-07
-5.18227e-07
5.99315e-07
1.00063e-07
3.44674e-07
7.8566e-07
1.50867e-07
1.37968e-06
1.47596e-08
1.8236e-06
-6.87692e-08
2.11099e-06
-1.07644e-07
2.25623e-06
-1.1507e-07
2.28953e-06
-1.04238e-07
2.24695e-06
-8.52089e-08
2.16057e-06
-6.43427e-08
2.05363e-06
-4.50004e-08
1.94052e-06
-2.85776e-08
1.82894e-06
-1.53523e-08
1.72236e-06
-5.0574e-09
1.62187e-06
2.72429e-09
1.52742e-06
8.24099e-09
1.43862e-06
1.13692e-08
1.35532e-06
1.17156e-08
1.27777e-06
9.38921e-09
1.20607e-06
1.13822e-06
6.46923e-07
5.80183e-06
6.59575e-07
5.84525e-06
6.75428e-07
5.89213e-06
6.94674e-07
5.94216e-06
7.16252e-07
6.00244e-06
7.38567e-07
6.095e-06
7.65111e-07
6.23399e-06
8.12176e-07
6.32892e-06
9.03136e-07
6.07701e-06
1.02655e-06
5.07924e-06
1.1399e-06
3.27463e-06
1.23625e-06
1.28167e-06
1.30167e-06
-3.52702e-07
1.13123e-06
-8.66584e-07
1.01841e-06
-9.37153e-07
9.84001e-07
-1.28135e-06
1.0245e-06
-1.66678e-06
1.15281e-06
-1.68935e-06
1.26239e-06
-1.66382e-06
1.31679e-06
-1.70516e-06
1.2964e-06
-1.45761e-06
1.25892e-06
-1.39277e-06
1.22519e-06
-1.30374e-06
1.21331e-06
-1.18867e-06
1.25497e-06
-1.06404e-06
1.33779e-06
-1.1e-06
1.32386e-06
-1.18168e-06
1.20832e-06
-1.11343e-06
1.01817e-06
-7.89101e-07
7.5858e-07
-2.58639e-07
4.72007e-07
3.86636e-07
2.20462e-07
1.03721e-06
2.62627e-08
1.57388e-06
-1.07669e-07
1.95754e-06
-1.86513e-07
2.18984e-06
-2.21472e-07
2.29118e-06
-2.26792e-07
2.29485e-06
-2.15453e-07
2.23562e-06
-1.96916e-07
2.14204e-06
-1.7696e-07
2.03368e-06
-1.58526e-07
1.92208e-06
-1.42737e-07
1.81315e-06
-1.29692e-07
1.70931e-06
-1.19035e-07
1.61122e-06
-1.10346e-07
1.51873e-06
-1.03366e-07
1.43164e-06
-9.79678e-08
1.34992e-06
-9.37861e-08
1.27358e-06
-8.95587e-08
1.20184e-06
1.13237e-06
6.66383e-07
5.7899e-06
6.81051e-07
5.83058e-06
6.98815e-07
5.87436e-06
7.19563e-07
5.92142e-06
7.41798e-07
5.9802e-06
7.63615e-07
6.07318e-06
7.88618e-07
6.20899e-06
8.32312e-07
6.28523e-06
9.14996e-07
5.99433e-06
1.03517e-06
4.95906e-06
1.15728e-06
3.15253e-06
1.27836e-06
1.16058e-06
1.1289e-06
-2.03238e-07
9.94074e-07
-7.31759e-07
9.98399e-07
-9.41477e-07
1.07219e-06
-1.35514e-06
1.18418e-06
-1.77876e-06
1.39426e-06
-1.89943e-06
1.60818e-06
-1.87774e-06
1.72231e-06
-1.81929e-06
1.7051e-06
-1.4404e-06
1.62551e-06
-1.31317e-06
1.51755e-06
-1.19578e-06
1.42785e-06
-1.09898e-06
1.40681e-06
-1.043e-06
1.38878e-06
-1.08197e-06
1.30755e-06
-1.10045e-06
1.14327e-06
-9.49158e-07
9.10209e-07
-5.56036e-07
6.27841e-07
2.37296e-08
3.39208e-07
6.75268e-07
9.29875e-08
1.28343e-06
-9.40158e-08
1.76089e-06
-2.1974e-07
2.08326e-06
-2.91016e-07
2.26111e-06
-3.20848e-07
2.32102e-06
-3.23763e-07
2.29776e-06
-3.12089e-07
2.22394e-06
-2.94399e-07
2.12435e-06
-2.75713e-07
2.01499e-06
-2.58456e-07
1.90483e-06
-2.4345e-07
1.79814e-06
-2.30683e-07
1.69655e-06
-2.19858e-07
1.60039e-06
-2.10736e-07
1.50961e-06
-2.03244e-07
1.42415e-06
-1.97328e-07
1.344e-06
-1.92679e-07
1.26893e-06
-1.88941e-07
1.1981e-06
1.13039e-06
6.84668e-07
5.77611e-06
7.01232e-07
5.81402e-06
7.20782e-07
5.85481e-06
7.42893e-07
5.89931e-06
7.65677e-07
5.95742e-06
7.87029e-07
6.05183e-06
8.10827e-07
6.18519e-06
8.5239e-07
6.24367e-06
9.29941e-07
5.91677e-06
1.04585e-06
4.84315e-06
1.16648e-06
3.0319e-06
1.24953e-06
1.07753e-06
1.0531e-06
-6.80962e-09
9.46577e-07
-6.25232e-07
1.02605e-06
-1.02095e-06
1.19926e-06
-1.52835e-06
1.40312e-06
-1.98262e-06
1.6676e-06
-2.16391e-06
1.91773e-06
-2.12787e-06
2.06115e-06
-1.96272e-06
2.05912e-06
-1.43837e-06
1.96709e-06
-1.22114e-06
1.82445e-06
-1.05314e-06
1.6748e-06
-9.49331e-07
1.54954e-06
-9.17734e-07
1.42592e-06
-9.5835e-07
1.2718e-06
-9.46322e-07
1.06112e-06
-7.38485e-07
7.94789e-07
-2.89701e-07
4.96123e-07
3.22396e-07
2.0843e-07
9.62961e-07
-3.01902e-08
1.52205e-06
-2.0633e-07
1.93703e-06
-3.20759e-07
2.19769e-06
-3.82923e-07
2.32327e-06
-4.07167e-07
2.34526e-06
-4.0782e-07
2.29841e-06
-3.96217e-07
2.21234e-06
-3.79841e-07
2.10797e-06
-3.62864e-07
1.99801e-06
-3.47181e-07
1.88914e-06
-3.33369e-07
1.78433e-06
-3.21401e-07
1.68458e-06
-3.11119e-07
1.59011e-06
-3.02451e-07
1.50094e-06
-2.95391e-07
1.41709e-06
-2.89853e-07
1.33846e-06
-2.85608e-07
1.26469e-06
-2.82637e-07
1.19513e-06
1.12924e-06
7.01777e-07
5.76055e-06
7.2017e-07
5.79563e-06
7.41474e-07
5.83351e-06
7.64969e-07
5.87581e-06
7.88476e-07
5.93391e-06
8.09885e-07
6.03042e-06
8.33455e-07
6.16162e-06
8.74739e-07
6.20238e-06
9.49745e-07
5.84177e-06
1.05446e-06
4.73843e-06
1.1302e-06
2.95616e-06
1.13766e-06
1.07008e-06
1.01483e-06
1.16017e-07
9.83736e-07
-5.94138e-07
1.13671e-06
-1.17393e-06
1.38463e-06
-1.77626e-06
1.65389e-06
-2.25189e-06
1.93633e-06
-2.44635e-06
2.17505e-06
-2.36659e-06
2.30427e-06
-2.09193e-06
2.30215e-06
-1.43625e-06
2.21044e-06
-1.12943e-06
2.05294e-06
-8.95638e-07
1.86169e-06
-7.5808e-07
1.66395e-06
-7.19999e-07
1.45566e-06
-7.50052e-07
1.2329e-06
-7.2357e-07
9.75487e-07
-4.81069e-07
6.77923e-07
7.86331e-09
3.66813e-07
6.33506e-07
8.21763e-08
1.2476e-06
-1.45905e-07
1.75013e-06
-3.08651e-07
2.09977e-06
-4.10427e-07
2.29947e-06
-4.63264e-07
2.37611e-06
-4.82304e-07
2.3643e-06
-4.8128e-07
2.29739e-06
-4.70321e-07
2.20138e-06
-4.55734e-07
2.09338e-06
-4.40847e-07
1.98312e-06
-4.27074e-07
1.87537e-06
-4.14821e-07
1.77207e-06
-4.04105e-07
1.67386e-06
-3.94896e-07
1.5809e-06
-3.87207e-07
1.49325e-06
-3.81034e-07
1.41092e-06
-3.76276e-07
1.33371e-06
-3.72816e-07
1.26123e-06
-3.70693e-07
1.19301e-06
1.12858e-06
7.17695e-07
5.74327e-06
7.37899e-07
5.77542e-06
7.61004e-07
5.8104e-06
7.8604e-07
5.85078e-06
8.1066e-07
5.90929e-06
8.32973e-07
6.00811e-06
8.57704e-07
6.13689e-06
9.00453e-07
6.15963e-06
9.74711e-07
5.76751e-06
1.06146e-06
4.65169e-06
1.08992e-06
2.92769e-06
1.06435e-06
1.09565e-06
1.0248e-06
1.55567e-07
1.09061e-06
-6.59947e-07
1.32692e-06
-1.41023e-06
1.62037e-06
-2.06972e-06
1.92056e-06
-2.55207e-06
2.19902e-06
-2.72482e-06
2.40555e-06
-2.57312e-06
2.49438e-06
-2.18076e-06
2.46626e-06
-1.40813e-06
2.35611e-06
-1.01928e-06
2.18091e-06
-7.20434e-07
1.96104e-06
-5.38213e-07
1.717e-06
-4.75953e-07
1.45876e-06
-4.91819e-07
1.18464e-06
-4.49442e-07
8.84595e-07
-1.81029e-07
5.59846e-07
3.32613e-07
2.39915e-07
9.53437e-07
-3.86072e-08
1.52612e-06
-2.53376e-07
1.9649e-06
-4.00919e-07
2.24731e-06
-4.89612e-07
2.38816e-06
-5.33656e-07
2.42016e-06
-5.48376e-07
2.37902e-06
-5.46496e-07
2.29551e-06
-5.36777e-07
2.19166e-06
-5.24353e-07
2.08096e-06
-5.11777e-07
1.97055e-06
-5.00083e-07
1.86368e-06
-4.8959e-07
1.76158e-06
-4.80392e-07
1.66466e-06
-4.72557e-07
1.57307e-06
-4.66136e-07
1.48683e-06
-4.61102e-07
1.40588e-06
-4.57354e-07
1.32996e-06
-4.54787e-07
1.25866e-06
-4.53342e-07
1.19156e-06
1.12815e-06
7.32388e-07
5.72432e-06
7.54419e-07
5.75339e-06
7.79425e-07
5.7854e-06
8.06271e-07
5.82393e-06
8.3256e-07
5.883e-06
8.56871e-07
5.9838e-06
8.84631e-07
6.10913e-06
9.31527e-07
6.11274e-06
1.00885e-06
5.69019e-06
1.08909e-06
4.57144e-06
1.13717e-06
2.87961e-06
1.13381e-06
1.09901e-06
1.16309e-06
1.26287e-07
1.34223e-06
-8.39089e-07
1.58909e-06
-1.6571e-06
1.8796e-06
-2.36022e-06
2.1826e-06
-2.85507e-06
2.44231e-06
-2.98453e-06
2.60463e-06
-2.73543e-06
2.6386e-06
-2.21473e-06
2.56787e-06
-1.3374e-06
2.42341e-06
-8.74821e-07
2.22199e-06
-5.19022e-07
1.9786e-06
-2.94814e-07
1.70841e-06
-2.0577e-07
1.42124e-06
-2.04641e-07
1.11413e-06
-1.42341e-07
7.82038e-07
1.51068e-07
4.37167e-07
6.77485e-07
1.14311e-07
1.27629e-06
-1.54129e-07
1.79456e-06
-3.53009e-07
2.16378e-06
-4.84335e-07
2.37864e-06
-5.60219e-07
2.46404e-06
-5.96398e-07
2.45634e-06
-6.07795e-07
2.39042e-06
-6.05796e-07
2.29351e-06
-5.97713e-07
2.18358e-06
-5.87578e-07
2.07082e-06
-5.7729e-07
1.96026e-06
-5.67624e-07
1.85401e-06
-5.58885e-07
1.75284e-06
-5.51244e-07
1.65702e-06
-5.44824e-07
1.56665e-06
-5.39672e-07
1.48168e-06
-5.35738e-07
1.40195e-06
-5.32899e-07
1.32712e-06
-5.31022e-07
1.25679e-06
-5.29985e-07
1.19052e-06
1.12782e-06
7.45791e-07
5.70373e-06
7.6968e-07
5.7295e-06
7.96722e-07
5.75835e-06
8.25714e-07
5.79494e-06
8.54355e-07
5.85436e-06
8.81922e-07
5.95623e-06
9.14808e-07
6.07624e-06
9.68648e-07
6.0589e-06
1.05529e-06
5.60355e-06
1.15822e-06
4.46851e-06
1.30149e-06
2.73634e-06
1.31227e-06
1.08823e-06
1.47903e-06
-4.04767e-08
1.65591e-06
-1.01597e-06
1.83153e-06
-1.83271e-06
2.11643e-06
-2.64512e-06
2.41961e-06
-3.15826e-06
2.64904e-06
-3.21395e-06
2.75441e-06
-2.84081e-06
2.72411e-06
-2.18442e-06
2.60476e-06
-1.21806e-06
2.42126e-06
-6.91319e-07
2.19137e-06
-2.89129e-07
1.92842e-06
-3.18651e-08
1.64406e-06
7.85885e-08
1.3424e-06
9.70158e-08
1.0162e-06
1.83864e-07
6.626e-07
5.04663e-07
3.06339e-07
1.03375e-06
-1.26286e-08
1.59526e-06
-2.66162e-07
2.04809e-06
-4.46542e-07
2.34416e-06
-5.61056e-07
2.49315e-06
-6.24773e-07
2.52776e-06
-6.54106e-07
2.48567e-06
-6.6302e-07
2.39933e-06
-6.61336e-07
2.29183e-06
-6.54943e-07
2.17719e-06
-6.46906e-07
2.06279e-06
-6.38638e-07
1.95199e-06
-6.30763e-07
1.84614e-06
-6.23609e-07
1.74569e-06
-6.17398e-07
1.65081e-06
-6.1226e-07
1.56151e-06
-6.08217e-07
1.47764e-06
-6.05189e-07
1.39892e-06
-6.0304e-07
1.32497e-06
-6.01631e-07
1.25538e-06
-6.00841e-07
1.18973e-06
1.12756e-06
7.57807e-07
5.68156e-06
7.83578e-07
5.70373e-06
8.12796e-07
5.72914e-06
8.44289e-07
5.76344e-06
8.7599e-07
5.82266e-06
9.07987e-07
5.92423e-06
9.47463e-07
6.03677e-06
1.00905e-06
5.99731e-06
1.10452e-06
5.50808e-06
1.22971e-06
4.34333e-06
1.36967e-06
2.59637e-06
1.42414e-06
1.03376e-06
1.54282e-06
-1.59154e-07
1.68972e-06
-1.16288e-06
1.95183e-06
-2.09482e-06
2.31034e-06
-3.00363e-06
2.62161e-06
-3.46952e-06
2.80387e-06
-3.39622e-06
2.83888e-06
-2.87582e-06
2.73928e-06
-2.08483e-06
2.57202e-06
-1.0508e-06
2.35259e-06
-4.71879e-07
2.09838e-06
-3.4927e-08
1.82218e-06
2.4434e-07
1.53268e-06
3.68091e-07
1.22694e-06
4.02747e-07
8.89793e-07
5.21016e-07
5.23471e-07
8.70985e-07
1.64938e-07
1.39228e-06
-1.42594e-07
1.90279e-06
-3.76412e-07
2.28191e-06
-5.36082e-07
2.50383e-06
-6.33599e-07
2.59067e-06
-6.85893e-07
2.58005e-06
-7.09248e-07
2.50902e-06
-7.16195e-07
2.40628e-06
-7.1488e-07
2.29051e-06
-7.09891e-07
2.1722e-06
-7.03519e-07
2.05642e-06
-6.96852e-07
1.94533e-06
-6.90446e-07
1.83973e-06
-6.8465e-07
1.73989e-06
-6.7969e-07
1.64585e-06
-6.75666e-07
1.55748e-06
-6.72557e-07
1.47453e-06
-6.70262e-07
1.39662e-06
-6.68645e-07
1.32335e-06
-6.67584e-07
1.25432e-06
-6.66985e-07
1.18914e-06
1.12736e-06
7.68301e-07
5.65787e-06
7.9595e-07
5.67608e-06
8.27453e-07
5.69763e-06
8.61759e-07
5.72914e-06
8.97147e-07
5.78727e-06
9.34476e-07
5.88691e-06
9.81359e-07
5.98988e-06
1.04987e-06
5.9288e-06
1.14594e-06
5.412e-06
1.25179e-06
4.23748e-06
1.31287e-06
2.5353e-06
1.39927e-06
9.47363e-07
1.45101e-06
-2.10895e-07
1.65975e-06
-1.37161e-06
2.09604e-06
-2.53111e-06
2.50679e-06
-3.41438e-06
2.78406e-06
-3.7468e-06
2.89312e-06
-3.50528e-06
2.84825e-06
-2.83095e-06
2.67989e-06
-1.91646e-06
2.46977e-06
-8.40679e-07
2.22161e-06
-2.23717e-07
1.95115e-06
2.35536e-07
1.67018e-06
5.25305e-07
1.38362e-06
6.54656e-07
1.07952e-06
7.06844e-07
7.36163e-07
8.64373e-07
3.6431e-07
1.24284e-06
1.24474e-08
1.74414e-06
-2.76088e-07
2.19133e-06
-4.86076e-07
2.4919e-06
-6.23487e-07
2.64124e-06
-7.041e-07
2.67128e-06
-7.45768e-07
2.62172e-06
-7.63784e-07
2.52704e-06
-7.6893e-07
2.41142e-06
-7.6772e-07
2.2893e-06
-7.63635e-07
2.16811e-06
-7.58403e-07
2.05118e-06
-7.52911e-07
1.93983e-06
-7.47675e-07
1.83449e-06
-7.43028e-07
1.73525e-06
-7.3915e-07
1.64197e-06
-7.36082e-07
1.55442e-06
-7.33759e-07
1.47221e-06
-7.32064e-07
1.39493e-06
-7.30877e-07
1.32216e-06
-7.30098e-07
1.25354e-06
-7.29657e-07
1.18869e-06
1.12721e-06
7.77104e-07
5.63278e-06
8.06578e-07
5.64661e-06
8.40416e-07
5.6638e-06
8.77766e-07
5.69179e-06
9.17452e-07
5.74759e-06
9.6078e-07
5.84358e-06
1.01564e-06
5.93502e-06
1.09111e-06
5.85333e-06
1.18258e-06
5.32054e-06
1.24664e-06
4.17342e-06
1.25998e-06
2.52196e-06
1.35035e-06
8.56993e-07
1.53858e-06
-3.99132e-07
1.88128e-06
-1.71431e-06
2.34102e-06
-2.99085e-06
2.70158e-06
-3.77494e-06
2.89281e-06
-3.93803e-06
2.90928e-06
-3.52175e-06
2.7815e-06
-2.70317e-06
2.54964e-06
-1.68461e-06
2.30439e-06
-5.9543e-07
2.03649e-06
4.41886e-08
1.75907e-06
5.12951e-07
1.48201e-06
8.0237e-07
1.20472e-06
9.31949e-07
9.04126e-07
1.00744e-06
5.56715e-07
1.21178e-06
1.86347e-07
1.61321e-06
-1.49935e-07
2.08042e-06
-4.12768e-07
2.45416e-06
-5.95589e-07
2.67472e-06
-7.10009e-07
2.75566e-06
-7.74183e-07
2.73546e-06
-8.05964e-07
2.6535e-06
-8.19039e-07
2.54011e-06
-8.22289e-07
2.41467e-06
-8.2075e-07
2.28776e-06
-8.17031e-07
2.16439e-06
-8.12468e-07
2.04662e-06
-8.07805e-07
1.93517e-06
-8.03498e-07
1.83019e-06
-7.99809e-07
1.73156e-06
-7.96834e-07
1.639e-06
-7.94545e-07
1.55213e-06
-7.92844e-07
1.47051e-06
-7.91613e-07
1.3937e-06
-7.90751e-07
1.3213e-06
-7.90184e-07
1.25297e-06
-7.89861e-07
1.18837e-06
1.12711e-06
7.84019e-07
5.60644e-06
8.15196e-07
5.61543e-06
8.51336e-07
5.62766e-06
8.91849e-07
5.65128e-06
9.36152e-07
5.70329e-06
9.86529e-07
5.7932e-06
1.05085e-06
5.8707e-06
1.13579e-06
5.76839e-06
1.22674e-06
5.22959e-06
1.27302e-06
4.12714e-06
1.31938e-06
2.4756e-06
1.47563e-06
7.00744e-07
1.7653e-06
-6.88799e-07
2.19472e-06
-2.14374e-06
2.5808e-06
-3.37693e-06
2.84629e-06
-4.04043e-06
2.9334e-06
-4.02513e-06
2.85151e-06
-3.43986e-06
2.64425e-06
-2.49591e-06
2.35803e-06
-1.39839e-06
2.0869e-06
-3.24301e-07
1.80854e-06
3.22547e-07
1.53326e-06
7.88233e-07
1.26776e-06
1.06787e-06
1.00285e-06
1.19686e-06
7.04154e-07
1.30613e-06
3.53864e-07
1.56207e-06
-7.8496e-09
1.97492e-06
-3.1974e-07
2.39231e-06
-5.51485e-07
2.68591e-06
-7.04903e-07
2.82814e-06
-7.96151e-07
2.84691e-06
-8.44731e-07
2.78404e-06
-8.67359e-07
2.67613e-06
-8.75726e-07
2.54848e-06
-8.76863e-07
2.41581e-06
-8.74556e-07
2.28546e-06
-8.70756e-07
2.16059e-06
-8.66505e-07
2.04237e-06
-8.62408e-07
1.93107e-06
-8.5881e-07
1.82659e-06
-8.55858e-07
1.72861e-06
-8.53557e-07
1.6367e-06
-8.51823e-07
1.55039e-06
-8.50543e-07
1.46923e-06
-8.49613e-07
1.39277e-06
-8.48955e-07
1.32065e-06
-8.48518e-07
1.25253e-06
-8.48267e-07
1.18812e-06
1.12702e-06
7.88829e-07
5.57907e-06
8.21503e-07
5.58276e-06
8.59806e-07
5.58935e-06
9.03525e-07
5.60756e-06
9.52891e-07
5.65392e-06
1.01136e-06
5.73473e-06
1.08774e-06
5.79432e-06
1.18896e-06
5.66717e-06
1.30206e-06
5.11648e-06
1.40795e-06
4.02125e-06
1.61516e-06
2.26839e-06
1.74153e-06
5.74379e-07
2.06749e-06
-1.01476e-06
2.43599e-06
-2.51224e-06
2.75344e-06
-3.69438e-06
2.92043e-06
-4.20743e-06
2.90088e-06
-4.00559e-06
2.72374e-06
-3.26271e-06
2.44643e-06
-2.2186e-06
2.11797e-06
-1.06992e-06
1.83073e-06
-3.70672e-08
1.55082e-06
6.02464e-07
1.28588e-06
1.05317e-06
1.03739e-06
1.31636e-06
7.82766e-07
1.45148e-06
4.81326e-07
1.60757e-06
1.30295e-07
1.9131e-06
-2.14068e-07
2.31928e-06
-4.93647e-07
2.67189e-06
-6.90219e-07
2.88248e-06
-8.13187e-07
2.95111e-06
-8.8197e-07
2.91569e-06
-9.16023e-07
2.81809e-06
-9.30205e-07
2.69031e-06
-9.34029e-07
2.55231e-06
-9.32844e-07
2.41463e-06
-9.29432e-07
2.28204e-06
-9.25232e-07
2.15639e-06
-9.21032e-07
2.03817e-06
-9.17263e-07
1.9273e-06
-9.1412e-07
1.82345e-06
-9.11632e-07
1.72612e-06
-9.09724e-07
1.63479e-06
-9.08286e-07
1.54896e-06
-9.0721e-07
1.46815e-06
-9.06413e-07
1.39197e-06
-9.0584e-07
1.32007e-06
-9.05453e-07
1.25215e-06
-9.05229e-07
1.1879e-06
1.12695e-06
7.91304e-07
5.55098e-06
8.25165e-07
5.5489e-06
8.65352e-07
5.54917e-06
9.12117e-07
5.56079e-06
9.66605e-07
5.59943e-06
1.03383e-06
5.66751e-06
1.1241e-06
5.70405e-06
1.24704e-06
5.54424e-06
1.39646e-06
4.96706e-06
1.58123e-06
3.83648e-06
1.80032e-06
2.0493e-06
1.95664e-06
4.18059e-07
2.25902e-06
-1.31714e-06
2.61142e-06
-2.86463e-06
2.86011e-06
-3.94307e-06
2.92373e-06
-4.27105e-06
2.79721e-06
-3.87907e-06
2.53434e-06
-2.99984e-06
2.20106e-06
-1.88532e-06
1.84383e-06
-7.12693e-07
1.54997e-06
2.56796e-07
1.2766e-06
8.75832e-07
1.0286e-06
1.30116e-06
7.97076e-07
1.54789e-06
5.46076e-07
1.70248e-06
2.37436e-07
1.91621e-06
-1.09261e-07
2.2598e-06
-4.2645e-07
2.63647e-06
-6.67515e-07
2.91296e-06
-8.2654e-07
3.0415e-06
-9.19278e-07
3.04385e-06
-9.66975e-07
2.96339e-06
-9.87797e-07
2.83891e-06
-9.94252e-07
2.69677e-06
-9.93712e-07
2.55177e-06
-9.90087e-07
2.411e-06
-9.85356e-07
2.27731e-06
-9.80539e-07
2.15157e-06
-9.76163e-07
2.03379e-06
-9.72462e-07
1.9236e-06
-9.69479e-07
1.82046e-06
-9.67142e-07
1.72378e-06
-9.65333e-07
1.63298e-06
-9.63938e-07
1.54756e-06
-9.62868e-07
1.46708e-06
-9.62058e-07
1.39116e-06
-9.61467e-07
1.31948e-06
-9.61064e-07
1.25174e-06
-9.60829e-07
1.18766e-06
1.12686e-06
7.91217e-07
5.52253e-06
8.25833e-07
5.51428e-06
8.67424e-07
5.50757e-06
9.16718e-07
5.5115e-06
9.7577e-07
5.54038e-06
1.05103e-06
5.59225e-06
1.15386e-06
5.60122e-06
1.29588e-06
5.40222e-06
1.47517e-06
4.78777e-06
1.69521e-06
3.61644e-06
1.86693e-06
1.87758e-06
2.11064e-06
1.74348e-07
2.42276e-06
-1.62926e-06
2.73792e-06
-3.17979e-06
2.90038e-06
-4.10552e-06
2.8534e-06
-4.22407e-06
2.62797e-06
-3.65364e-06
2.29552e-06