/*--------------------------------*- C++ -*----------------------------------*\
  =========                 |
  \\      /  F ield         | OpenFOAM: The Open Source CFD Toolbox
   \\    /   O peration     | Website:  https://openfoam.org
    \\  /    A nd           | Version:  9
     \\/     M anipulation  |
\*---------------------------------------------------------------------------*/
FoamFile
{
    format      ascii;
    class       volVectorField;
    location    "0.02";
    object      U;
}
// * * * * * * * * * * * * * * * * * * * * * * * * * * * * * * * * * * * * * //

dimensions      [0 1 -1 0 0 0 0];

internalField   nonuniform List<vector> 
5000
(
(-0.130492 0 0.0408154)
(-0.137026 0 0.0505784)
(-0.144028 0 0.0622086)
(-0.151452 0 0.0760543)
(-0.159117 0 0.092397)
(-0.166698 0 0.112099)
(-0.17462 0 0.139651)
(-0.185213 0 0.184293)
(-0.196802 0 0.237443)
(-0.191838 0 0.219406)
(-0.134743 0 -0.0156401)
(0.0137945 0 -0.498343)
(0.0255156 0 -0.957094)
(0.0051189 0 -1.158)
(-0.018227 0 -1.1875)
(-0.0240986 0 -1.19778)
(-0.0141159 0 -1.19902)
(-0.00417083 0 -1.19517)
(0.000648513 0 -1.19251)
(0.0015742 0 -1.19224)
(0.00129296 0 -1.19282)
(0.00107249 0 -1.19318)
(0.00100836 0 -1.19319)
(0.000886198 0 -1.19363)
(0.000798482 0 -1.196)
(0.00151198 0 -1.20104)
(0.00422717 0 -1.2061)
(0.00906589 0 -1.20458)
(0.012357 0 -1.19012)
(0.00810441 0 -1.16039)
(-0.00373928 0 -1.11575)
(-0.00922492 0 -1.02699)
(0.031539 0 -0.707308)
(0.0876906 0 -0.38969)
(0.13954 0 -0.125022)
(0.177376 0 0.0580326)
(0.199621 0 0.160831)
(0.209605 0 0.202315)
(0.211734 0 0.205504)
(0.209683 0 0.189275)
(0.205899 0 0.165747)
(0.201725 0 0.1412)
(0.19776 0 0.118166)
(0.194202 0 0.0972688)
(0.191076 0 0.0783718)
(0.188348 0 0.0611565)
(0.185963 0 0.0453683)
(0.183929 0 0.0309568)
(0.182449 0 0.0182636)
(0.180008 0 0.00800784)
(-0.124356 0 0.0446743)
(-0.129768 0 0.0546809)
(-0.135416 0 0.0665214)
(-0.141198 0 0.080464)
(-0.146805 0 0.0967035)
(-0.151879 0 0.116376)
(-0.157102 0 0.144845)
(-0.164478 0 0.190305)
(-0.169581 0 0.235957)
(-0.153341 0 0.192455)
(-0.0956461 0 -0.0727596)
(0.0423273 0 -0.554617)
(0.0708421 0 -0.935478)
(0.00374447 0 -1.13172)
(-0.0279376 0 -1.17728)
(-0.0275024 0 -1.20153)
(-0.0137344 0 -1.20706)
(-0.00321471 0 -1.20053)
(0.00111651 0 -1.19442)
(0.00155642 0 -1.19238)
(0.000994396 0 -1.1926)
(0.000765835 0 -1.19311)
(0.00104834 0 -1.19322)
(0.00141073 0 -1.19358)
(0.00108927 0 -1.19608)
(-0.000122556 0 -1.20226)
(-0.000943963 0 -1.20952)
(-7.61505e-05 0 -1.2087)
(0.000432496 0 -1.18807)
(-0.00336281 0 -1.14661)
(-0.0148113 0 -1.10496)
(-0.0177739 0 -1.03601)
(-0.000573538 0 -0.763399)
(0.0397645 0 -0.459908)
(0.0824088 0 -0.189453)
(0.115891 0 0.00952097)
(0.137804 0 0.130628)
(0.14989 0 0.187772)
(0.154938 0 0.201926)
(0.155717 0 0.192123)
(0.154332 0 0.171685)
(0.152084 0 0.148215)
(0.149644 0 0.12524)
(0.147302 0 0.103971)
(0.145153 0 0.0845591)
(0.143209 0 0.0668008)
(0.141433 0 0.0504932)
(0.139842 0 0.0356279)
(0.138666 0 0.0224995)
(0.136637 0 0.0111101)
(-0.118098 0 0.0478557)
(-0.122422 0 0.057976)
(-0.126762 0 0.0698367)
(-0.130965 0 0.0836508)
(-0.134676 0 0.0995818)
(-0.137549 0 0.11904)
(-0.140317 0 0.148007)
(-0.144557 0 0.193065)
(-0.143794 0 0.229621)
(-0.117687 0 0.16131)
(-0.0622881 0 -0.128816)
(0.0589937 0 -0.601986)
(0.118748 0 -0.955027)
(0.0157748 0 -1.08597)
(-0.0232578 0 -1.16866)
(-0.0182628 0 -1.20958)
(-0.00651125 0 -1.21578)
(0.000265943 0 -1.20512)
(0.00219661 0 -1.19564)
(0.00161623 0 -1.19213)
(0.000585121 0 -1.19224)
(0.00025503 0 -1.19324)
(0.00107992 0 -1.19378)
(0.00255458 0 -1.19368)
(0.00246988 0 -1.19435)
(-0.00176428 0 -1.19849)
(-0.00998885 0 -1.20557)
(-0.0175953 0 -1.20552)
(-0.0198801 0 -1.18142)
(-0.0167897 0 -1.1378)
(-0.0116977 0 -1.1075)
(-0.00106513 0 -1.0292)
(-0.0111633 0 -0.7954)
(0.0109282 0 -0.510983)
(0.0397626 0 -0.240633)
(0.0647519 0 -0.0323621)
(0.0828534 0 0.101426)
(0.0942314 0 0.170598)
(0.100292 0 0.194049)
(0.102767 0 0.190369)
(0.103152 0 0.173409)
(0.10248 0 0.151627)
(0.101354 0 0.129315)
(0.10008 0 0.10821)
(0.0987908 0 0.0887659)
(0.0975237 0 0.0709454)
(0.096255 0 0.0546462)
(0.095011 0 0.039893)
(0.0939903 0 0.0267469)
(0.0921906 0 0.0142115)
(-0.111796 0 0.0503747)
(-0.115076 0 0.0604828)
(-0.118184 0 0.0722246)
(-0.120915 0 0.085724)
(-0.12291 0 0.101141)
(-0.123885 0 0.120248)
(-0.124486 0 0.149319)
(-0.125766 0 0.192688)
(-0.120532 0 0.219192)
(-0.0890469 0 0.128591)
(-0.0371605 0 -0.181856)
(0.065133 0 -0.647629)
(0.145098 0 -0.98472)
(0.062428 0 -1.02363)
(0.0110598 0 -1.15045)
(0.0108725 0 -1.21402)
(0.0101628 0 -1.21979)
(0.00606142 0 -1.20587)
(0.00335326 0 -1.19513)
(0.00148468 0 -1.19124)
(-0.000154738 0 -1.1916)
(-0.000925498 0 -1.19356)
(0.000306196 0 -1.19532)
(0.00380474 0 -1.19492)
(0.00620381 0 -1.19152)
(0.00128022 0 -1.18904)
(-0.0127847 0 -1.19299)
(-0.024498 0 -1.19832)
(-0.0212583 0 -1.18759)
(-0.00297311 0 -1.16073)
(0.0317509 0 -1.13251)
(0.0416077 0 -1.01957)
(0.0071763 0 -0.800514)
(0.00396053 0 -0.534981)
(0.0125218 0 -0.271359)
(0.0244339 0 -0.0609916)
(0.0352902 0 0.0788646)
(0.0434119 0 0.155136)
(0.0487285 0 0.184895)
(0.0517782 0 0.18595)
(0.0532565 0 0.172085)
(0.0537714 0 0.152121)
(0.0537433 0 0.130798)
(0.0534227 0 0.110223)
(0.0529392 0 0.0911022)
(0.0523386 0 0.0735695)
(0.051604 0 0.0576438)
(0.050793 0 0.0433345)
(0.0501348 0 0.0302937)
(0.0488452 0 0.0166168)
(-0.105526 0 0.0522583)
(-0.107814 0 0.0622409)
(-0.109775 0 0.0737362)
(-0.111168 0 0.0867813)
(-0.111647 0 0.101555)
(-0.111023 0 0.120195)
(-0.109825 0 0.149008)
(-0.108524 0 0.189777)
(-0.100225 0 0.206288)
(-0.0680779 0 0.0983522)
(-0.0230786 0 -0.225563)
(0.0593735 0 -0.695229)
(0.108427 0 -1.00615)
(0.101788 0 -0.975533)
(0.0598051 0 -1.11952)
(0.0518546 0 -1.20481)
(0.0313656 0 -1.2127)
(0.0111664 0 -1.19962)
(0.00319727 0 -1.19219)
(0.00069561 0 -1.1897)
(-0.00143108 0 -1.19044)
(-0.00312772 0 -1.1937)
(-0.00217181 0 -1.19807)
(0.00368696 0 -1.19929)
(0.0112204 0 -1.19187)
(0.0104111 0 -1.17989)
(-0.000925998 0 -1.18035)
(-0.00407314 0 -1.19704)
(0.00711356 0 -1.2106)
(0.0348447 0 -1.20809)
(0.0739793 0 -1.15866)
(0.0787068 0 -0.993716)
(0.0319428 0 -0.769928)
(0.00321045 0 -0.5215)
(-0.0087415 0 -0.273856)
(-0.0107379 0 -0.0709202)
(-0.00814631 0 0.067138)
(-0.00423694 0 0.144671)
(-0.000426639 0 0.176947)
(0.00265316 0 0.180576)
(0.004817 0 0.168811)
(0.00625788 0 0.150354)
(0.00717277 0 0.130044)
(0.00771841 0 0.11015)
(0.00799937 0 0.0915418)
(0.00806151 0 0.0744915)
(0.00790581 0 0.0590959)
(0.00765429 0 0.0452308)
(0.00761487 0 0.0321013)
(0.00707384 0 0.0175199)
(-0.0993472 0 0.0535412)
(-0.100709 0 0.0633101)
(-0.101616 0 0.0744538)
(-0.101812 0 0.0869407)
(-0.100973 0 0.101)
(-0.0990255 0 0.119102)
(-0.0963897 0 0.147402)
(-0.093001 0 0.185186)
(-0.0825925 0 0.19265)
(-0.0514897 0 0.0722802)
(-0.0141434 0 -0.259255)
(0.0463515 0 -0.733313)
(-0.0037769 0 -1.01104)
(0.0593533 0 -0.982472)
(0.0771465 0 -1.10934)
(0.0687901 0 -1.19007)
(0.0388015 0 -1.1949)
(0.00994056 0 -1.18729)
(0.000211022 0 -1.18798)
(-0.00115505 0 -1.18806)
(-0.00318338 0 -1.18864)
(-0.00599923 0 -1.19291)
(-0.00660339 0 -1.20142)
(-0.000297479 0 -1.2082)
(0.0116395 0 -1.19967)
(0.0157396 0 -1.1771)
(0.0119939 0 -1.17527)
(0.0138765 0 -1.20084)
(0.0236866 0 -1.23327)
(0.0400478 0 -1.23648)
(0.0489936 0 -1.19187)
(0.0673234 0 -0.963724)
(0.0273909 0 -0.712774)
(-0.0141501 0 -0.476902)
(-0.0381417 0 -0.250518)
(-0.0491669 0 -0.0631389)
(-0.0523449 0 0.0660457)
(-0.0513283 0 0.13951)
(-0.0484984 0 0.170711)
(-0.0452947 0 0.174778)
(-0.0424187 0 0.164034)
(-0.0400774 0 0.146659)
(-0.0382634 0 0.127283)
(-0.0368968 0 0.108151)
(-0.0358938 0 0.0901918)
(-0.0351989 0 0.073739)
(-0.0347667 0 0.0588489)
(-0.0343895 0 0.0451689)
(-0.0337394 0 0.0317098)
(-0.0336368 0 0.0168047)
(-0.093309 0 0.0542623)
(-0.0938138 0 0.0637467)
(-0.0937654 0 0.0744609)
(-0.0929026 0 0.0863226)
(-0.0909378 0 0.0996389)
(-0.0879012 0 0.117178)
(-0.0841318 0 0.144797)
(-0.0791174 0 0.179484)
(-0.067196 0 0.178992)
(-0.0367084 0 0.0492642)
(-0.00564382 0 -0.282191)
(0.0326775 0 -0.73087)
(-0.100995 0 -0.986937)
(-0.0447312 0 -1.01674)
(0.041711 0 -1.13431)
(0.0372713 0 -1.18236)
(0.0208062 0 -1.1762)
(0.00124173 0 -1.17565)
(-0.00491928 0 -1.1856)
(-0.00366971 0 -1.18761)
(-0.00474027 0 -1.18672)
(-0.00805461 0 -1.19084)
(-0.011202 0 -1.20328)
(-0.00846412 0 -1.21735)
(0.000475762 0 -1.2085)
(0.00171835 0 -1.17677)
(-0.00212811 0 -1.17582)
(0.0022541 0 -1.20934)
(0.00417735 0 -1.24427)
(-0.0129192 0 -1.22475)
(-0.0209913 0 -1.20157)
(-0.0208989 0 -0.933563)
(-0.0323791 0 -0.65805)
(-0.05951 0 -0.426451)
(-0.0820285 0 -0.217177)
(-0.0947483 0 -0.0467042)
(-0.0994759 0 0.0704236)
(-0.0990359 0 0.136815)
(-0.0959812 0 0.16471)
(-0.0920735 0 0.167891)
(-0.0882747 0 0.157516)
(-0.084986 0 0.141006)
(-0.0823002 0 0.122586)
(-0.0801741 0 0.104347)
(-0.0785239 0 0.0871829)
(-0.077263 0 0.0713885)
(-0.0762836 0 0.0568876)
(-0.0753174 0 0.0431882)
(-0.0741044 0 0.0295224)
(-0.073628 0 0.0150877)
(-0.0874521 0 0.0544631)
(-0.0871706 0 0.0636057)
(-0.0862622 0 0.0738339)
(-0.0844738 0 0.0850322)
(-0.0815581 0 0.0976112)
(-0.0776444 0 0.114596)
(-0.073009 0 0.141427)
(-0.0667655 0 0.172952)
(-0.0537704 0 0.165292)
(-0.0230026 0 0.0282835)
(0.00447579 0 -0.296976)
(0.0218401 0 -0.695089)
(-0.136425 0 -0.959945)
(-0.0198246 0 -1.1147)
(0.0255134 0 -1.16609)
(0.00911513 0 -1.17305)
(0.00186729 0 -1.16575)
(-0.00486812 0 -1.16972)
(-0.00819124 0 -1.18559)
(-0.00540213 0 -1.18866)
(-0.00471509 0 -1.18568)
(-0.00611579 0 -1.18837)
(-0.00782482 0 -1.2009)
(-0.00901831 0 -1.21637)
(-0.0178804 0 -1.20475)
(-0.0240648 0 -1.17429)
(-0.029488 0 -1.17875)
(-0.027719 0 -1.21679)
(-0.00593962 0 -1.24313)
(0.0150155 0 -1.22092)
(-7.89014e-05 0 -1.17734)
(-0.0503729 0 -0.917223)
(-0.0798642 0 -0.627798)
(-0.105473 0 -0.388384)
(-0.127674 0 -0.187456)
(-0.140955 0 -0.030574)
(-0.145843 0 0.0747483)
(-0.145047 0 0.133375)
(-0.141306 0 0.157286)
(-0.136544 0 0.159162)
(-0.131862 0 0.149013)
(-0.127755 0 0.13342)
(-0.124364 0 0.116124)
(-0.121656 0 0.0989841)
(-0.119534 0 0.0827787)
(-0.117868 0 0.0676852)
(-0.116501 0 0.0535002)
(-0.115148 0 0.0397888)
(-0.113648 0 0.0262696)
(-0.113079 0 0.0129401)
(-0.0818084 0 0.0541851)
(-0.0808099 0 0.0629433)
(-0.0791321 0 0.0726486)
(-0.0765405 0 0.0831681)
(-0.0728357 0 0.0950429)
(-0.0682412 0 0.111512)
(-0.0629891 0 0.137507)
(-0.0557803 0 0.165754)
(-0.0416524 0 0.151092)
(-0.0079595 0 0.00756204)
(0.0201823 0 -0.306947)
(0.0424813 0 -0.660365)
(0.0133225 0 -0.932102)
(0.0764675 0 -1.14707)
(0.0634521 0 -1.14774)
(-0.0133689 0 -1.16794)
(0.0020404 0 -1.16546)
(0.00330244 0 -1.16657)
(-0.00485754 0 -1.18244)
(-0.00536842 0 -1.1876)
(-0.000780854 0 -1.18493)
(0.00625723 0 -1.18725)
(0.0168989 0 -1.19709)
(0.0182128 0 -1.20612)
(-0.0064695 0 -1.19162)
(-0.0316499 0 -1.16122)
(-0.0677839 0 -1.18694)
(-0.000507914 0 -1.26821)
(0.0366006 0 -1.26401)
(0.040974 0 -1.22396)
(-0.000676453 0 -1.1135)
(-0.0628417 0 -0.860802)
(-0.109034 0 -0.586525)
(-0.142367 0 -0.350445)
(-0.167575 0 -0.15907)
(-0.182141 0 -0.0155149)
(-0.187405 0 0.077926)
(-0.186544 0 0.128544)
(-0.182456 0 0.148287)
(-0.177215 0 0.148794)
(-0.172031 0 0.13893)
(-0.167463 0 0.124409)
(-0.163687 0 0.108448)
(-0.160678 0 0.0926218)
(-0.15832 0 0.0775303)
(-0.156454 0 0.0632018)
(-0.154902 0 0.0493809)
(-0.153407 0 0.0358498)
(-0.151893 0 0.0228445)
(-0.151407 0 0.010889)
(-0.0764016 0 0.0534678)
(-0.0747506 0 0.0618117)
(-0.0723871 0 0.0709751)
(-0.0691028 0 0.0808222)
(-0.0647578 0 0.0920502)
(-0.0596673 0 0.108068)
(-0.054056 0 0.133204)
(-0.0461615 0 0.15797)
(-0.0310412 0 0.135747)
(0.00419937 0 -0.0150676)
(0.0362507 0 -0.321717)
(0.0599515 0 -0.662096)
(0.0753837 0 -0.949422)
(0.0573998 0 -1.13085)
(0.0122156 0 -1.11697)
(-0.00748942 0 -1.13804)
(0.00213189 0 -1.17874)
(0.014617 0 -1.16497)
(0.00469636 0 -1.17713)
(-0.00296261 0 -1.18485)
(0.00965395 0 -1.18789)
(0.0331522 0 -1.19486)
(0.0535726 0 -1.20456)
(0.0552516 0 -1.20058)
(0.0577816 0 -1.16948)
(0.0561173 0 -1.1026)
(0.0865938 0 -1.2379)
(0.0868736 0 -1.29389)
(0.0773743 0 -1.2653)
(0.0491409 0 -1.18677)
(-0.0153849 0 -1.02792)
(-0.0855869 0 -0.777579)
(-0.138023 0 -0.523738)
(-0.176233 0 -0.303038)
(-0.203231 0 -0.126977)
(-0.21837 0 0.00075843)
(-0.223771 0 0.0812639)
(-0.222919 0 0.123388)
(-0.218769 0 0.138733)
(-0.213438 0 0.137779)
(-0.208155 0 0.128199)
(-0.203497 0 0.114822)
(-0.199652 0 0.100304)
(-0.196596 0 0.0858892)
(-0.194203 0 0.0719593)
(-0.192314 0 0.0584195)
(-0.190788 0 0.0450628)
(-0.189444 0 0.0319614)
(-0.188296 0 0.0197451)
(-0.18823 0 0.00917951)
(-0.0712487 0 0.0523481)
(-0.069003 0 0.0602574)
(-0.0660278 0 0.0688734)
(-0.0621487 0 0.0780757)
(-0.0573013 0 0.0887376)
(-0.0518955 0 0.104398)
(-0.0462012 0 0.128673)
(-0.038059 0 0.149762)
(-0.0222595 0 0.119284)
(0.0116964 0 -0.038752)
(0.0445219 0 -0.342585)
(0.0664142 0 -0.680039)
(0.0920537 0 -0.963076)
(0.075394 0 -1.10266)
(0.0251655 0 -1.10248)
(0.0082368 0 -1.13837)
(0.00767375 0 -1.19322)
(0.0264995 0 -1.1715)
(0.0359146 0 -1.1767)
(0.0236735 0 -1.19315)
(0.0351404 0 -1.21112)
(0.0571505 0 -1.22553)
(0.0567231 0 -1.22101)
(0.0505179 0 -1.20967)
(0.0471546 0 -1.15385)
(0.0692744 0 -1.14933)
(0.10092 0 -1.24032)
(0.0977305 0 -1.28076)
(0.072694 0 -1.23341)
(0.0284359 0 -1.11887)
(-0.0410916 0 -0.932473)
(-0.112372 0 -0.689756)
(-0.168225 0 -0.452918)
(-0.208935 0 -0.250537)
(-0.236113 0 -0.0926832)
(-0.250784 0 0.0177268)
(-0.255812 0 0.0848707)
(-0.254773 0 0.118434)
(-0.250618 0 0.129375)
(-0.245392 0 0.126944)
(-0.240253 0 0.117632)
(-0.235746 0 0.105391)
(-0.232045 0 0.0923233)
(-0.229127 0 0.0793352)
(-0.226888 0 0.0666397)
(-0.225244 0 0.0541493)
(-0.22417 0 0.0418763)
(-0.223625 0 0.030226)
(-0.223701 0 0.0200563)
(-0.22495 0 0.0113264)
(-0.0663616 0 0.0508592)
(-0.0635707 0 0.0583219)
(-0.0600455 0 0.0663962)
(-0.0556534 0 0.0750009)
(-0.0504232 0 0.0852058)
(-0.0448688 0 0.10065)
(-0.0393439 0 0.124132)
(-0.0315294 0 0.141597)
(-0.0162778 0 0.103082)
(0.0139732 0 -0.0608575)
(0.0467846 0 -0.36281)
(0.0698482 0 -0.696611)
(0.101041 0 -0.971915)
(0.0831513 0 -1.07519)
(0.0340979 0 -1.08155)
(0.0197375 0 -1.13258)
(0.0196743 0 -1.19187)
(0.0428577 0 -1.18105)
(0.0789289 0 -1.17764)
(0.097175 0 -1.19729)
(0.102712 0 -1.22881)
(0.096364 0 -1.23061)
(0.0839556 0 -1.22145)
(0.0749745 0 -1.20104)
(0.0773416 0 -1.1767)
(0.0977119 0 -1.19684)
(0.113149 0 -1.24659)
(0.0968799 0 -1.25446)
(0.0567592 0 -1.18433)
(-0.000763719 0 -1.04058)
(-0.0734587 0 -0.83696)
(-0.143319 0 -0.602134)
(-0.199283 0 -0.381831)
(-0.240115 0 -0.19837)
(-0.266204 0 -0.0597247)
(-0.279682 0 0.0335098)
(-0.28395 0 0.0878487)
(-0.282592 0 0.113406)
(-0.278458 0 0.120315)
(-0.273425 0 0.116583)
(-0.268526 0 0.107569)
(-0.26422 0 0.0964028)
(-0.260624 0 0.0846571)
(-0.257679 0 0.0729507)
(-0.255271 0 0.0614145)
(-0.253323 0 0.0500711)
(-0.251796 0 0.0391314)
(-0.250552 0 0.0290169)
(-0.249327 0 0.0196116)
(-0.248274 0 0.00864688)
(-0.0617478 0 0.0490296)
(-0.0584514 0 0.0560384)
(-0.0544229 0 0.0635866)
(-0.0495777 0 0.0716574)
(-0.0440501 0 0.0815404)
(-0.0384588 0 0.0969525)
(-0.0332203 0 0.119807)
(-0.0259789 0 0.133977)
(-0.0116879 0 0.0885009)
(0.0154192 0 -0.0808109)
(0.0479888 0 -0.381258)
(0.0843354 0 -0.711976)
(0.087692 0 -0.967773)
(0.0304197 0 -1.04953)
(0.0140545 0 -1.06951)
(0.0283832 0 -1.13232)
(0.0523858 0 -1.19914)
(0.0927965 0 -1.21173)
(0.15051 0 -1.20749)
(0.195415 0 -1.20738)
(0.208269 0 -1.2122)
(0.194174 0 -1.20688)
(0.167754 0 -1.19928)
(0.139064 0 -1.19032)
(0.123753 0 -1.18386)
(0.123829 0 -1.20759)
(0.116276 0 -1.23244)
(0.0856955 0 -1.21413)
(0.0343841 0 -1.12059)
(-0.0320243 0 -0.955085)
(-0.107168 0 -0.74218)
(-0.175848 0 -0.516021)
(-0.230248 0 -0.312597)
(-0.269233 0 -0.148862)
(-0.293228 0 -0.0297088)
(-0.305056 0 0.0470971)
(-0.308388 0 0.0896562)
(-0.306719 0 0.108091)
(-0.302687 0 0.111544)
(-0.297948 0 0.106777)
(-0.293375 0 0.0980825)
(-0.289325 0 0.0878324)
(-0.285865 0 0.0771354)
(-0.282929 0 0.0663931)
(-0.28044 0 0.0557232)
(-0.278374 0 0.0452519)
(-0.276726 0 0.0352203)
(-0.275365 0 0.0257784)
(-0.274184 0 0.0164296)
(-0.273567 0 0.00594737)
(-0.0574129 0 0.0468816)
(-0.05364 0 0.0534309)
(-0.0491378 0 0.0604725)
(-0.0438719 0 0.0680811)
(-0.0380819 0 0.0777867)
(-0.0324764 0 0.0933594)
(-0.027459 0 0.115761)
(-0.0206773 0 0.126949)
(-0.00704691 0 0.0753495)
(0.0184249 0 -0.100179)
(0.0496777 0 -0.401374)
(0.08929 0 -0.731746)
(0.0685159 0 -0.937726)
(0.00859548 0 -1.02795)
(0.0111511 0 -1.07688)
(0.0479891 0 -1.15327)
(0.097657 0 -1.2267)
(0.156683 0 -1.2545)
(0.224034 0 -1.2506)
(0.277069 0 -1.23117)
(0.295546 0 -1.2084)
(0.282719 0 -1.18589)
(0.250688 0 -1.169)
(0.210224 0 -1.16054)
(0.174471 0 -1.16358)
(0.146479 0 -1.18642)
(0.114535 0 -1.19912)
(0.069506 0 -1.16041)
(0.00866569 0 -1.04542)
(-0.0641558 0 -0.863589)
(-0.140555 0 -0.64728)
(-0.207788 0 -0.432089)
(-0.259781 0 -0.246585)
(-0.295855 0 -0.103113)
(-0.317195 0 -0.00312053)
(-0.32716 0 0.0583318)
(-0.329543 0 0.090349)
(-0.327655 0 0.102653)
(-0.323846 0 0.103257)
(-0.319519 0 0.0977017)
(-0.315377 0 0.0893023)
(-0.311681 0 0.0797734)
(-0.308467 0 0.0698629)
(-0.305689 0 0.0598543)
(-0.303316 0 0.0499082)
(-0.301364 0 0.0402223)
(-0.299812 0 0.0309943)
(-0.298512 0 0.0222136)
(-0.29747 0 0.0135384)
(-0.297179 0 0.00461548)
(-0.0533625 0 0.0444322)
(-0.0491322 0 0.0505152)
(-0.0441687 0 0.0570672)
(-0.0384857 0 0.0642827)
(-0.032416 0 0.0739393)
(-0.0267323 0 0.0898226)
(-0.02174 0 0.111866)
(-0.0150519 0 0.120152)
(-0.00170625 0 0.0627738)
(0.0233291 0 -0.119068)
(0.0483949 0 -0.41997)
(0.0684103 0 -0.741252)
(0.0429181 0 -0.906087)
(0.00896072 0 -1.016)
(0.0298483 0 -1.09781)
(0.085993 0 -1.19057)
(0.153858 0 -1.26831)
(0.224098 0 -1.30105)
(0.291093 0 -1.29251)
(0.339385 0 -1.25595)
(0.355757 0 -1.21075)
(0.343513 0 -1.16879)
(0.310693 0 -1.13614)
(0.264567 0 -1.11917)
(0.214444 0 -1.12163)
(0.164663 0 -1.14143)
(0.112149 0 -1.14699)
(0.0527674 0 -1.09341)
(-0.017688 0 -0.960821)
(-0.0960841 0 -0.767657)
(-0.17307 0 -0.552894)
(-0.238268 0 -0.351291)
(-0.287118 0 -0.185033)
(-0.319737 0 -0.0619611)
(-0.338238 0 0.0197713)
(-0.346384 0 0.0672992)
(-0.34796 0 0.0901761)
(-0.346009 0 0.0973836)
(-0.342559 0 0.0957253)
(-0.338753 0 0.089592)
(-0.335128 0 0.0814418)
(-0.331869 0 0.0724639)
(-0.328999 0 0.0631653)
(-0.326503 0 0.0537891)
(-0.324385 0 0.0445428)
(-0.32267 0 0.0356421)
(-0.321325 0 0.0272233)
(-0.3202 0 0.0192404)
(-0.319361 0 0.0115255)
(-0.319316 0 0.0039359)
(-0.0496042 0 0.0416934)
(-0.0449272 0 0.0472991)
(-0.0394999 0 0.0533698)
(-0.0333793 0 0.0602474)
(-0.026968 0 0.0699485)
(-0.0210705 0 0.0862189)
(-0.0158366 0 0.107897)
(-0.00871496 0 0.113206)
(0.00482573 0 0.0502959)
(0.0293741 0 -0.135646)
(0.0451116 0 -0.429651)
(0.0501054 0 -0.738057)
(0.0290866 0 -0.893534)
(0.024478 0 -1.02101)
(0.0698604 0 -1.1329)
(0.140656 0 -1.23787)
(0.217583 0 -1.31717)
(0.291978 0 -1.3484)
(0.354189 0 -1.33014)
(0.392095 0 -1.27511)
(0.399365 0 -1.2091)
(0.381626 0 -1.14851)
(0.345101 0 -1.09954)
(0.29435 0 -1.07067)
(0.235094 0 -1.06619)
(0.172083 0 -1.07989)
(0.106033 0 -1.07866)
(0.034548 0 -1.01361)
(-0.044906 0 -0.86761)
(-0.127834 0 -0.668459)
(-0.204621 0 -0.460026)
(-0.267021 0 -0.274699)
(-0.312094 0 -0.12878)
(-0.340976 0 -0.0258153)
(-0.356684 0 0.0389799)
(-0.363218 0 0.0742451)
(-0.364216 0 0.0894475)
(-0.362386 0 0.0925658)
(-0.359416 0 0.0891749)
(-0.356201 0 0.0826248)
(-0.353137 0 0.0746668)
(-0.350355 0 0.0661075)
(-0.347889 0 0.0573157)
(-0.34575 0 0.04853)
(-0.343962 0 0.0399753)
(-0.342552 0 0.0318404)
(-0.341475 0 0.0242075)
(-0.340585 0 0.0170295)
(-0.339947 0 0.0102)
(-0.340045 0 0.00353105)
(-0.0461491 0 0.038673)
(-0.0410308 0 0.0437817)
(-0.0351269 0 0.0493665)
(-0.0285298 0 0.0559376)
(-0.0216826 0 0.0657322)
(-0.0153741 0 0.0823815)
(-0.00956503 0 0.103593)
(-0.00140057 0 0.105799)
(0.0131843 0 0.0377481)
(0.0381617 0 -0.149142)
(0.0524773 0 -0.433555)
(0.061601 0 -0.734863)
(0.0496026 0 -0.891043)
(0.0796362 0 -1.03981)
(0.138639 0 -1.1731)
(0.205175 0 -1.28626)
(0.282771 0 -1.36736)
(0.356541 0 -1.39364)
(0.410775 0 -1.3615)
(0.435343 0 -1.28598)
(0.429737 0 -1.19958)
(0.402124 0 -1.1218)
(0.358304 0 -1.05773)
(0.302024 0 -1.0163)
(0.236856 0 -1.0023)
(0.166675 0 -1.00845)
(0.0926547 0 -0.99907)
(0.012436 0 -0.92312)
(-0.0740855 0 -0.767189)
(-0.159862 0 -0.56736)
(-0.235306 0 -0.369797)
(-0.294068 0 -0.203187)
(-0.33489 0 -0.078292)
(-0.359973 0 0.00534216)
(-0.373076 0 0.0548263)
(-0.378266 0 0.0795816)
(-0.378917 0 0.0885175)
(-0.377351 0 0.0884381)
(-0.37492 0 0.0837335)
(-0.372302 0 0.0768577)
(-0.369783 0 0.0690177)
(-0.367471 0 0.0607688)
(-0.365413 0 0.0524108)
(-0.363644 0 0.04418)
(-0.362194 0 0.0362831)
(-0.361082 0 0.0288555)
(-0.360256 0 0.0219281)
(-0.359571 0 0.0154415)
(-0.359078 0 0.00928706)
(-0.359236 0 0.00323853)
(-0.0430143 0 0.0353774)
(-0.0374584 0 0.0399572)
(-0.0310596 0 0.0450355)
(-0.023935 0 0.0513001)
(-0.0165383 0 0.0611851)
(-0.00958155 0 0.0781137)
(-0.00282331 0 0.0986304)
(0.0069548 0 0.0975402)
(0.0233603 0 0.024475)
(0.050298 0 -0.162665)
(0.0812561 0 -0.444427)
(0.102554 0 -0.731979)
(0.112131 0 -0.902086)
(0.165101 0 -1.06558)
(0.207144 0 -1.2032)
(0.263429 0 -1.33072)
(0.343282 0 -1.41715)
(0.413864 0 -1.435)
(0.456311 0 -1.38459)
(0.464843 0 -1.28684)
(0.444707 0 -1.18051)
(0.40593 0 -1.08691)
(0.353671 0 -1.00948)
(0.291659 0 -0.956678)
(0.222563 0 -0.93349)
(0.149026 0 -0.931697)
(0.0709465 0 -0.912588)
(-0.0149753 0 -0.824962)
(-0.106273 0 -0.661894)
(-0.192941 0 -0.466281)
(-0.265596 0 -0.283626)
(-0.319805 0 -0.137602)
(-0.355985 0 -0.0337995)
(-0.377331 0 0.0317455)
(-0.388075 0 0.0677529)
(-0.392177 0 0.0837351)
(-0.392647 0 0.0876712)
(-0.3914 0 0.0851176)
(-0.389484 0 0.0793868)
(-0.387397 0 0.0722082)
(-0.385355 0 0.0644029)
(-0.383462 0 0.0563766)
(-0.381779 0 0.048393)
(-0.38035 0 0.0406684)
(-0.379201 0 0.033362)
(-0.378342 0 0.0265454)
(-0.377715 0 0.0202021)
(-0.377178 0 0.0142564)
(-0.376779 0 0.00859603)
(-0.376966 0 0.00300213)
(-0.040224 0 0.0318131)
(-0.034236 0 0.0358202)
(-0.0273248 0 0.0403534)
(-0.0196188 0 0.0462753)
(-0.0115556 0 0.056188)
(-0.00371524 0 0.0732038)
(0.00433626 0 0.0926821)
(0.0160206 0 0.0880324)
(0.034473 0 0.0095195)
(0.0620844 0 -0.180853)
(0.102955 0 -0.469218)
(0.125411 0 -0.737282)
(0.13854 0 -0.93246)
(0.172536 0 -1.09731)
(0.219544 0 -1.23994)
(0.305884 0 -1.38483)
(0.39715 0 -1.46998)
(0.460367 0 -1.47071)
(0.486529 0 -1.39709)
(0.476924 0 -1.27634)
(0.441996 0 -1.1513)
(0.392698 0 -1.0437)
(0.332893 0 -0.954972)
(0.266222 0 -0.892936)
(0.195068 0 -0.862286)
(0.12087 0 -0.852708)
(0.0411061 0 -0.822187)
(-0.0484566 0 -0.721941)
(-0.142195 0 -0.554455)
(-0.227578 0 -0.367501)
(-0.295876 0 -0.203143)
(-0.34469 0 -0.0787924)
(-0.375967 0 0.00456027)
(-0.393709 0 0.0536814)
(-0.402334 0 0.0781592)
(-0.405539 0 0.0870058)
(-0.405897 0 0.0870229)
(-0.404931 0 0.0825462)
(-0.403427 0 0.0759716)
(-0.401757 0 0.0684846)
(-0.400098 0 0.060655)
(-0.398556 0 0.0528019)
(-0.3972 0 0.0451548)
(-0.396069 0 0.0378851)
(-0.39518 0 0.0310876)
(-0.39453 0 0.024773)
(-0.39406 0 0.0188896)
(-0.393632 0 0.0133536)
(-0.393303 0 0.00806131)
(-0.393518 0 0.00281606)
(-0.0378089 0 0.0279895)
(-0.0314002 0 0.0313691)
(-0.0239674 0 0.0352991)
(-0.0156332 0 0.0408063)
(-0.00679852 0 0.0506248)
(0.00212927 0 0.0674644)
(0.011746 0 0.0855181)
(0.0253281 0 0.0771527)
(0.045579 0 -0.0068601)
(0.070896 0 -0.202234)
(0.100675 0 -0.492802)
(0.113757 0 -0.752067)
(0.120801 0 -0.953364)
(0.150956 0 -1.12998)
(0.236273 0 -1.30178)
(0.354712 0 -1.45322)
(0.445159 0 -1.52167)
(0.49245 0 -1.49628)
(0.498398 0 -1.3967)
(0.469862 0 -1.25398)
(0.421065 0 -1.11257)
(0.362922 0 -0.993321)
(0.297507 0 -0.895685)
(0.228179 0 -0.826917)
(0.157074 0 -0.790782)
(0.0841581 0 -0.773517)
(0.00380551 0 -0.729561)
(-0.0880771 0 -0.616303)
(-0.181996 0 -0.447643)
(-0.263864 0 -0.273465)
(-0.326351 0 -0.129838)
(-0.369107 0 -0.0274251)
(-0.395357 0 0.0367587)
(-0.409669 0 0.071442)
(-0.416383 0 0.0863446)
(-0.4188 0 0.0895288)
(-0.419026 0 0.0865108)
(-0.418231 0 0.0805227)
(-0.417001 0 0.0732358)
(-0.415624 0 0.0654573)
(-0.414258 0 0.0576002)
(-0.413007 0 0.0499206)
(-0.411934 0 0.0425971)
(-0.411061 0 0.0357361)
(-0.410392 0 0.0293654)
(-0.409917 0 0.0234486)
(-0.409574 0 0.0179145)
(-0.409232 0 0.0126825)
(-0.408957 0 0.00766245)
(-0.409201 0 0.00267782)
(-0.0358058 0 0.0239206)
(-0.0289984 0 0.0266079)
(-0.0210492 0 0.0298577)
(-0.0120556 0 0.0348459)
(-0.00236327 0 0.0443908)
(0.0078241 0 0.0607648)
(0.0192862 0 0.0770338)
(0.0348866 0 0.0650264)
(0.0568792 0 -0.0231889)
(0.0783679 0 -0.219056)
(0.09005 0 -0.500924)
(0.0942921 0 -0.768442)
(0.120283 0 -0.966574)
(0.194096 0 -1.17247)
(0.303429 0 -1.37849)
(0.412913 0 -1.51987)
(0.483324 0 -1.56191)
(0.507529 0 -1.50722)
(0.491035 0 -1.38231)
(0.444098 0 -1.22031)
(0.383236 0 -1.06567)
(0.318413 0 -0.937613)
(0.24971 0 -0.833673)
(0.180004 0 -0.760727)
(0.110991 0 -0.720827)
(0.0404407 0 -0.695198)
(-0.0403879 0 -0.635611)
(-0.133524 0 -0.510021)
(-0.225372 0 -0.344071)
(-0.301566 0 -0.186529)
(-0.357039 0 -0.0649792)
(-0.393286 0 0.0160735)
(-0.414542 0 0.0629074)
(-0.425624 0 0.0853184)
(-0.430594 0 0.0925084)
(-0.432256 0 0.0913036)
(-0.43227 0 0.0859606)
(-0.431513 0 0.078788)
(-0.430423 0 0.0709241)
(-0.429236 0 0.0629255)
(-0.428093 0 0.0550968)
(-0.427083 0 0.0476269)
(-0.426246 0 0.0406249)
(-0.425588 0 0.0341256)
(-0.425095 0 0.0281015)
(-0.424755 0 0.0224876)
(-0.424509 0 0.0172096)
(-0.424231 0 0.0121969)
(-0.423995 0 0.00737328)
(-0.424265 0 0.00257745)
(-0.0342564 0 0.0196279)
(-0.0270873 0 0.0215496)
(-0.0186468 0 0.0240261)
(-0.00898822 0 0.0283637)
(0.00163793 0 0.0374094)
(0.0132467 0 0.0529871)
(0.026902 0 0.0671352)
(0.0450761 0 0.0516946)
(0.069331 0 -0.0383058)
(0.0881741 0 -0.227197)
(0.0936594 0 -0.500257)
(0.114301 0 -0.787562)
(0.167718 0 -1.0028)
(0.267211 0 -1.23617)
(0.377094 0 -1.44973)
(0.462332 0 -1.57237)
(0.506116 0 -1.58532)
(0.50435 0 -1.50172)
(0.465217 0 -1.35402)
(0.401663 0 -1.17657)
(0.331157 0 -1.01242)
(0.26199 0 -0.878587)
(0.1923 0 -0.77107)
(0.124435 0 -0.696377)
(0.0591469 0 -0.653753)
(-0.00911854 0 -0.617773)
(-0.0910238 0 -0.540691)
(-0.184198 0 -0.405111)
(-0.271598 0 -0.246475)
(-0.340248 0 -0.108561)
(-0.387796 0 -0.00950821)
(-0.417307 0 0.0515372)
(-0.433723 0 0.0832407)
(-0.441811 0 0.0955889)
(-0.445166 0 0.0967669)
(-0.446065 0 0.092249)
(-0.44577 0 0.085165)
(-0.444928 0 0.0771053)
(-0.443877 0 0.0688355)
(-0.442805 0 0.0607402)
(-0.441827 0 0.0530297)
(-0.441004 0 0.0458129)
(-0.440348 0 0.0391224)
(-0.439845 0 0.0329315)
(-0.439475 0 0.0271777)
(-0.439225 0 0.0217874)
(-0.43904 0 0.0166936)
(-0.4388 0 0.0118388)
(-0.438586 0 0.00715819)
(-0.438877 0 0.00250173)
(-0.0332068 0 0.0151433)
(-0.0257311 0 0.0162204)
(-0.0168475 0 0.0178173)
(-0.0065479 0 0.0213466)
(0.00505458 0 0.0296213)
(0.0182323 0 0.0439701)
(0.0344841 0 0.0555403)
(0.0562374 0 0.0365617)
(0.0853701 0 -0.0539985)
(0.110527 0 -0.235511)
(0.146846 0 -0.515477)
(0.187703 0 -0.806835)
(0.242288 0 -1.05705)
(0.336707 0 -1.3047)
(0.431329 0 -1.50905)
(0.494194 0 -1.60857)
(0.511005 0 -1.59102)
(0.482917 0 -1.47979)
(0.422851 0 -1.31298)
(0.345581 0 -1.1246)
(0.268207 0 -0.954814)
(0.196981 0 -0.818242)
(0.128451 0 -0.709889)
(0.0643648 0 -0.635561)
(0.00347642 0 -0.589829)
(-0.0639157 0 -0.540326)
(-0.147647 0 -0.445143)
(-0.239169 0 -0.303704)
(-0.319615 0 -0.157481)
(-0.379251 0 -0.0410769)
(-0.41829 0 0.0360168)
(-0.441102 0 0.0790788)
(-0.452963 0 0.0981026)
(-0.458305 0 0.102521)
(-0.460151 0 0.0991877)
(-0.460266 0 0.0922633)
(-0.45958 0 0.0839459)
(-0.458568 0 0.0752985)
(-0.457482 0 0.0668275)
(-0.456466 0 0.0587826)
(-0.455594 0 0.0512787)
(-0.454892 0 0.0443415)
(-0.454347 0 0.0379374)
(-0.45393 0 0.0320003)
(-0.453621 0 0.0264547)
(-0.453413 0 0.021232)
(-0.453254 0 0.0162779)
(-0.453026 0 0.0115461)
(-0.45282 0 0.00698001)
(-0.453124 0 0.0024377)
(-0.0327038 0 0.0105098)
(-0.0249986 0 0.0106631)
(-0.0157499 0 0.0112655)
(-0.00487673 0 0.0138015)
(0.00767684 0 0.0209766)
(0.0224728 0 0.0335404)
(0.0415369 0 0.041785)
(0.0675123 0 0.0182638)
(0.103074 0 -0.0747675)
(0.141019 0 -0.257688)
(0.197351 0 -0.553461)
(0.237723 0 -0.831297)
(0.293728 0 -1.11103)
(0.385285 0 -1.36754)
(0.468481 0 -1.55671)
(0.508751 0 -1.62812)
(0.497506 0 -1.57866)
(0.444538 0 -1.44244)
(0.366856 0 -1.26123)
(0.279424 0 -1.06666)
(0.197962 0 -0.894871)
(0.126804 0 -0.758474)
(0.0613524 0 -0.651896)
(0.0023863 0 -0.579119)
(-0.0550507 0 -0.527918)
(-0.12393 0 -0.461493)
(-0.209509 0 -0.349789)
(-0.29684 0 -0.208643)
(-0.368162 0 -0.079173)
(-0.417759 0 0.014856)
(-0.4481 0 0.0714546)
(-0.4645 0 0.0990517)
(-0.472188 0 0.107924)
(-0.475047 0 0.106381)
(-0.475482 0 0.0998303)
(-0.474806 0 0.0912716)
(-0.47368 0 0.0821828)
(-0.472442 0 0.0732503)
(-0.471269 0 0.0647891)
(-0.470249 0 0.0569303)
(-0.469413 0 0.0496967)
(-0.468754 0 0.0430436)
(-0.468241 0 0.0368947)
(-0.467841 0 0.0311688)
(-0.467537 0 0.0257936)
(-0.467328 0 0.020712)
(-0.467164 0 0.0158814)
(-0.466928 0 0.0112635)
(-0.466718 0 0.00680631)
(-0.467028 0 0.00237441)
(-0.0327927 0 0.00578309)
(-0.0249592 0 0.00493948)
(-0.0154608 0 0.00443198)
(-0.00414157 0 0.00577791)
(0.00922727 0 0.0114956)
(0.0254755 0 0.0216481)
(0.0470612 0 0.0256649)
(0.0769387 0 -0.00388976)
(0.11757 0 -0.102458)
(0.166637 0 -0.293711)
(0.222046 0 -0.590992)
(0.262865 0 -0.866576)
(0.335759 0 -1.16182)
(0.425613 0 -1.42225)
(0.491218 0 -1.59143)
(0.504592 0 -1.6295)
(0.465906 0 -1.54866)
(0.391743 0 -1.39187)
(0.300806 0 -1.20147)
(0.206862 0 -1.00508)
(0.123914 0 -0.834566)
(0.0547192 0 -0.70101)
(-0.00603855 0 -0.598257)
(-0.0599658 0 -0.526472)
(-0.116792 0 -0.465714)
(-0.189443 0 -0.380263)
(-0.275405 0 -0.256587)
(-0.355513 0 -0.122752)
(-0.415956 0 -0.0132308)
(-0.45491 0 0.0587203)
(-0.476753 0 0.0970962)
(-0.487253 0 0.11204)
(-0.491228 0 0.113208)
(-0.491876 0 0.107445)
(-0.491012 0 0.0987755)
(-0.489561 0 0.0892475)
(-0.487976 0 0.0798095)
(-0.486476 0 0.0708768)
(-0.485166 0 0.0626124)
(-0.484076 0 0.0550429)
(-0.483199 0 0.0481157)