/*--------------------------------*- C++ -*----------------------------------*\
  =========                 |
  \\      /  F ield         | OpenFOAM: The Open Source CFD Toolbox
   \\    /   O peration     | Website:  https://openfoam.org
    \\  /    A nd           | Version:  9
     \\/     M anipulation  |
\*---------------------------------------------------------------------------*/
FoamFile
{
    format      ascii;
    class       volScalarField;
    location    "0.02";
    object      alpha.water;
}
// * * * * * * * * * * * * * * * * * * * * * * * * * * * * * * * * * * * * * //

dimensions      [0 0 0 0 0 0 0];

internalField   nonuniform List<scalar> 
5000
(
-5.46974e-59
-1.39876e-58
-4.98744e-58
-1.86029e-57
-7.13054e-57
-2.80576e-56
-1.13298e-55
-4.69321e-55
-1.99347e-54
-8.67794e-54
-3.86931e-53
-1.76589e-52
-8.24264e-52
-3.9315e-51
-1.91424e-50
-9.50346e-50
-4.80443e-49
-2.4696e-48
-1.28852e-47
-6.81071e-47
-3.63897e-46
-1.96071e-45
-1.06282e-44
-5.78537e-44
-3.16369e-43
-1.74929e-42
-9.98945e-42
-6.18862e-41
-4.49471e-40
-4.0459e-39
-4.40265e-38
-6.10314e-37
-8.47355e-36
-1.13624e-34
-1.44376e-33
-1.71181e-32
-1.85852e-31
-1.79713e-30
-1.47881e-29
-9.48968e-29
-3.7701e-28
-3.40752e-29
2.16504e-27
8.66345e-26
1.94187e-24
3.65078e-23
6.25936e-22
1.07403e-20
1.76864e-19
1.47059e-18
-1.5961e-58
-4.05213e-58
-1.43398e-57
-5.30928e-57
-2.0199e-56
-7.88796e-56
-3.16072e-55
-1.29906e-54
-5.47393e-54
-2.36355e-53
-1.04512e-52
-4.72931e-52
-2.18835e-51
-1.0345e-50
-4.99108e-50
-2.4547e-49
-1.22904e-48
-6.25516e-48
-3.23043e-47
-1.68954e-46
-8.92848e-46
-4.75523e-45
-2.54532e-44
-1.36558e-43
-7.33099e-43
-3.94541e-42
-2.15387e-41
-1.23499e-40
-7.99414e-40
-6.37014e-39
-6.37833e-38
-8.49728e-37
-1.1628e-35
-1.55225e-34
-1.97263e-33
-2.34921e-32
-2.57794e-31
-2.54608e-30
-2.18055e-29
-1.51458e-28
-7.32873e-28
-1.2689e-27
8.62675e-28
6.62633e-26
1.59308e-24
2.99478e-23
4.95707e-22
7.80664e-21
1.02686e-19
6.21772e-19
-4.35109e-58
-1.0957e-57
-3.84636e-57
-1.41302e-56
-5.33382e-56
-2.06655e-55
-8.21508e-55
-3.34936e-54
-1.39989e-53
-5.99476e-53
-2.62862e-52
-1.17937e-51
-5.4099e-51
-2.5348e-50
-1.21189e-49
-5.90516e-49
-2.92865e-48
-1.47606e-47
-7.54722e-47
-3.907e-46
-2.04303e-45
-1.07631e-44
-5.69568e-44
-3.01801e-43
-1.59669e-42
-8.42571e-42
-4.45722e-41
-2.41473e-40
-1.41682e-39
-9.90374e-39
-8.85488e-38
-1.10533e-36
-1.47002e-35
-1.93567e-34
-2.43831e-33
-2.88457e-32
-3.152e-31
-3.11202e-30
-2.6829e-29
-1.90131e-28
-9.71843e-28
-2.25293e-27
4.3034e-28
3.94221e-26
1.06516e-24
2.01045e-23
3.16677e-22
4.55584e-21
5.85983e-20
6.98011e-19
-1.12053e-57
-2.79429e-57
-9.72012e-57
-3.53987e-56
-1.32473e-55
-5.08852e-55
-2.00549e-54
-8.10643e-54
-3.35901e-53
-1.42601e-52
-6.19845e-52
-2.75662e-51
-1.25326e-50
-5.81927e-50
-2.75675e-49
-1.33078e-48
-6.53742e-48
-3.26307e-47
-1.65198e-46
-8.46589e-46
-4.38155e-45
-2.28412e-44
-1.19573e-43
-6.26468e-43
-3.27342e-42
-1.70121e-41
-8.79927e-41
-4.57991e-40
-2.49002e-39
-1.53725e-38
-1.19762e-37
-1.35657e-36
-1.7203e-35
-2.21157e-34
-2.73983e-33
-3.19238e-32
-3.43569e-31
-3.34026e-30
-2.83505e-29
-1.97713e-28
-9.94239e-28
-2.32662e-27
1.72499e-28
1.96333e-26
6.53833e-25
1.24253e-23
1.94572e-22
2.95032e-21
4.97596e-20
7.58509e-19
-2.75985e-57
-6.79778e-57
-2.33923e-56
-8.43268e-56
-3.12429e-55
-1.18828e-54
-4.63763e-54
-1.85652e-53
-7.61928e-53
-3.20396e-52
-1.37953e-51
-6.07741e-51
-2.73701e-50
-1.25888e-49
-5.90709e-49
-2.82427e-48
-1.374e-47
-6.791e-47
-3.40395e-46
-1.72687e-45
-8.84638e-45
-4.56408e-44
-2.3643e-43
-1.2255e-42
-6.33185e-42
-3.24908e-41
-1.65237e-40
-8.36154e-40
-4.30154e-39
-2.39156e-38
-1.60696e-37
-1.59414e-36
-1.8771e-35
-2.32553e-34
-2.8123e-33
-3.20535e-32
-3.369e-31
-3.18793e-30
-2.61824e-29
-1.74782e-28
-8.22338e-28
-1.69071e-27
2.83614e-29
1.18409e-26
4.71255e-25
8.9841e-24
1.44795e-22
2.43955e-21
4.52859e-20
6.52026e-19
-6.6007e-57
-1.60028e-56
-5.43469e-56
-1.93514e-55
-7.08343e-55
-2.6622e-54
-1.02693e-53
-4.06406e-53
-1.64924e-52
-6.85894e-52
-2.92136e-51
-1.27331e-50
-5.67434e-50
-2.58286e-49
-1.19951e-48
-5.67642e-48
-2.73339e-47
-1.33719e-46
-6.63396e-46
-3.33089e-45
-1.68871e-44
-8.62212e-44
-4.42e-43
-2.26711e-42
-1.15894e-41
-5.88005e-41
-2.95025e-40
-1.46313e-39
-7.24432e-39
-3.7205e-38
-2.17633e-37
-1.83462e-36
-1.93402e-35
-2.26394e-34
-2.64729e-33
-2.93091e-32
-2.98371e-31
-2.71547e-30
-2.11893e-29
-1.31508e-28
-5.52926e-28
-9.22994e-28
0
1.22543e-26
4.24821e-25
7.84548e-24
1.25468e-22
1.98127e-21
3.1762e-20
4.00382e-19
-1.55907e-56
-3.70642e-56
-1.23889e-55
-4.34598e-55
-1.56753e-54
-5.80615e-54
-2.2078e-53
-8.61525e-53
-3.44836e-52
-1.41497e-51
-5.94824e-51
-2.55973e-50
-1.12663e-49
-5.06648e-49
-2.32526e-48
-1.08772e-47
-5.17853e-47
-2.50517e-46
-1.22918e-45
-6.10446e-45
-3.06143e-44
-1.54632e-43
-7.8427e-43
-3.98035e-42
-2.01351e-41
-1.0108e-40
-5.01342e-40
-2.44926e-39
-1.18172e-38
-5.74556e-38
-3.00341e-37
-2.128e-36
-1.92279e-35
-2.0598e-34
-2.29307e-33
-2.44247e-32
-2.3836e-31
-2.0562e-30
-1.49236e-29
-8.38042e-29
-3.08626e-28
-3.13516e-28
0
1.5444e-26
4.22661e-25
6.81124e-24
8.96933e-23
1.25319e-21
2.60055e-20
4.79419e-19
-3.69232e-56
-8.58374e-56
-2.81769e-55
-9.71539e-55
-3.44406e-54
-1.25373e-53
-4.68547e-53
-1.79722e-52
-7.07275e-52
-2.85433e-51
-1.18057e-50
-5.00075e-50
-2.16754e-49
-9.60406e-49
-4.3451e-48
-2.00464e-47
-9.41715e-47
-4.49706e-46
-2.17897e-45
-1.069e-44
-5.29762e-44
-2.64488e-43
-1.3263e-42
-6.65726e-42
-3.33168e-41
-1.6551e-40
-8.12287e-40
-3.92123e-39
-1.85898e-38
-8.72664e-38
-4.21431e-37
-2.55404e-36
-1.90827e-35
-1.78263e-34
-1.8367e-33
-1.85251e-32
-1.70902e-31
-1.37425e-30
-9.11171e-30
-4.59089e-29
-1.42946e-28
-5.09249e-29
1.74686e-28
2.14075e-26
4.29907e-25
5.98448e-24
7.55454e-23
1.37873e-21
3.5889e-20
9.23743e-19
-8.84587e-56
-2.01033e-55
-6.47686e-55
-2.19289e-54
-7.62943e-54
-2.7244e-53
-9.98385e-53
-3.75416e-52
-1.44814e-51
-5.72862e-51
-2.32291e-50
-9.64949e-50
-4.10345e-49
-1.78476e-48
-7.93109e-48
-3.59639e-47
-1.6617e-46
-7.81035e-46
-3.72736e-45
-1.80228e-44
-8.8083e-44
-4.3395e-43
-2.14855e-42
-1.0654e-41
-5.27055e-41
-2.58977e-40
-1.25785e-39
-6.00932e-39
-2.81349e-38
-1.29275e-37
-5.94489e-37
-3.20803e-36
-1.97317e-35
-1.51847e-34
-1.37723e-33
-1.27804e-32
-1.09401e-31
-8.08883e-31
-4.87161e-30
-2.16216e-29
-4.75917e-29
-9.25515e-30
9.82258e-28
3.07901e-26
5.05851e-25
6.87628e-24
9.38018e-23
2.08308e-21
6.75524e-20
2.65592e-18
-2.14305e-55
-4.77328e-55
-1.51172e-54
-5.03129e-54
-1.71908e-53
-6.02255e-53
-2.16325e-52
-7.96617e-52
-3.00719e-51
-1.16348e-50
-4.61237e-50
-1.87277e-49
-7.78418e-49
-3.30986e-48
-1.43846e-47
-6.38285e-47
-2.88799e-46
-1.33036e-45
-6.22816e-45
-2.95705e-44
-1.42048e-43
-6.88519e-43
-3.3572e-42
-1.64106e-41
-8.01076e-41
-3.88816e-40
-1.8675e-39
-8.8317e-39
-4.09393e-38
-1.8567e-37
-8.31284e-37
-4.17949e-36
-2.19817e-35
-1.34783e-34
-9.99201e-34
-8.07943e-33
-6.24684e-32
-4.22829e-31
-2.28609e-30
-8.29644e-30
-7.47887e-30
3.9099e-29
2.23986e-27
4.39195e-26
6.80654e-25
9.43452e-24
1.45067e-22
4.04165e-21
1.70044e-19
7.63295e-18
-5.20679e-55
-1.1417e-54
-3.56575e-54
-1.16991e-53
-3.93604e-53
-1.35606e-52
-4.78375e-52
-1.72781e-51
-6.38886e-51
-2.4182e-50
-9.36752e-50
-3.71289e-49
-1.50524e-48
-6.23889e-48
-2.64212e-47
-1.14235e-46
-5.03747e-46
-2.26279e-45
-1.03377e-44
-4.79451e-44
-2.25242e-43
-1.06912e-42
-5.11192e-42
-2.45392e-41
-1.17816e-40
-5.63335e-40
-2.67014e-39
-1.24852e-38
-5.73264e-38
-2.57695e-37
-1.13865e-36
-5.52867e-36
-2.64244e-35
-1.3279e-34
-7.54851e-34
-4.8375e-33
-3.20203e-32
-1.96588e-31
-9.06546e-31
-2.07451e-30
0
1.45103e-28
3.44068e-27
5.92478e-26
9.35777e-25
1.43241e-23
2.56145e-22
8.75652e-21
3.77175e-19
1.48588e-17
-1.25374e-54
-2.71947e-54
-8.40659e-54
-2.72874e-53
-9.07292e-53
-3.08541e-52
-1.07291e-51
-3.81436e-51
-1.38615e-50
-5.14797e-50
-1.95344e-49
-7.57161e-49
-2.99688e-48
-1.21085e-47
-4.99174e-47
-2.09855e-46
-8.9905e-46
-3.92153e-45
-1.73955e-44
-7.83619e-44
-3.57833e-43
-1.65278e-42
-7.70141e-42
-3.60919e-41
-1.69506e-40
-7.94619e-40
-3.70189e-39
-1.7061e-38
-7.74565e-38
-3.45362e-37
-1.51594e-36
-7.26551e-36
-3.32763e-35
-1.48097e-34
-6.56715e-34
-2.98868e-33
-1.48392e-32
-7.98932e-32
-2.65343e-31
-3.24141e-31
7.70518e-30
2.40886e-28
4.43608e-27
7.47179e-26
1.21378e-24
2.07907e-23
4.7773e-22
1.71623e-20
6.16922e-19
1.94454e-17
-2.95865e-54
-6.3743e-54
-1.95659e-53
-6.30374e-53
-2.07868e-52
-7.00395e-52
-2.41051e-51
-8.47132e-51
-3.03893e-50
-1.1124e-49
-4.15339e-49
-1.58112e-48
-6.13424e-48
-2.42429e-47
-9.75488e-47
-3.99423e-46
-1.66323e-45
-7.03842e-45
-3.02436e-44
-1.3182e-43
-5.82059e-43
-2.59956e-42
-1.17199e-41
-5.32088e-41
-2.42556e-40
-1.10646e-39
-5.03163e-39
-2.2721e-38
-1.01519e-37
-4.47773e-37
-1.9544e-36
-9.33747e-36
-4.22924e-35
-1.7928e-34
-6.85864e-34
-2.20242e-33
-6.17922e-33
-2.61689e-32
-4.12806e-32
3.34093e-31
1.50156e-29
2.94386e-28
5.12541e-27
8.60948e-26
1.47203e-24
2.87796e-23
8.09401e-22
2.64918e-20
8.00036e-19
2.12119e-17
-6.78569e-54
-1.45639e-53
-4.44941e-53
-1.42636e-52
-4.67755e-52
-1.56637e-51
-5.35373e-51
-1.86688e-50
-6.63845e-50
-2.4059e-49
-8.88183e-49
-3.33791e-48
-1.27617e-47
-4.96022e-47
-1.95856e-46
-7.85018e-46
-3.1914e-45
-1.31486e-44
-5.4851e-44
-2.31468e-43
-9.8707e-43
-4.24868e-42
-1.84342e-41
-8.04958e-41
-3.53078e-40
-1.55217e-39
-6.82139e-39
-2.98906e-38
-1.30308e-37
-5.64638e-37
-2.44046e-36
-1.16339e-35
-5.27776e-35
-2.21863e-34
-8.05979e-34
-2.10919e-33
-2.28824e-33
-5.22867e-33
-5.6298e-50
8.2782e-31
1.75515e-29
3.14036e-28
5.44402e-27
9.37522e-26
1.71471e-24
3.97963e-23
1.16173e-21
3.25954e-20
9.05895e-19
2.21211e-17
-1.50457e-53
-3.22312e-53
-9.81606e-53
-3.13624e-52
-1.02473e-51
-3.41773e-51
-1.16294e-50
-4.03498e-50
-1.42672e-49
-5.13772e-49
-1.88288e-48
-7.01702e-48
-2.657e-47
-1.02125e-46
-3.98052e-46
-1.57162e-45
-6.2786e-45
-2.53491e-44
-1.03302e-43
-4.24369e-43
-1.75512e-42
-7.29861e-42
-3.04787e-41
-1.27659e-40
-5.35684e-40
-2.2497e-39
-9.44782e-39
-3.96585e-38
-1.66454e-37
-6.99833e-37
-2.96534e-36
-1.40145e-35
-6.37057e-35
-2.69346e-34
-9.75299e-34
-2.42321e-33
-1.11149e-33
-8.95866e-34
2.1421e-32
9.60126e-31
1.78894e-29
3.15866e-28
5.50738e-27
9.85538e-26
2.04603e-24
5.33451e-23
1.41374e-21
3.61593e-20
9.59661e-19
2.18809e-17
-3.21616e-53
-6.88474e-53
-2.09213e-52
-6.66876e-52
-2.17354e-51
-7.22986e-51
-2.45292e-50
-8.4836e-50
-2.98909e-49
-1.07212e-48
-3.91152e-48
-1.45027e-47
-5.45908e-47
-2.0839e-46
-8.05731e-46
-3.15124e-45
-1.24485e-44
-4.95921e-44
-1.98899e-43
-8.01678e-43
-3.24115e-42
-1.31191e-41
-5.30651e-41
-2.14125e-40
-8.60758e-40
-3.44431e-39
-1.37212e-38
-5.45072e-38
-2.16728e-37
-8.68178e-37
-3.54402e-36
-1.63684e-35
-7.39432e-35
-3.14321e-34
-1.15113e-33
-2.91441e-33
-1.44021e-33
-2.60343e-34
3.3853e-32
9.58794e-31
1.76196e-29
3.10004e-28
5.41705e-27
1.05173e-25
2.47521e-24
6.34963e-23
1.56244e-21
3.76344e-20
9.49005e-19
2.0536e-17
-6.62068e-53
-1.41717e-52
-4.29926e-52
-1.36798e-51
-4.45052e-51
-1.47758e-50
-5.00309e-50
-1.72669e-49
-6.06997e-49
-2.17179e-48
-7.90195e-48
-2.92088e-47
-1.09567e-46
-4.16592e-46
-1.60329e-45
-6.23627e-45
-2.44751e-44
-9.67387e-44
-3.84292e-43
-1.53084e-42
-6.10014e-42
-2.42523e-41
-9.59349e-41
-3.76538e-40
-1.46262e-39
-5.61152e-39
-2.12482e-38
-7.95308e-38
-2.95895e-37
-1.10687e-36
-4.24718e-36
-1.87098e-35
-8.25746e-35
-3.49807e-34
-1.29391e-33
-3.38406e-33
-2.3706e-33
-1.46745e-34
3.48354e-32
9.42477e-31
1.70981e-29
2.98598e-28
5.41454e-27
1.1702e-25
2.87239e-24
6.94139e-23
1.57835e-21
3.69572e-20
8.78975e-19
1.74485e-17
-1.31259e-52
-2.81035e-52
-8.51354e-52
-2.70492e-51
-8.78706e-51
-2.91298e-50
-9.84863e-50
-3.39383e-49
-1.19119e-48
-4.25507e-48
-1.54553e-47
-5.70242e-47
-2.1348e-46
-8.09871e-46
-3.10895e-45
-1.20573e-44
-4.7156e-44
-1.85605e-43
-7.33528e-43
-2.90339e-42
-1.14766e-41
-4.516e-41
-1.76281e-40
-6.80013e-40
-2.58205e-39
-9.6133e-39
-3.49847e-38
-1.24305e-37
-4.32677e-37
-1.49313e-36
-5.24979e-36
-2.1316e-35
-8.93092e-35
-3.70742e-34
-1.37293e-33
-3.67632e-33
-3.21758e-33
-1.27626e-34
3.54644e-32
9.27435e-31
1.68134e-29
2.965e-28
5.59341e-27
1.29675e-25
3.02947e-24
6.82535e-23
1.49823e-21
3.3248e-20
7.11303e-19
1.30495e-17
-2.50794e-52
-5.37177e-52
-1.62513e-51
-5.15632e-51
-1.67283e-50
-5.53838e-50
-1.87012e-49
-6.43646e-49
-2.25637e-48
-8.05039e-48
-2.9206e-47
-1.07631e-46
-4.02443e-46
-1.5248e-45
-5.84549e-45
-2.26363e-44
-8.83796e-44
-3.47163e-43
-1.36868e-42
-5.40097e-42
-2.12662e-41
-8.32572e-41
-3.22796e-40
-1.23379e-39
-4.62562e-39
-1.69171e-38
-6.00168e-38
-2.05543e-37
-6.78249e-37
-2.16946e-36
-6.89955e-36
-2.49089e-35
-9.4931e-35
-3.75257e-34
-1.37085e-33
-3.69287e-33
-3.512e-33
-1.09921e-34
3.71862e-32
9.29285e-31
1.67143e-29
2.97635e-28
5.81964e-27
1.28609e-25
2.85054e-24
6.00972e-23
1.21544e-21
2.43134e-20
4.5889e-19
8.97537e-18
-4.62309e-52
-9.90614e-52
-2.99293e-51
-9.48337e-51
-3.07264e-50
-1.01602e-49
-3.42666e-49
-1.17803e-48
-4.12527e-48
-1.47034e-47
-5.32916e-47
-1.96215e-46
-7.33055e-46
-2.77524e-45
-1.06311e-44
-4.11375e-44
-1.60491e-43
-6.29907e-43
-2.48106e-42
-9.77935e-42
-3.84493e-41
-1.5023e-40
-5.80842e-40
-2.21126e-39
-8.24181e-39
-2.9878e-38
-1.04571e-37
-3.50548e-37
-1.11737e-36
-3.37673e-36
-9.80623e-36
-3.08801e-35
-1.01754e-34
-3.65416e-34
-1.2847e-33
-3.3898e-33
-2.93141e-33
-2.39321e-35
4.05346e-32
9.38022e-31
1.66637e-29
2.92084e-28
5.68952e-27
1.17124e-25
2.31337e-24
4.48365e-23
8.17458e-22
1.38135e-20
2.32932e-19
6.31787e-18
-8.23226e-52
-1.76457e-51
-5.32387e-51
-1.68458e-50
-5.45081e-50
-1.80011e-49
-6.06378e-49
-2.08225e-48
-7.28397e-48
-2.59362e-47
-9.39206e-47
-3.45531e-46
-1.28998e-45
-4.88071e-45
-1.8687e-44
-7.22801e-44
-2.81897e-43
-1.10613e-42
-4.35592e-42
-1.71662e-41
-6.74776e-41
-2.63564e-40
-1.01844e-39
-3.8732e-39
-1.44096e-38
-5.20684e-38
-1.81199e-37
-6.01298e-37
-1.88164e-36
-5.49393e-36
-1.49485e-35
-4.15522e-35
-1.1407e-34
-3.47464e-34
-1.12589e-33
-2.81285e-33
-1.86463e-33
-1.95839e-35
4.63847e-32
9.93053e-31
1.72333e-29
2.95813e-28
5.69987e-27
1.06924e-25
1.95113e-24
3.38615e-23
5.22283e-22
6.37763e-21
8.93908e-20
5.87729e-18
-1.41794e-51
-3.04004e-51
-9.15865e-51
-2.89373e-50
-9.35016e-50
-3.08371e-49
-1.03744e-48
-3.5582e-48
-1.24331e-47
-4.42254e-47
-1.6e-46
-5.88152e-46
-2.19421e-45
-8.29702e-45
-3.17525e-44
-1.22777e-43
-4.7875e-43
-1.87847e-42
-7.39816e-42
-2.91622e-41
-1.14673e-40
-4.48112e-40
-1.73243e-39
-6.59158e-39
-2.45294e-38
-8.86166e-38
-3.08005e-37
-1.01869e-36
-3.16336e-36
-9.08014e-36
-2.37878e-35
-6.04534e-35
-1.38548e-34
-3.31348e-34
-9.12185e-34
-2.02579e-33
-7.59363e-34
1.76361e-34
5.91256e-32
1.20315e-30
1.98413e-29
3.35643e-28
6.51638e-27
1.20259e-25
2.0042e-24
2.68164e-23
3.02117e-22
4.95535e-21
1.06576e-19
1.11908e-17
-2.36553e-51
-5.0723e-51
-1.52573e-50
-4.81315e-50
-1.55289e-49
-5.1141e-49
-1.71816e-48
-5.88529e-48
-2.05394e-47
-7.29781e-47
-2.63753e-46
-9.68656e-46
-3.61089e-45
-1.36449e-44
-5.21918e-44
-2.01736e-43
-7.86475e-43
-3.0858e-42
-1.21549e-41
-4.7929e-41
-1.88571e-40
-7.37434e-40
-2.85364e-39
-1.08696e-38
-4.04994e-38
-1.46492e-37
-5.0968e-37
-1.68616e-36
-5.22756e-36
-1.49114e-35
-3.837e-35
-9.25647e-35
-1.84607e-34
-3.30781e-34
-6.7404e-34
-1.23641e-33
-1.39288e-34
1.81164e-33
1.00035e-31
1.91174e-30
2.81128e-29
4.88732e-28
9.43548e-27
1.83804e-25
2.47791e-24
2.85061e-23
4.06486e-22
8.28689e-21
2.17084e-19
3.46315e-17
-3.82744e-51
-8.20702e-51
-2.46453e-50
-7.7619e-50
-2.50026e-49
-8.22137e-49
-2.75801e-48
-9.4338e-48
-3.28798e-47
-1.16679e-46
-4.21212e-46
-1.54534e-45
-5.75535e-45
-2.17314e-44
-8.30696e-44
-3.20931e-43
-1.25077e-42
-4.90688e-42
-1.93295e-41
-7.6241e-41
-3.00115e-40
-1.17453e-39
-4.54969e-39
-1.73524e-38
-6.47548e-38
-2.34653e-37
-8.1804e-37
-2.71161e-36
-8.41859e-36
-2.40018e-35
-6.13861e-35
-1.44471e-34
-2.64577e-34
-3.621e-34
-4.38862e-34
-6.0916e-34
-3.2549e-35
7.06308e-33
2.1823e-31
3.78373e-30
4.98464e-29
9.11905e-28
1.86216e-26
3.83995e-25
4.19421e-24
4.866e-23
8.23736e-22
1.79542e-20
4.93558e-19
1.07383e-16
-6.01384e-51
-1.28936e-50
-3.86503e-50
-1.21514e-49
-3.90755e-49
-1.28276e-48
-4.29641e-48
-1.46734e-47
-5.10672e-47
-1.80971e-46
-6.52473e-46
-2.39097e-45
-8.89535e-45
-3.35564e-44
-1.2817e-43
-4.94856e-43
-1.92771e-42
-7.56039e-42
-2.97797e-41
-1.17475e-40
-4.62599e-40
-1.81156e-39
-7.02374e-39
-2.68211e-38
-1.00246e-37
-3.6396e-37
-1.27172e-36
-4.2264e-36
-1.31572e-35
-3.75966e-35
-9.61587e-35
-2.24342e-34
-3.93758e-34
-4.46271e-34
-2.57866e-34
-1.70193e-34
1.11694e-34
1.96216e-32
4.85427e-31
7.59628e-30
1.00838e-28
1.86657e-27
4.44493e-26
8.68771e-25
8.32425e-24
9.90597e-23
1.68393e-21
3.70605e-20
1.09387e-18
2.92249e-16
-9.18731e-51
-1.96926e-50
-5.89208e-50
-1.84901e-49
-5.93519e-49
-1.94497e-48
-6.50322e-48
-2.21737e-47
-7.70477e-47
-2.7263e-46
-9.81543e-46
-3.5921e-45
-1.33478e-44
-5.02977e-44
-1.9193e-43
-7.4043e-43
-2.88247e-42
-1.12996e-41
-4.44956e-41
-1.75515e-40
-6.91267e-40
-2.70819e-39
-1.05075e-38
-4.01656e-38
-1.50329e-37
-5.46768e-37
-1.9147e-36
-6.38029e-36
-1.99243e-35
-5.71245e-35
-1.4652e-34
-3.41635e-34
-5.8964e-34
-6.03611e-34
-1.50128e-34
-2.89138e-35
7.59426e-34
4.58173e-32
9.89518e-31
1.43959e-29
2.05717e-28
3.7128e-27
1.07116e-25
1.83764e-24
1.6157e-23
1.90937e-22
3.21719e-21
7.23524e-20
2.36645e-18
6.95157e-16
-1.36623e-50
-2.92738e-50
-8.74158e-50
-2.7379e-49
-8.77175e-49
-2.86916e-48
-9.57588e-48
-3.25926e-47
-1.13057e-46
-3.99392e-46
-1.43568e-45
-5.24636e-45
-1.94682e-44
-7.32688e-44
-2.79269e-43
-1.0763e-42
-4.1865e-42
-1.64005e-41
-6.45506e-41
-2.5455e-40
-1.00249e-39
-3.92818e-39
-1.5248e-38
-5.83311e-38
-2.18561e-37
-7.96139e-37
-2.79344e-36
-9.33158e-36
-2.92293e-35
-8.41036e-35
-2.16557e-34
-5.06471e-34
-8.70676e-34
-8.51274e-34
-9.81937e-35
-3.45719e-36
2.32505e-33
9.40193e-32
1.84808e-30
2.56539e-29
3.93102e-28
7.70766e-27
2.40576e-25
3.56289e-24
2.96568e-23
3.46773e-22
5.82726e-21
1.32793e-19
4.89255e-18
1.46446e-15
-1.97985e-50
-4.24017e-50
-1.26357e-49
-3.94954e-49
-1.26284e-48
-4.12252e-48
-1.37325e-47
-4.6652e-47
-1.6153e-46
-5.6962e-46
-2.04412e-45
-7.45769e-45
-2.76319e-44
-1.03846e-43
-3.95299e-43
-1.5217e-42
-5.91285e-42
-2.31432e-41
-9.10255e-41
-3.58768e-40
-1.4125e-39
-5.5344e-39
-2.14869e-38
-8.22376e-38
-3.08388e-37
-1.12469e-36
-3.95268e-36
-1.32324e-35
-4.15618e-35
-1.19997e-34
-3.10229e-34
-7.28688e-34
-1.25462e-33
-1.2032e-33
-7.62367e-35
2.38188e-35
5.0618e-33
1.74479e-31
3.23971e-30
4.4124e-29
7.07691e-28
1.71771e-26
4.87497e-25
6.2176e-24
5.12728e-23
6.08902e-22
1.01847e-20
2.2946e-19
1.01123e-17
2.77033e-15
-2.7988e-50
-5.99065e-50
-1.7814e-49
-5.55634e-49
-1.77291e-48
-5.77569e-48
-1.92003e-47
-6.50971e-47
-2.24956e-46
-7.91782e-46
-2.83616e-45
-1.03292e-44
-3.8207e-44
-1.43362e-43
-5.44921e-43
-2.09483e-42
-8.12994e-42
-3.17868e-41
-1.24908e-40
-4.91948e-40
-1.93579e-39
-7.58227e-39
-2.94352e-38
-1.12679e-37
-4.22752e-37
-1.54309e-36
-5.43005e-36
-1.82104e-35
-5.73316e-35
-1.66031e-34
-4.30868e-34
-1.01662e-33
-1.75637e-33
-1.66914e-33
-6.2236e-35
8.97546e-35
9.56648e-33
3.00818e-31
5.43735e-30
7.62566e-29
1.32667e-27
3.70577e-26
8.95132e-25
1.05177e-23
8.35566e-23
1.01525e-21
1.712e-20
3.78868e-19
2.70599e-17
4.75882e-15
-3.86339e-50
-8.26383e-50
-2.45191e-49
-7.63102e-49
-2.42962e-48
-7.8981e-48
-2.62e-47
-8.86426e-47
-3.05691e-46
-1.07378e-45
-3.83872e-45
-1.39539e-44
-5.1521e-44
-1.92985e-43
-7.32335e-43
-2.811e-42
-1.0894e-41
-4.25398e-41
-1.66974e-40
-6.56995e-40
-2.58322e-39
-1.01123e-38
-3.92431e-38
-1.50209e-37
-5.63659e-37
-2.05847e-36
-7.25019e-36
-2.43477e-35
-7.68011e-35
-2.2299e-34
-5.80627e-34
-1.37569e-33
-2.38546e-33
-2.25238e-33
-5.13991e-35
2.09545e-34
1.70685e-32
4.95464e-31
8.98704e-30
1.35264e-28
2.65143e-27
7.67068e-26
1.50572e-24
1.4769e-23
1.27877e-22
1.63584e-21
2.76181e-20
6.3094e-19
7.80498e-17
7.48825e-15
-5.21229e-50
-1.11408e-49
-3.29797e-49
-1.0241e-48
-3.25331e-48
-1.05521e-47
-3.49264e-47
-1.17907e-46
-4.0573e-46
-1.42214e-45
-5.07352e-45
-1.84051e-44
-6.78224e-44
-2.53567e-43
-9.60503e-43
-3.68053e-42
-1.42413e-41
-5.55289e-41
-2.17669e-40
-8.55455e-40
-3.36014e-39
-1.31428e-38
-5.09717e-38
-1.95025e-37
-7.31742e-37
-2.67278e-36
-9.41897e-36
-3.16615e-35
-1.0002e-34
-2.91023e-34
-7.59939e-34
-1.80709e-33
-3.1436e-33
-2.94794e-33
-6.33747e-35
4.08964e-34
2.98978e-32
8.04379e-31
1.47087e-29
2.40876e-28
5.46835e-27
1.49513e-25
2.29687e-24
1.79478e-23
1.87113e-22
2.60844e-21
4.25296e-20
1.20668e-18
1.88693e-16
1.08263e-14
-6.87926e-50
-1.46917e-49
-4.3389e-49
-1.34422e-48
-4.26037e-48
-1.37866e-47
-4.55272e-47
-1.53342e-46
-5.26468e-46
-1.84121e-45
-6.55411e-45
-2.3725e-44
-8.72428e-44
-3.25511e-43
-1.23062e-42
-4.70681e-42
-1.81802e-41
-7.07705e-41
-2.76991e-40
-1.08708e-39
-4.26467e-39
-1.66629e-38
-6.45672e-38
-2.46879e-37
-9.25906e-37
-3.38151e-36
-1.19188e-35
-4.0088e-35
-1.26775e-34
-3.69482e-34
-9.67086e-34
-2.30667e-33
-4.02274e-33
-3.7403e-33
-8.13677e-35
7.34492e-34
4.98768e-32
1.27045e-30
2.3898e-29
4.44529e-28
1.11501e-26
2.62077e-25
3.24851e-24
2.15094e-23
2.72627e-22
4.00141e-21
6.45697e-20
3.28838e-18
3.72234e-16
1.43408e-14
-8.88952e-50
-1.8968e-49
-5.58831e-49
-1.72718e-48
-5.46113e-48
-1.76302e-47
-5.80812e-47
-1.95161e-46
-6.68462e-46
-2.33233e-45
-8.28313e-45
-2.99156e-44
-1.09762e-43
-4.08647e-43
-1.54168e-42
-5.88461e-42
-2.26856e-41
-8.81471e-41
-3.44409e-40
-1.34952e-39
-5.28654e-39
-2.06288e-38
-7.98444e-38
-3.05009e-37
-1.14311e-36
-4.17286e-36
-1.47058e-35
-4.94729e-35
-1.56558e-34
-4.56837e-34
-1.19795e-33
-2.86433e-33
-5.00402e-33
-4.60371e-33
-1.02786e-34
1.22788e-33
7.66269e-32
1.99813e-30
4.07812e-29
8.63115e-28
2.1148e-26
3.92898e-25
3.8324e-24
2.73648e-23
3.89808e-22
5.54256e-21
1.174e-19
9.16453e-18
6.13208e-16
1.7373e-14
-1.12562e-49
-2.39949e-49
-7.0519e-49
-2.17423e-48
-6.85792e-48
-2.20854e-47
-7.25797e-47
-2.43279e-46
-8.31233e-46
-2.89318e-45
-1.02501e-44
-3.69313e-44
-1.35185e-43
-5.02139e-43
-1.89015e-42
-7.19906e-42
-2.76948e-41
-1.07395e-40
-4.18819e-40
-1.63816e-39
-6.40654e-39
-2.49611e-38
-9.64812e-38
-3.68125e-37
-1.37829e-36
-5.02763e-36
-1.77099e-35
-5.9571e-35
-1.88567e-34
-5.50673e-34
-1.44604e-33
-3.46403e-33
-6.05811e-33
-5.50464e-33
-1.2728e-34
1.88738e-33
1.07937e-31
3.32626e-30
7.37467e-29
1.61647e-27
3.4497e-26
5.02271e-25
3.88731e-24
3.56792e-23
5.24564e-22
7.98548e-21
2.92982e-19
1.9932e-17
8.72351e-16
1.96102e-14
-1.39772e-49
-2.97648e-49
-8.72561e-49
-2.68358e-48
-8.44347e-48
-2.71233e-47
-8.89114e-47
-2.97268e-46
-1.01313e-45
-3.51737e-45
-1.24302e-44
-4.46745e-44
-1.63126e-43
-6.04455e-43
-2.26988e-42
-8.62534e-42
-3.31072e-41
-1.28105e-40
-4.98546e-40
-1.94615e-39
-7.59687e-39
-2.95476e-38
-1.14027e-37
-4.34449e-37
-1.62459e-36
-5.91995e-36
-2.08369e-35
-7.00565e-35
-2.21739e-34
-6.47801e-34
-1.70272e-33
-4.08453e-33
-7.14658e-33
-6.40363e-33
-1.54865e-34
2.74392e-33
1.57524e-31
5.78733e-30
1.29264e-28
2.64409e-27
4.71713e-26
5.41601e-25
3.91015e-24
4.57191e-23
6.71177e-22
1.47112e-20
7.16856e-19
3.44526e-17
1.10788e-15
2.11687e-14
-1.70321e-49
-3.62314e-49
-1.05942e-48
-3.25004e-48
-1.01998e-47
-3.26815e-47
-1.06855e-46
-3.56332e-46
-1.21126e-45
-4.19429e-45
-1.47838e-44
-5.29957e-44
-1.93013e-43
-7.13382e-43
-2.67223e-42
-1.01293e-41
-3.8787e-41
-1.49734e-40
-5.8141e-40
-2.26473e-39
-8.82235e-39
-3.42475e-38
-1.31926e-37
-5.01807e-37
-1.87366e-36
-6.81866e-36
-2.39745e-35
-8.05423e-35
-2.54818e-34
-7.4445e-34
-1.95782e-33
-4.70073e-33
-8.22445e-33
-7.25851e-33
-1.85675e-34
4.06169e-33
2.59216e-31
9.61711e-30
2.02063e-28
3.70051e-27
5.30148e-26
5.25415e-25
4.08538e-24
5.60763e-23
9.59668e-22
3.2126e-20
1.41547e-18
5.01827e-17
1.29867e-15
2.21857e-14
-2.03811e-49
-4.33076e-49
-1.26305e-48
-3.86481e-48
-1.2098e-47
-3.86625e-47
-1.26077e-46
-4.19319e-46
-1.42156e-45
-4.90931e-45
-1.72576e-44
-6.16976e-44
-2.24106e-43
-8.26111e-43
-3.08639e-42
-1.16691e-41
-4.45699e-41
-1.71633e-40
-6.64841e-40
-2.5837e-39
-1.00424e-38
-3.89005e-38
-1.49547e-37
-5.67762e-37
-2.11625e-36
-7.68948e-36
-2.69999e-35
-9.06073e-35
-2.86443e-34
-8.3655e-34
-2.20038e-33
-5.28558e-33
-9.24383e-33
-8.03084e-33
-2.18866e-34
6.46107e-33
4.42235e-31
1.42379e-29
2.7373e-28
4.3205e-27
5.21464e-26
4.84596e-25
4.63136e-24
7.22415e-23
1.71399e-21
6.53408e-20
2.30033e-18
6.47731e-17
1.45187e-15
2.236e-14
-2.39644e-49
-5.08644e-49
-1.47956e-48
-4.51565e-48
-1.40985e-47
-4.49368e-47
-1.46146e-46
-4.84751e-46
-1.63891e-45
-5.64436e-45
-1.97868e-44
-7.05445e-44
-2.55534e-43
-9.39375e-43
-3.49998e-42
-1.31971e-41
-5.0272e-41
-1.93086e-40
-7.46032e-40
-2.89201e-39
-1.12137e-38
-4.33372e-38
-1.66234e-37
-6.29791e-37
-2.34284e-36
-8.49746e-36
-2.97887e-35
-9.98285e-35
-3.15255e-34
-9.20055e-34
-2.4195e-33
-5.81234e-33
-1.0158e-32
-8.6911e-33
-2.51101e-34
1.07675e-32
7.04282e-31
1.86409e-29
3.1754e-28
4.31318e-27
4.83552e-26
4.7433e-25
5.84631e-24
1.09565e-22
3.32189e-21
1.13231e-19
3.23445e-18
7.71841e-17
1.5294e-15
2.19567e-14
-2.77042e-49
-5.87354e-49
-1.70403e-48
-5.18724e-48
-1.61528e-47
-5.13475e-47
-1.66544e-46
-5.50893e-46
-1.85737e-45
-6.37883e-45
-2.22985e-44
-7.92742e-44
-2.86341e-43
-1.04964e-42
-3.89975e-42
-1.46632e-41
-5.57017e-41
-2.13354e-40
-8.22123e-40
-3.17858e-39
-1.22932e-38
-4.73907e-38
-1.81347e-37
-6.85465e-37
-2.5444e-36
-9.20967e-36
-3.22251e-35
-1.07815e-34
-3.40005e-34
-9.91271e-34
-2.6053e-33
-6.25676e-33
-1.09252e-32
-9.22218e-33
-2.75971e-34
1.66167e-32
8.95095e-31
2.07273e-29
3.17371e-28
4.08219e-27
4.44168e-26
5.1486e-25
8.23514e-24
1.8853e-22
5.81761e-21
1.67159e-19
4.0663e-18
8.44894e-17
1.53816e-15
2.0556e-14
-3.15076e-49
-6.67235e-49
-1.9307e-48
-5.86194e-48
-1.82058e-47
-5.77184e-47
-1.86697e-46
-6.15845e-46
-2.07052e-45
-7.09066e-45
-2.47157e-44
-8.76134e-44
-3.15542e-43
-1.15331e-42
-4.27243e-42
-1.60178e-41
-6.06719e-41
-2.31727e-40
-8.90397e-40
-3.43299e-39
-1.3241e-38
-5.0909e-38
-1.94308e-37
-7.32629e-37
-2.71298e-36
-9.79769e-36
-3.42103e-35
-1.14237e-34
-3.59656e-34
-1.04716e-33
-2.74969e-33
-6.59912e-33
-1.15114e-32
-9.60746e-33
-2.91344e-34
2.14017e-32
9.47407e-31
2.03832e-29
3.01533e-28
3.69172e-27
4.49735e-26
6.40538e-25
1.22589e-23
3.11969e-22
8.77361e-21
2.19411e-19
4.63042e-18
8.80324e-17
1.47636e-15
1.68618e-14
-3.52722e-49
-7.46118e-49
-2.15329e-48
-6.52074e-48
-2.01985e-47
-6.38636e-47
-2.06008e-46
-6.77648e-46
-2.27185e-45
-7.75771e-45
-2.6962e-44
-9.52948e-44
-3.42188e-43
-1.24697e-42
-4.60557e-42
-1.72151e-41
-6.50122e-41
-2.47567e-40
-9.48463e-40
-3.64624e-39
-1.40233e-38
-5.37653e-38
-2.04647e-37
-7.69556e-37
-2.84238e-36
-1.02397e-35
-3.56701e-35
-1.18854e-34
-3.73464e-34
-1.08558e-33
-2.84707e-33
-6.82594e-33
-1.18931e-32
-9.83062e-33
-2.9967e-34
2.37673e-32
9.46277e-31
1.90719e-29
2.72307e-28
3.56248e-27
4.92751e-26
8.5446e-25
1.82403e-23
4.68929e-22
1.17813e-20
2.56862e-19
4.91235e-18
8.75762e-17
1.29727e-15
1.18656e-14
-3.88913e-49
-8.21755e-49
-2.36536e-48
-7.14437e-48
-2.20719e-47
-6.95991e-47
-2.23892e-46
-7.34409e-46
-2.4551e-45
-8.35913e-45
-2.89666e-44
-1.02074e-43
-3.65425e-43
-1.32759e-42
-4.88833e-42
-1.82159e-41
-6.85805e-41
-2.60354e-40
-9.94413e-40
-3.81133e-39
-1.46144e-38
-5.58666e-38
-2.1203e-37
-7.95064e-37
-2.92852e-36
-1.05219e-35
-3.65601e-35
-1.21527e-34
-3.81028e-34
-1.10545e-33
-2.89476e-33
-6.93117e-33
-1.2061e-32
-9.88733e-33
-3.03042e-34
2.3927e-32
9.32397e-31
1.76015e-29
2.57407e-28
3.69228e-27
5.8972e-26
1.13694e-24
2.56605e-23
6.23704e-22
1.38081e-20
2.72869e-19
4.96011e-18
8.34589e-17
1.04049e-15
6.93963e-15
-4.2261e-49
-8.91964e-49
-2.56074e-48
-7.71448e-48
-2.37705e-47
-7.47537e-47
-2.39811e-46
-7.84415e-46
-2.61474e-45
-8.87663e-45
-3.06684e-44
-1.07745e-43
-3.84546e-43
-1.39274e-42
-5.11223e-42
-1.89905e-41
-7.12716e-41
-2.69719e-40
-1.02694e-39
-3.9237e-39
-1.49986e-38
-5.71594e-38
-2.1628e-37
-8.08589e-37
-2.96968e-36
-1.06396e-35
-3.68683e-35
-1.22234e-34
-3.8232e-34
-1.10682e-33
-2.89325e-33
-6.91699e-33
-1.20213e-32
-9.79053e-33
-3.0167e-34
2.36361e-32
9.02962e-31
1.6599e-29
2.57843e-28
4.03564e-27
7.13633e-26
1.44081e-24
3.24727e-23
7.10168e-22
1.4632e-20
2.78057e-19
4.80104e-18
7.18e-17
6.99069e-16
3.0014e-15
-4.52864e-49
-9.54758e-49
-2.73388e-48
-8.21484e-48
-2.5246e-47
-7.91805e-47
-2.53313e-46
-8.26248e-46
-2.74626e-45
-9.29574e-45
-3.20203e-44
-1.12152e-43
-3.9904e-43
-1.44071e-42
-5.27159e-42
-1.952e-41
-7.3024e-41
-2.75461e-40
-1.04543e-39
-3.98149e-39
-1.51709e-38
-5.76325e-38
-2.17386e-37
-8.1021e-37
-2.96659e-36
-1.05971e-35
-3.66153e-35
-1.21062e-34
-3.77684e-34
-1.09089e-33
-2.84627e-33
-6.79414e-33
-1.17982e-32
-9.57549e-33
-3.02314e-34
2.30547e-32
8.72161e-31
1.61663e-29
2.63176e-28
4.43283e-27
8.21481e-26
1.62725e-24
3.50347e-23
7.49043e-22
1.48624e-20
2.6856e-19
4.15491e-18
5.10305e-17
3.87831e-16
1.26616e-15
-4.7888e-49
-1.00848e-48
-2.88023e-48
-8.63241e-48
-2.646e-47
-8.27662e-47
-2.64058e-46
-8.58873e-46
-2.84649e-45
-9.60668e-45
-3.29921e-44
-1.15203e-43
-4.08621e-43
-1.47065e-42
-5.36395e-42
-1.97979e-41
-7.38227e-41
-2.77563e-40
-1.04995e-39
-3.98562e-39
-1.5137e-38
-5.73169e-38
-2.155e-37
-8.00629e-37
-2.92236e-36
-1.04072e-35
-3.58531e-35
-1.18208e-34
-3.67818e-34
-1.05996e-33
-2.76069e-33
-6.58225e-33
-1.14353e-32
-9.3049e-33
-2.97281e-34
2.24914e-32
8.39093e-31
1.57706e-29
2.66069e-28
4.63631e-27
8.65556e-26
1.71486e-24
3.55653e-23
7.35017e-22
1.40861e-20
2.28869e-19
2.87635e-18
2.67445e-17
1.73565e-16
1.43057e-15
-5.00068e-49
-1.05193e-48
-2.99654e-48
-8.95815e-48
-2.73873e-47
-8.54389e-47
-2.71841e-46
-8.81713e-46
-2.91381e-45
-9.80502e-45
-3.35724e-44
-1.16871e-43
-4.13247e-43
-1.4826e-42
-5.39018e-42
-1.98302e-41
-7.37008e-41
-2.76191e-40
-1.04131e-39
-3.9397e-39
-1.49131e-38
-5.62837e-38
-2.10927e-37
-7.81125e-37
-2.8422e-36
-1.00908e-35
-3.46614e-35
-1.13965e-34
-3.53744e-34
-1.01737e-33
-2.64654e-33
-6.3104e-33
-1.10002e-32
-9.08083e-33
-2.9615e-34
2.15297e-32
7.90078e-31
1.51796e-29
2.62057e-28
4.66527e-27
8.75563e-26
1.69161e-24
3.37604e-23
6.58475e-22
1.1255e-20
1.52387e-19
1.49373e-18
1.18094e-17
1.10535e-16
2.66035e-15
-5.16089e-49
-1.0844e-48
-3.08113e-48
-9.18777e-48
-2.80172e-47
-8.71735e-47
-2.76609e-46
-8.94687e-46
-2.94826e-45
-9.89206e-45
-3.37695e-44
-1.17199e-43
-4.13125e-43
-1.47749e-42
-5.35443e-42
-1.96349e-41
-7.27364e-41
-2.7168e-40
-1.02091e-39
-3.84978e-39
-1.45248e-38
-5.46391e-38
-2.04105e-37