/*--------------------------------*- C++ -*----------------------------------*\
  =========                 |
  \\      /  F ield         | OpenFOAM: The Open Source CFD Toolbox
   \\    /   O peration     | Website:  https://openfoam.org
    \\  /    A nd           | Version:  9
     \\/     M anipulation  |
\*---------------------------------------------------------------------------*/
FoamFile
{
    format      ascii;
    class       volScalarField;
    location    "0.02";
    object      p;
}
// * * * * * * * * * * * * * * * * * * * * * * * * * * * * * * * * * * * * * //

dimensions      [1 -1 -2 0 0 0 0];

internalField   nonuniform List<scalar> 
5000
(
0.407365
0.407543
0.407705
0.407874
0.408054
0.408242
0.408441
0.40865
0.408869
0.409099
0.409338
0.409588
0.409846
0.41011
0.410381
0.410657
0.410936
0.411218
0.411505
0.411798
0.412101
0.412418
0.412755
0.413114
0.413496
0.413894
0.414296
0.414683
0.415031
0.415314
0.415529
0.415631
0.415614
0.415489
0.41525
0.414866
0.414288
0.413467
0.412376
0.411011
0.409365
0.407399
0.40505
0.402252
0.398956
0.395111
0.390637
0.385418
0.379341
0.372289
0.405397
0.405574
0.405735
0.405904
0.406082
0.40627
0.406467
0.406675
0.406893
0.407121
0.407359
0.407607
0.407863
0.408125
0.408393
0.408666
0.408942
0.409222
0.409506
0.409796
0.410097
0.410412
0.410746
0.411101
0.411477
0.411869
0.412263
0.41264
0.412977
0.41325
0.413454
0.413541
0.413508
0.413366
0.413106
0.412698
0.41209
0.411236
0.410111
0.408711
0.407025
0.405017
0.402622
0.399781
0.396447
0.392574
0.388083
0.382869
0.376837
0.369905
0.403429
0.403607
0.403768
0.403936
0.404114
0.404301
0.404497
0.404704
0.404921
0.405148
0.405385
0.405631
0.405885
0.406146
0.406412
0.406684
0.406959
0.407239
0.407524
0.407817
0.408121
0.408438
0.408773
0.409127
0.409498
0.40988
0.410261
0.410625
0.410949
0.411213
0.411412
0.411499
0.411466
0.411317
0.41104
0.410605
0.409969
0.409092
0.407952
0.406536
0.404827
0.402786
0.400361
0.397498
0.394151
0.39027
0.385782
0.380608
0.374672
0.367909
0.401463
0.401641
0.401802
0.401969
0.402147
0.402334
0.40253
0.402737
0.402953
0.40318
0.403416
0.403662
0.403915
0.404175
0.404441
0.404712
0.404989
0.405271
0.40556
0.405857
0.406166
0.406488
0.406826
0.40718
0.407547
0.407921
0.408291
0.408643
0.408958
0.409215
0.409414
0.409508
0.409481
0.409331
0.409045
0.408593
0.407939
0.40705
0.405905
0.404485
0.402767
0.400712
0.398274
0.395408
0.392068
0.388201
0.383744
0.378639
0.372825
0.366248
0.399498
0.399677
0.399837
0.400005
0.400182
0.400369
0.400566
0.400773
0.40099
0.401217
0.401454
0.4017
0.401953
0.402214
0.402481
0.402754
0.403033
0.403319
0.403612
0.403915
0.404229
0.404556
0.404898
0.405252
0.405618
0.405987
0.406352
0.406698
0.407008
0.407265
0.407468
0.407569
0.407551
0.407407
0.40712
0.406663
0.406003
0.405114
0.403972
0.402559
0.400846
0.398794
0.396364
0.393514
0.390199
0.386367
0.381966
0.37695
0.371268
0.364883
0.397534
0.397714
0.397874
0.398042
0.39822
0.398408
0.398606
0.398813
0.399032
0.39926
0.399498
0.399745
0.400001
0.400264
0.400533
0.400809
0.401092
0.401382
0.401681
0.40199
0.40231
0.402644
0.402989
0.403347
0.403712
0.404081
0.404444
0.404789
0.4051
0.405361
0.405572
0.405685
0.405679
0.405545
0.405266
0.404814
0.404161
0.403281
0.402155
0.400759
0.399063
0.397031
0.394626
0.391809
0.388536
0.384758
0.38043
0.375514
0.369973
0.363777
0.395571
0.395753
0.395913
0.396082
0.396261
0.39645
0.396649
0.396858
0.397079
0.397309
0.39755
0.397799
0.398058
0.398324
0.398597
0.398877
0.399165
0.399461
0.399766
0.400083
0.400411
0.40075
0.401102
0.401463
0.401831
0.402202
0.402567
0.402915
0.403232
0.403501
0.403724
0.403853
0.403864
0.403748
0.403485
0.403048
0.402411
0.401552
0.400452
0.399085
0.39742
0.395423
0.393059
0.390292
0.387076
0.383368
0.379126
0.374321
0.368919
0.362901
0.393609
0.393793
0.393955
0.394124
0.394305
0.394496
0.394697
0.394909
0.395132
0.395365
0.395609
0.395862
0.396124
0.396394
0.396672
0.396957
0.397251
0.397554
0.397868
0.398192
0.398529
0.398877
0.399235
0.399602
0.399976
0.400351
0.400722
0.401078
0.401404
0.401685
0.401923
0.402073
0.402108
0.402016
0.401777
0.401364
0.400753
0.399926
0.398862
0.397535
0.395914
0.393967
0.39166
0.388957
0.385814
0.382189
0.378047
0.373358
0.368093
0.362237
0.391649
0.391836
0.391999
0.39217
0.392353
0.392546
0.392749
0.392965
0.393191
0.393428
0.393676
0.393934
0.394201
0.394476
0.394759
0.395051
0.395352
0.395663
0.395985
0.396319
0.396665
0.397022
0.397389
0.397763
0.398144
0.398528
0.398909
0.399275
0.399615
0.399911
0.400169
0.400345
0.400409
0.400348
0.40014
0.39976
0.399186
0.3984
0.397384
0.396109
0.394545
0.392661
0.390426
0.387802
0.384746
0.381218
0.377185
0.372618
0.367485
0.361776
0.38969
0.389881
0.390045
0.390219
0.390404
0.3906
0.390807
0.391026
0.391257
0.391499
0.391752
0.392015
0.392288
0.392569
0.392859
0.393158
0.393467
0.393787
0.394119
0.394463
0.394819
0.395186
0.395562
0.395947
0.396338
0.396733
0.397126
0.397507
0.397863
0.398179
0.398462
0.398669
0.398767
0.398743
0.398574
0.398235
0.397707
0.396974
0.396016
0.394804
0.393309
0.391502
0.389354
0.386824
0.383869
0.38045
0.376537
0.372095
0.367094
0.361516
0.387733
0.387927
0.388095
0.388271
0.388459
0.388659
0.38887
0.389094
0.38933
0.389578
0.389837
0.390106
0.390385
0.390673
0.39097
0.391277
0.391595
0.391925
0.392267
0.392623
0.39299
0.393369
0.393756
0.394152
0.394555
0.394964
0.395373
0.395772
0.396149
0.396487
0.396799
0.397042
0.397181
0.397201
0.397077
0.396788
0.396315
0.395645
0.394756
0.393619
0.392206
0.390489
0.38844
0.386018
0.383178
0.379884
0.376101
0.371791
0.36692
0.361464
0.385777
0.385976
0.386146
0.386326
0.386518
0.386723
0.386939
0.387168
0.38741
0.387664
0.387929
0.388205
0.388491
0.388787
0.389093
0.389409
0.389736
0.390077
0.390431
0.390798
0.391178
0.391569
0.391969
0.392378
0.392796
0.393221
0.393649
0.39407
0.39447
0.394835
0.39518
0.395464
0.39565
0.395719
0.395648
0.395417
0.395009
0.394411
0.393601
0.39255
0.391231
0.389619
0.387683
0.385381
0.382672
0.379516
0.375875
0.371705
0.366968
0.361631
0.383823
0.384027
0.384201
0.384384
0.384581
0.384791
0.385013
0.385248
0.385496
0.385757
0.38603
0.386314
0.386608
0.386912
0.387227
0.387552
0.38789
0.388242
0.388608
0.388989
0.389382
0.389787
0.390201
0.390625
0.39106
0.391504
0.391953
0.392398
0.392825
0.39322
0.393603
0.393934
0.39417
0.394295
0.394284
0.394118
0.393784
0.393268
0.392547
0.391594
0.390382
0.388887
0.387078
0.384912
0.382348
0.379346
0.375861
0.371844
0.367251
0.362034
0.38187
0.382081
0.382258
0.382446
0.382648
0.382863
0.383091
0.383333
0.383589
0.383858
0.384139
0.384431
0.384734
0.385047
0.385371
0.385707
0.386057
0.38642
0.3868
0.387194
0.387602
0.388021
0.388451
0.388892
0.389345
0.38981
0.390284
0.390756
0.391212
0.391641
0.392066
0.392448
0.392741
0.392927
0.392983
0.392891
0.392639
0.392214
0.391593
0.390747
0.389654
0.38829
0.386622
0.384607
0.382204
0.379373
0.376062
0.372215
0.36778
0.362696
0.379919
0.380136
0.380318
0.380511
0.380719
0.38094
0.381175
0.381424
0.381688
0.381965
0.382255
0.382556
0.382869
0.383192
0.383526
0.383873
0.384234
0.384611
0.385004
0.385413
0.385836
0.386271
0.386718
0.387177
0.387651
0.38814
0.38864
0.389142
0.389631
0.390097
0.390567
0.391006
0.39136
0.391613
0.391741
0.391731
0.39157
0.391245
0.390732
0.390005
0.389043
0.387824
0.386311
0.384464
0.38224
0.379597
0.37648
0.372826
0.36857
0.36364
0.377969
0.378192
0.37838
0.378578
0.378792
0.37902
0.379263
0.37952
0.379793
0.380079
0.380378
0.380689
0.381012
0.381346
0.381691
0.382049
0.382423
0.382813
0.383221
0.383645
0.384084
0.384537
0.385001
0.38548
0.385976
0.386491
0.38702
0.387554
0.388079
0.388584
0.389104
0.389603
0.390024
0.390349
0.390556
0.390634
0.390573
0.390357
0.389962
0.389364
0.388545
0.387482
0.386141
0.384477
0.382452
0.380018
0.377117
0.373682
0.369636
0.36489
0.37602
0.376251
0.376444
0.376648
0.376869
0.377105
0.377355
0.377621
0.377903
0.378199
0.378508
0.37883
0.379163
0.379507
0.379864
0.380235
0.380621
0.381026
0.381448
0.381889
0.382345
0.382816
0.3833
0.3838
0.38432
0.384862
0.385422
0.38599
0.386554
0.387102
0.387675
0.388239
0.38873
0.389132
0.389424
0.389597
0.389642
0.389544
0.389277
0.388819
0.388154
0.387261
0.386104
0.384643
0.382835
0.380632
0.377973
0.374787
0.370986
0.366466
0.374072
0.374311
0.37451
0.374721
0.374949
0.375192
0.375451
0.375726
0.376018
0.376324
0.376644
0.376976
0.377321
0.377677
0.378045
0.378429
0.378829
0.379248
0.379686
0.380144
0.380619
0.381108
0.381613
0.382135
0.382681
0.383252
0.383845
0.38445
0.385054
0.385648
0.386277
0.386909
0.387475
0.387958
0.388342
0.388616
0.388774
0.388801
0.388671
0.388364
0.387864
0.387153
0.386196
0.384955
0.383386
0.381437
0.379048
0.376143
0.372627
0.368383
0.372126
0.372373
0.372578
0.372796
0.373031
0.373283
0.373551
0.373835
0.374137
0.374454
0.374785
0.375129
0.375485
0.375853
0.376234
0.37663
0.377044
0.377479
0.377934
0.378409
0.378903
0.379412
0.379938
0.380485
0.381057
0.381659
0.382286
0.38293
0.383576
0.384218
0.384907
0.385611
0.386256
0.386825
0.387304
0.387685
0.387963
0.388122
0.388137
0.387991
0.387669
0.387152
0.38641
0.385406
0.384097
0.382428
0.380339
0.37775
0.374563
0.370651
0.370181
0.370436
0.370648
0.370872
0.371116
0.371376
0.371653
0.371948
0.37226
0.372588
0.372931
0.373286
0.373655
0.374035
0.374429
0.374839
0.375267
0.375717
0.37619
0.376684
0.377197
0.377727
0.378276
0.378847
0.379448
0.380081
0.380744
0.381428
0.38212
0.382812
0.383562
0.384341
0.385068
0.385727
0.386307
0.3868
0.387204
0.387501
0.38767
0.387694
0.38756
0.387251
0.386738
0.385988
0.384959
0.383598
0.381841
0.379609
0.376797
0.373278
0.368236
0.368501
0.368719
0.368951
0.369203
0.369472
0.369759
0.370064
0.370387
0.370726
0.371081
0.371449
0.371829
0.372222
0.37263
0.373053
0.373497
0.373963
0.374453
0.374966
0.375499
0.376052
0.376624
0.377222
0.377851
0.378517
0.379218
0.379943
0.380681
0.381425
0.38224
0.383096
0.383908
0.384661
0.385345
0.385956
0.386489
0.386931
0.38726
0.387463
0.387528
0.387439
0.38717
0.38669
0.385961
0.384934
0.383545
0.381711
0.379328
0.376269
0.366293
0.366567
0.366792
0.367032
0.367292
0.36757
0.367867
0.368182
0.368516
0.368868
0.369234
0.369615
0.370008
0.370414
0.370835
0.371273
0.371731
0.372213
0.372721
0.373254
0.373809
0.374385
0.374982
0.375606
0.376265
0.376965
0.377704
0.378472
0.379258
0.380056
0.380936
0.381872
0.382772
0.383622
0.384413
0.385145
0.385814
0.386405
0.386901
0.38729
0.387562
0.387705
0.387695
0.387502
0.387092
0.386423
0.385434
0.384042
0.382144
0.379615
0.364351
0.364634
0.364867
0.365114
0.365383
0.36567
0.365977
0.366303
0.366649
0.367012
0.367391
0.367784
0.368191
0.36861
0.369044
0.369496
0.36997
0.370469
0.370995
0.371548
0.372126
0.372725
0.373347
0.373999
0.374689
0.375423
0.376201
0.377012
0.377847
0.3787
0.379648
0.380666
0.381655
0.382604
0.383507
0.384363
0.385171
0.385917
0.386585
0.387165
0.387653
0.388037
0.388298
0.388408
0.388337
0.388048
0.387488
0.386579
0.385222
0.383294
0.362409
0.362702
0.362942
0.363198
0.363475
0.363772
0.364089
0.364426
0.364783
0.365158
0.36555
0.365956
0.366376
0.366808
0.367256
0.367722
0.368212
0.368728
0.369273
0.369847
0.370447
0.37107
0.371719
0.372399
0.37312
0.373889
0.374706
0.375562
0.376447
0.377356
0.378373
0.379474
0.380554
0.381604
0.382619
0.383602
0.384552
0.385457
0.386303
0.387081
0.387789
0.388422
0.388965
0.389393
0.389677
0.38979
0.389687
0.389297
0.388531
0.387274
0.360469
0.360772
0.361019
0.361283
0.36157
0.361876
0.362203
0.362551
0.36292
0.363307
0.363711
0.36413
0.364563
0.365009
0.36547
0.365951
0.366456
0.366989
0.367553
0.368148
0.368771
0.36942
0.370095
0.370804
0.371557
0.372361
0.373218
0.374119
0.375054
0.37602
0.377106
0.378291
0.379464
0.380616
0.381745
0.382856
0.383949
0.385016
0.386044
0.387025
0.387959
0.388846
0.389679
0.390437
0.391093
0.391628
0.392006
0.392167
0.392037
0.391514
0.358529
0.358842
0.359098
0.35937
0.359665
0.359981
0.360319
0.360677
0.361057
0.361457
0.361873
0.362305
0.362751
0.36321
0.363686
0.364181
0.364701
0.365251
0.365835
0.366451
0.367098
0.367772
0.368475
0.369213
0.369998
0.370838
0.371734
0.372679
0.373665
0.374688
0.375845
0.377114
0.37838
0.379636
0.38088
0.382118
0.383355
0.384585
0.385798
0.386987
0.388152
0.389297
0.390425
0.39152
0.392561
0.393535
0.394416
0.395157
0.3957
0.395965
0.356591
0.356913
0.357177
0.357458
0.357763
0.358088
0.358436
0.358805
0.359196
0.359607
0.360036
0.360481
0.36094
0.361413
0.361902
0.362411
0.362947
0.363514
0.364116
0.364754
0.365425
0.366125
0.366857
0.367625
0.368441
0.369316
0.370252
0.371242
0.372278
0.373358
0.374585
0.375938
0.377298
0.378657
0.380016
0.381382
0.382762
0.384154
0.385554
0.386953
0.388352
0.38976
0.391185
0.392622
0.394056
0.39548
0.39688
0.398224
0.399473
0.400568
0.354653
0.354986
0.355258
0.355547
0.355861
0.356197
0.356554
0.356934
0.357336
0.357758
0.358199
0.358656
0.359128
0.359614
0.360117
0.360641
0.361192
0.361776
0.362397
0.363056
0.363751
0.364479
0.365238
0.366036
0.366885
0.367795
0.368769
0.369804
0.37089
0.372027
0.373323
0.37476
0.376212
0.377674
0.379148
0.380642
0.382163
0.383716
0.385299
0.38691
0.388546
0.390218
0.391942
0.393722
0.395551
0.397433
0.399362
0.401324
0.403302
0.405255
0.352716
0.35306
0.35334
0.353638
0.353962
0.354306
0.354673
0.355063
0.355476
0.355909
0.356362
0.356831
0.357315
0.357815
0.358331
0.358869
0.359435
0.360036
0.360676
0.361357
0.362076
0.36283
0.363618
0.364447
0.365327
0.366271
0.367285
0.368363
0.369498
0.37069
0.372054
0.373574
0.375118
0.376682
0.37827
0.37989
0.381552
0.383262
0.385026
0.386844
0.388716
0.390653
0.392677
0.394798
0.397023
0.399361
0.401823
0.404411
0.40712
0.409948
0.35078
0.351134
0.351424
0.351731
0.352063
0.352417
0.352793
0.353193
0.353615
0.354059
0.354523
0.355004
0.355501
0.356013
0.356543
0.357095
0.357676
0.358293
0.358951
0.359654
0.360397
0.361179
0.361996
0.362854
0.363766
0.364744
0.365795
0.366915
0.368099
0.369346
0.370777
0.372378
0.374011
0.375675
0.377375
0.37912
0.380919
0.382784
0.384723
0.386743
0.388846
0.391046
0.393366
0.395827
0.398441
0.401231
0.40422
0.407426
0.410869
0.41457
0.348844
0.34921
0.349509
0.349825
0.350166
0.350529
0.350915
0.351323
0.351755
0.352209
0.352683
0.353175
0.353684
0.354209
0.354753
0.355318
0.355914
0.356547
0.357223
0.357946
0.358714
0.359522
0.360368
0.361257
0.3622
0.363211
0.364299
0.36546
0.366691
0.367991
0.369487
0.371166
0.372886
0.374648
0.376457
0.378323
0.380258
0.382273
0.384382
0.386596
0.388924
0.391379
0.39399
0.396782
0.399778
0.40301
0.406514
0.410325
0.414485
0.419041
0.34691
0.347287
0.347595
0.34792
0.348271
0.348643
0.349036
0.349453
0.349894
0.350357
0.350841
0.351344
0.351864
0.352402
0.352958
0.353538
0.354148
0.354796
0.35549
0.356234
0.357025
0.35786
0.358735
0.359653
0.360627
0.361671
0.362793
0.363995
0.36527
0.366621
0.36818
0.369936
0.37174
0.373596
0.375509
0.377493
0.37956
0.381721
0.383994
0.386394
0.388936
0.391637
0.394527
0.397638
0.401002
0.40466
0.40866
0.413054
0.417904
0.423281
0.344976
0.345365
0.345682
0.346017
0.346376
0.346757
0.347159
0.347583
0.348032
0.348503
0.348995
0.349508
0.35004
0.35059
0.351159
0.351753
0.352377
0.35304
0.353752
0.354515
0.355329
0.35619
0.357093
0.358042
0.359045
0.36012
0.361277
0.362517
0.363836
0.365236
0.366854
0.368683
0.370568
0.372514
0.374527
0.376623
0.378816
0.381118
0.383548
0.386126
0.388871
0.391804
0.394959
0.398373
0.402086
0.406148
0.410618
0.415563
0.421064
0.427212
0.343043
0.343444
0.343771
0.344114
0.344483
0.344872
0.345281
0.345713
0.346168
0.346646
0.347147
0.347669
0.348211
0.348773
0.349356
0.349963
0.350601
0.351279
0.352007
0.352789
0.353625
0.354512
0.355443
0.35642
0.357453
0.358558
0.359747
0.361023
0.362384
0.36383
0.365506
0.367403
0.369366
0.371397
0.373506
0.375708
0.37802
0.380455
0.383034
0.38578
0.388716
0.391867
0.39527
0.398968
0.403006
0.407443
0.412349
0.417804
0.423905
0.430763
0.34111
0.341523
0.34186
0.342213
0.34259
0.342987
0.343403
0.343841
0.344302
0.344787
0.345295
0.345825
0.346377
0.346951
0.347546
0.348167
0.348819
0.349512
0.350255
0.351055
0.351912
0.352823
0.353782
0.354788
0.35585
0.356983
0.358203
0.359513
0.360913
0.362404
0.364132
0.366094
0.368129
0.370241
0.37244
0.374742
0.377164
0.379724
0.382442
0.385346
0.388459
0.391813
0.395445
0.399403
0.403739
0.408519
0.41382
0.419737
0.426376
0.433869
0.339178
0.339603
0.33995
0.340312
0.340698
0.341102
0.341525
0.341968
0.342435
0.342924
0.343438
0.343976
0.344538
0.345122
0.34573
0.346365
0.347031
0.347738
0.348496
0.349313
0.35019
0.351124
0.352109
0.353143
0.354232
0.355393
0.356641
0.357984
0.35942
0.360953
0.362731
0.364753
0.366855
0.369042
0.371325
0.37372
0.376244
0.378918
0.381765
0.384812
0.388089
0.391627
0.395468
0.399662
0.404266
0.409351
0.415004
0.421325
0.428435
0.436477
0.337246
0.337684
0.33804
0.338412
0.338806
0.339217
0.339645
0.340094
0.340564
0.341058
0.341577
0.342121
0.342691
0.343287
0.343907
0.344555
0.345236
0.345957
0.34673
0.347561
0.348457
0.349413
0.350423
0.351484
0.3526
0.353787
0.355061
0.356433
0.357904
0.359475
0.361301
0.363377
0.36554
0.367796
0.370157
0.372637
0.375255
0.378033
0.380994
0.384171
0.387594
0.391297
0.395324
0.399727
0.404568
0.409919
0.415874
0.422541
0.430047
0.438543
0.335315
0.335764
0.33613
0.336511
0.336913
0.337331
0.337765
0.338217
0.338691
0.339188
0.339711
0.340261
0.340838
0.341444
0.342077
0.342739
0.343434
0.344169
0.344955
0.345801
0.346712
0.347688
0.348723
0.34981
0.350952
0.352163
0.353461
0.354859
0.356361
0.357969
0.359838
0.361965
0.364182
0.3665
0.368931
0.371489
0.374192
0.377062
0.380126
0.383416
0.386967
0.390814
0.395002
0.399585
0.404627
0.410204
0.41641
0.423359
0.431182
0.440036
0.333385
0.333845
0.33422
0.33461
0.33502
0.335443
0.335882
0.336338
0.336814
0.337314
0.337839
0.338394
0.338978
0.339593
0.340238
0.340914
0.341623
0.342373
0.343172
0.344031
0.344957
0.345951
0.347007
0.348118
0.349286
0.35052
0.35184
0.35326
0.35479
0.356431
0.35834
0.360513
0.362778
0.365151
0.367643
0.370271
0.37305
0.376002
0.379156
0.382544
0.386202
0.39017
0.394492
0.399224
0.40443
0.410188
0.416593
0.423759
0.431819
0.440929
0.331454
0.331926
0.33231
0.332707
0.333124
0.333553
0.333996
0.334455
0.334934
0.335435
0.335963
0.336521
0.337111
0.337735
0.338391
0.339081
0.339805
0.340568
0.341381
0.342252
0.34319
0.344199
0.345274
0.346408
0.3476
0.348857
0.350196
0.351637
0.35319
0.35486
0.356806
0.359019
0.361328
0.363748
0.366293
0.368979
0.371824
0.374848
0.378078
0.381549
0.385297
0.389361
0.393789
0.398637
0.403969
0.409863
0.416412
0.423729
0.431943
0.44121
0.329524
0.330006
0.330398
0.330802
0.331225
0.33166
0.332107
0.332569
0.333049
0.333551
0.334081
0.334642
0.335237
0.335868
0.336536
0.337238
0.337977
0.338755
0.33958
0.340463
0.341412
0.342433
0.343524
0.344679
0.345893
0.347172
0.34853
0.349987
0.351559
0.353253
0.355231
0.357482
0.359829
0.362289
0.364878
0.367613
0.370512
0.373595
0.376889
0.380427
0.384246
0.388385
0.392892
0.397822
0.403242
0.409225
0.415863
0.423263
0.431553
0.440876
0.327594
0.328085
0.328483
0.328894
0.329323
0.329763
0.330213
0.330677
0.331159
0.331663
0.332193
0.332757
0.333356
0.333994
0.334671
0.335387
0.33614
0.336932
0.337771
0.338664
0.339622
0.340653
0.341757
0.342929
0.344164
0.345463
0.346839
0.348311
0.349898
0.351611
0.353615
0.355899
0.358279
0.360773
0.363397
0.366171
0.369112
0.372241
0.375586
0.379176
0.383047
0.387239
0.391798
0.396779
0.402247
0.408274
0.414947
0.422367
0.430651
0.439937
0.325664
0.326162
0.326566
0.326982
0.327416
0.32786
0.328313
0.32878
0.329264
0.329769
0.330301
0.330866
0.331469
0.332112
0.332798
0.333525
0.334292
0.3351
0.335951
0.336854
0.337821
0.338859
0.339972
0.341158
0.342411
0.34373
0.345122
0.346607
0.348206
0.349933
0.351957
0.354267
0.356676
0.359198
0.36185
0.364652
0.367623
0.370786
0.374165
0.377791
0.381697
0.38592
0.390506
0.395509
0.400989
0.407017
0.413672
0.421049
0.429255
0.438414
0.323733
0.324237
0.324645
0.325065
0.325503
0.32595
0.326407
0.326877
0.327363
0.32787
0.328403
0.32897
0.329575
0.330224
0.330917
0.331654
0.332434
0.333256
0.33412
0.335034
0.336008
0.337051
0.33817
0.339366
0.340634
0.341969
0.343378
0.344875
0.346482
0.348219
0.350256
0.352586
0.355017
0.357561
0.360235
0.363057
0.366047
0.36923
0.372629
0.376274
0.380196
0.384429
0.389018
0.394013
0.399471
0.405458
0.412048
0.419324
0.427384
0.436334
0.321801
0.322309
0.322719
0.323142
0.323583
0.324033
0.324494
0.324967
0.325456
0.325965
0.3265
0.327069
0.327676
0.328329
0.329028
0.329774
0.330566
0.331401
0.332278
0.333203
0.334183
0.33523
0.336352
0.337553
0.338831
0.340181
0.341604
0.343113
0.344727
0.346469
0.348514
0.350856
0.353303
0.355863
0.358551
0.361384
0.364384
0.367574
0.370979
0.374626
0.378545
0.382768
0.387336
0.392296
0.3977
0.403609
0.410088
0.417212
0.425063
0.433732
0.319869
0.320378
0.320789
0.321213
0.321656
0.322109
0.322573
0.323049
0.323542
0.324054
0.324592
0.325163
0.325773
0.326428
0.327132
0.327885
0.328687
0.329533
0.330423
0.331358
0.332345
0.333395
0.334518
0.335721
0.337004
0.338364
0.339799
0.341319
0.34294
0.344684
0.346732
0.349079
0.351533
0.354101
0.356796
0.359633
0.362634
0.365821
0.369218
0.372851
0.376748
0.380941
0.385465
0.390363
0.395684
0.40148
0.407808
0.414733
0.422322
0.430647
0.317936
0.318445
0.318855
0.319278
0.319721
0.320176
0.320643
0.321124
0.32162
0.322137
0.322679
0.323253
0.323866
0.324523
0.32523
0.325988
0.326797
0.327654
0.328555
0.3295
0.330494
0.331546
0.332668
0.333869
0.335153
0.336518
0.337963
0.339491
0.341118
0.342864
0.34491
0.347255
0.349708
0.352277
0.35497
0.357804
0.360798
0.363972
0.367349
0.370954
0.374813
0.378954
0.383413
0.388226
0.393436
0.399087
0.405229
0.411913
0.419194
0.427123
0.316002
0.316509
0.316915
0.317337
0.317779
0.318236
0.318705
0.31919
0.319692
0.320214
0.320761
0.321339
0.321955
0.322614
0.323323
0.324084
0.324898
0.325762
0.326673
0.327627
0.328628
0.329683
0.330803
0.331999
0.333279
0.334645
0.336094
0.337629
0.33926
0.341007
0.343049
0.345387
0.347832
0.350391
0.353076
0.355898
0.358876
0.362027
0.365374
0.368938
0.372743
0.376818
0.381191
0.385897
0.39097
0.396449
0.402373
0.408782
0.415716
0.423207
0.314067
0.31457
0.314972
0.31539
0.315831
0.316287
0.316759
0.317248
0.317755
0.318284
0.318838
0.319421
0.32004
0.320702
0.321411
0.322173
0.32299
0.323858
0.324776
0.325739
0.326746
0.327804
0.328922
0.330112
0.331385
0.332745
0.334193
0.335731
0.337365
0.339111
0.341148
0.343475
0.345906
0.348448
0.351115
0.353917
0.35687
0.359991
0.363297
0.366808
0.370547
0.374539
0.37881
0.383388
0.388304
0.393587
0.399267
0.405372
0.411928
0.418949
0.312132
0.312629
0.313025
0.313438
0.313876
0.314332
0.314806
0.315299
0.315812
0.316348
0.316909
0.317499
0.318123
0.318786
0.319497
0.320258
0.321074
0.321944
0.322865
0.323833
0.324846
0.325907
0.327024
0.328207
0.32947
0.330821
0.332263
0.333798
0.335432
0.337176
0.339205
0.341519
0.34393
0.34645
0.349091
0.351864
0.354784
0.357864
0.36112
0.364569
0.368231
0.372127
0.376281
0.380716
0.385456
0.390523
0.395938
0.401717
0.407872
0.414402
0.310197
0.310687
0.311076
0.311482
0.311917
0.312371
0.312846
0.313343
0.313863
0.314406
0.314974
0.315571
0.316201
0.316868
0.317578
0.318338
0.319151
0.320019
0.32094
0.321911
0.322928
0.323992
0.325107
0.326285
0.327537
0.328875
0.330306
0.331833
0.333461
0.335199
0.33722
0.339517
0.341906
0.344398
0.347007
0.349744
0.352622
0.355653
0.358849
0.362226
0.3658
0.36959
0.373616
0.377894
0.382444
0.38728
0.392413
0.397851
0.403591
0.409616
0.308261
0.308744
0.309125
0.309525
0.309955
0.310407
0.310883
0.311382
0.311907
0.312458
0.313034
0.313639
0.314275
0.314945
0.315657
0.316414
0.317223
0.318086
0.319004
0.319973
0.320991
0.322056
0.323171
0.324343
0.325584
0.326908
0.328323
0.329837
0.331454
0.333183
0.335191
0.33747
0.339834
0.342294
0.344866
0.34756
0.350388
0.353361
0.356489
0.359785
0.363263
0.366938
0.370825
0.374937
0.379285
0.383879
0.388721
0.393807
0.399124
0.404641
0.306326
0.306801
0.307174
0.307567
0.307992
0.308442
0.308916
0.309418
0.309948
0.310504
0.311089
0.311701
0.312343
0.313018
0.313731
0.314486
0.315289
0.316145
0.317056
0.31802
0.319035
0.320099
0.321212
0.32238
0.323611
0.32492
0.326318
0.327813
0.329414
0.331128
0.33312
0.335376
0.337712
0.340139
0.342669
0.345316
0.348088
0.350995
0.354048
0.357255
0.360628
0.36418
0.36792
0.371857
0.375997
0.380342
0.384886
0.389617
0.39451
0.399522
0.304391
0.304859
0.305224
0.305611
0.30603
0.306476
0.30695
0.307453
0.307985
0.308547
0.309138
0.309758
0.310406
0.311086
0.3118
0.312553
0.31335
0.314198
0.315099
0.316054
0.317063
0.318122
0.319232
0.320394
0.321617
0.322911
0.32429
0.325764
0.327344
0.329038
0.331007
0.333237
0.335542
0.337932
0.340419
0.343013
0.345724
0.348561
0.35153
0.354642
0.357904
0.361326
0.364913
0.36867
0.372596
0.376688
0.380933
0.385311
0.389786
0.394303
0.302456
0.302918
0.303276
0.303657
0.304071
0.304514
0.304985
0.305488
0.306022
0.306588
0.307183
0.307809
0.308463
0.309147
0.309863
0.310614
0.311406
0.312244
0.313133
0.314076
0.315074
0.316125
0.317229
0.318384
0.319598
0.320879
0.322239
0.323691
0.325247
0.326915
0.328857
0.331055
0.333325
0.335676
0.338116
0.340655
0.343301
0.346062
0.348944
0.351955
0.355101
0.358387
0.361817
0.365389
0.3691
0.372938
0.376887
0.380916
0.384983
0.389024
0.300523
0.30098
0.301332
0.301707
0.302117
0.302556
0.303024
0.303525
0.304059
0.304626
0.305225
0.305855
0.306513
0.307201
0.307918
0.308668
0.309454
0.310282
0.311159
0.312088
0.313071
0.314111
0.315204
0.316351
0.317555
0.318823
0.320166
0.321595
0.323124
0.324763
0.326672
0.328833
0.331064
0.333371
0.335762
0.338243
0.340821
0.343502
0.346294
0.3492
0.352226
0.355374
0.358644
0.36203
0.365525
0.369112
0.372768
0.376459
0.380134
0.383722
0.29859
0.299043
0.299392
0.299763
0.300169
0.300604
0.301069
0.301567
0.302099
0.302666
0.303265
0.303896
0.304557
0.305247
0.305965
0.306713
0.307494
0.308313
0.309177
0.31009
0.311057
0.31208
0.313159
0.314295
0.315487
0.316742
0.318067
0.319474
0.320976
0.322585
0.324456
0.326576
0.328763
0.331023
0.33336
0.335779
0.338287
0.340887
0.343585
0.346385
0.349289
0.352297
0.355405
0.358606
0.361886
0.365227
0.3686
0.371965
0.375266
0.378427
0.296658
0.29711
0.297456
0.297825
0.298228
0.298659
0.29912
0.299615
0.300144
0.300707
0.301304
0.301934
0.302594
0.303284
0.304002
0.304748
0.305525
0.306335
0.307186
0.308083
0.309031
0.310035
0.311097
0.312216
0.313395
0.314635
0.315943
0.317329
0.318803
0.32038
0.322213
0.324287
0.326426
0.328634
0.330914
0.333268
0.335702
0.338219
0.340823
0.343515
0.346296
0.349164
0.352112
0.355129
0.3582
0.361301
0.364401
0.367456
0.370406
0.373171
0.294728
0.295179
0.295525
0.295892
0.296293
0.296722
0.29718
0.297669
0.298193
0.298751
0.299343
0.299969
0.300626
0.301314
0.302029
0.302772
0.303544
0.304347
0.305185
0.306066
0.306996
0.307979
0.309019
0.310119
0.31128
0.312502
0.313792
0.315157
0.316605
0.31815
0.319943
0.321969
0.324057
0.326209
0.328428
0.330714
0.333072
0.335504
0.338012
0.340596
0.343255
0.345983
0.348773
0.351611
0.354478
0.357349
0.360189
0.362952
0.365574
0.367975
0.292797
0.293251
0.293598
0.293966
0.294366
0.294792
0.295246
0.295731
0.296248
0.296799
0.297384
0.298002
0.298653
0.299335
0.300046
0.300785
0.301551
0.302346
0.303173
0.304039
0.30495
0.305911
0.306928
0.308005
0.309144
0.310347
0.311616
0.312958
0.31438
0.315894
0.317646
0.319624
0.321659
0.323752
0.325906
0.328122
0.330402
0.332748
0.335159
0.337635
0.340172
0.342763
0.345398
0.348061
0.350732
0.353384
0.355979
0.358469
0.36079
0.36286
0.290868
0.291324
0.291674
0.292044
0.292444
0.292869
0.29332
0.293799
0.294309
0.294852
0.295427
0.296036
0.296677
0.297351
0.298054
0.298786
0.299545
0.300331
0.301148
0.302
0.302893
0.303832
0.304825
0.305877
0.306991
0.30817
0.309416
0.310734
0.312129
0.313611
0.315324
0.317253
0.319233
0.321266
0.323354
0.325497
0.327698
0.329955
0.33227
0.334638
0.337055
0.339511
0.341995
0.34449
0.346974
0.349418
0.351783
0.354021
0.356068
0.357842
0.288938
0.289399
0.289753
0.290126
0.290528
0.290952
0.291399
0.291873
0.292376
0.292908
0.293473
0.294069
0.294699
0.295361
0.296053
0.296775
0.297525
0.298303
0.29911
0.299948
0.300824
0.301743
0.302711
0.303736
0.304823
0.305974
0.307194
0.308484
0.309851
0.311302
0.312975
0.314855
0.316781
0.318753
0.320773
0.322843
0.324963
0.327132
0.32935
0.331611
0.333909
0.336234
0.338572
0.340906
0.343212
0.34546
0.347613
0.34962
0.351419
0.35293
0.287009
0.287475
0.287834
0.28821
0.288614
0.289038
0.289483
0.289951
0.290446
0.290969
0.291521
0.292104
0.292719
0.293366
0.294045
0.294755
0.295493
0.29626
0.297056
0.297882
0.298742
0.299641
0.300586
0.301584
0.302642
0.303763
0.304953
0.306213
0.307549
0.308966
0.3106
0.31243
0.314301
0.316213
0.318166
0.320162
0.322202
0.324283
0.326405
0.32856
0.330742
0.332939
0.335136
0.337316
0.339454
0.34152
0.343477
0.345274
0.346852
0.348132
0.285079
0.285551
0.285915
0.286295
0.286701
0.287125
0.287568
0.288032
0.288519
0.289031
0.28957
0.290139
0.290738
0.291369
0.292031
0.292725
0.29345
0.294204
0.294987
0.295799
0.296644
0.297525
0.298448
0.299421
0.300449
0.301539
0.302696
0.303923
0.305225
0.306607
0.308198
0.309979
0.311796
0.313646
0.315533
0.317457
0.319417
0.321412
0.323439
0.325491
0.327559
0.329632
0.331695
0.333728
0.335708
0.337605
0.339381
0.340989
0.342371
0.343452
0.283149
0.283625
0.283995
0.284379
0.284788
0.285212
0.285653
0.286112
0.286592
0.287094
0.28762
0.288174
0.288756
0.289369
0.290013
0.290689
0.291396
0.292135
0.292903
0.293702
0.294531
0.295395
0.296297
0.297245
0.298245
0.299303
0.300425
0.301617
0.302882
0.304226
0.305774
0.307503
0.309264
0.311055
0.312876
0.314729
0.316611
0.318522
0.320456
0.322407
0.324365
0.326318
0.328252
0.330147
0.33198
0.333721
0.335333
0.336771
0.33798
0.338891
0.281218
0.281698
0.282072
0.282461
0.282871
0.283296
0.283735
0.28419
0.284662
0.285155
0.285669
0.286208
0.286773
0.287366
0.28799
0.288646
0.289334
0.290055
0.290806
0.291589
0.292402
0.293248
0.294131
0.295056
0.296028
0.297055
0.298143
0.299298
0.300524
0.301827
0.303328
0.305005
0.306709
0.30844
0.310196
0.311979
0.313786
0.315613
0.317457
0.31931
0.321163
0.323003
0.324814
0.32658
0.328275
0.329872