/*--------------------------------*- C++ -*----------------------------------*\
  =========                 |
  \\      /  F ield         | OpenFOAM: The Open Source CFD Toolbox
   \\    /   O peration     | Website:  https://openfoam.org
    \\  /    A nd           | Version:  9
     \\/     M anipulation  |
\*---------------------------------------------------------------------------*/
FoamFile
{
    format      ascii;
    class       surfaceScalarField;
    location    "0.02";
    object      phi;
}
// * * * * * * * * * * * * * * * * * * * * * * * * * * * * * * * * * * * * * //

dimensions      [0 3 -1 0 0 0 0];

internalField   nonuniform List<scalar> 
9850
(
6.76679e-07
1.12338e-06
6.76619e-07
1.17772e-06
6.76534e-07
1.23496e-06
6.76425e-07
1.29509e-06
6.76291e-07
1.35821e-06
6.76128e-07
1.42443e-06
6.75934e-07
1.4939e-06
6.75703e-07
1.56676e-06
6.75431e-07
1.64318e-06
6.75112e-07
1.72331e-06
6.74742e-07
1.80733e-06
6.74312e-07
1.89543e-06
6.73817e-07
1.98781e-06
6.73248e-07
2.08467e-06
6.72596e-07
2.18623e-06
6.71852e-07
2.29271e-06
6.71006e-07
2.40436e-06
6.70044e-07
2.52143e-06
6.68953e-07
2.64418e-06
6.6772e-07
2.77288e-06
6.66325e-07
2.90784e-06
6.64752e-07
3.04935e-06
6.62977e-07
3.19774e-06
6.60977e-07
3.35336e-06
6.58725e-07
3.51655e-06
6.56189e-07
3.68771e-06
6.53334e-07
3.86724e-06
6.5012e-07
4.05558e-06
6.46501e-07
4.25319e-06
6.42424e-07
4.46058e-06
6.37028e-07
5.45803e-06
6.31168e-07
5.45768e-06
6.24822e-07
5.45794e-06
6.17964e-07
5.45886e-06
6.10565e-07
5.46052e-06
6.02594e-07
5.46302e-06
5.94013e-07
5.46649e-06
5.84781e-07
5.47106e-06
5.74848e-07
5.4769e-06
5.64157e-07
5.4842e-06
5.52645e-07
5.49316e-06
5.40239e-07
5.50403e-06
5.26857e-07
5.51712e-06
5.12407e-07
5.53274e-06
4.96786e-07
5.55132e-06
4.79876e-07
5.57331e-06
4.61551e-07
5.59928e-06
4.41682e-07
5.6299e-06
4.20148e-07
5.66596e-06
5.70847e-06
6.76234e-07
1.1234e-06
6.76176e-07
1.17778e-06
6.76094e-07
1.23504e-06
6.75989e-07
1.2952e-06
6.75859e-07
1.35834e-06
6.75702e-07
1.42459e-06
6.75514e-07
1.49409e-06
6.75292e-07
1.56699e-06
6.75029e-07
1.64344e-06
6.74722e-07
1.72361e-06
6.74363e-07
1.80769e-06
6.73948e-07
1.89585e-06
6.73468e-07
1.98829e-06
6.72916e-07
2.08522e-06
6.72284e-07
2.18686e-06
6.71561e-07
2.29344e-06
6.70739e-07
2.40519e-06
6.69804e-07
2.52237e-06
6.68744e-07
2.64524e-06
6.67544e-07
2.77408e-06
6.66189e-07
2.9092e-06
6.6466e-07
3.05088e-06
6.62936e-07
3.19947e-06
6.60994e-07
3.3553e-06
6.58809e-07
3.51874e-06
6.5635e-07
3.69017e-06
6.53585e-07
3.87001e-06
6.50475e-07
4.05869e-06
6.46978e-07
4.25668e-06
6.43044e-07
4.46451e-06
6.37846e-07
5.46322e-06
6.32215e-07
5.46331e-06
6.26133e-07
5.46402e-06
6.19578e-07
5.46541e-06
6.12529e-07
5.46757e-06
6.0496e-07
5.47059e-06
5.96841e-07
5.47461e-06
5.88141e-07
5.47976e-06
5.78819e-07
5.48622e-06
5.68835e-07
5.49418e-06
5.58138e-07
5.50385e-06
5.46677e-07
5.51549e-06
5.3439e-07
5.5294e-06
5.21211e-07
5.54592e-06
5.0707e-07
5.56546e-06
4.91892e-07
5.58849e-06
4.75607e-07
5.61557e-06
4.58149e-07
5.64736e-06
4.39466e-07
5.68464e-06
5.72839e-06
6.75834e-07
1.12343e-06
6.75778e-07
1.17784e-06
6.75698e-07
1.23512e-06
6.75596e-07
1.2953e-06
6.7547e-07
1.35847e-06
6.75318e-07
1.42474e-06
6.75137e-07
1.49427e-06
6.74922e-07
1.5672e-06
6.74669e-07
1.64369e-06
6.74372e-07
1.72391e-06
6.74026e-07
1.80803e-06
6.73624e-07
1.89625e-06
6.7316e-07
1.98875e-06
6.72627e-07
2.08576e-06
6.72015e-07
2.18747e-06
6.71315e-07
2.29414e-06
6.70518e-07
2.40598e-06
6.69612e-07
2.52327e-06
6.68584e-07
2.64627e-06
6.6742e-07
2.77525e-06
6.66106e-07
2.91051e-06
6.64622e-07
3.05236e-06
6.62951e-07
3.20114e-06
6.61069e-07
3.35718e-06
6.58952e-07
3.52085e-06
6.56574e-07
3.69255e-06
6.53902e-07
3.87268e-06
6.50901e-07
4.06169e-06
6.47531e-07
4.26005e-06
6.43747e-07
4.4683e-06
6.38759e-07
5.46821e-06
6.33367e-07
5.4687e-06
6.27558e-07
5.46983e-06
6.21317e-07
5.47165e-06
6.14629e-07
5.47425e-06
6.07477e-07
5.47774e-06
5.99838e-07
5.48225e-06
5.9169e-07
5.48791e-06
5.83004e-07
5.49491e-06
5.73751e-07
5.50343e-06
5.63899e-07
5.5137e-06
5.53413e-07
5.52598e-06
5.42255e-07
5.54056e-06
5.30386e-07
5.55779e-06
5.17766e-07
5.57808e-06
5.04361e-07
5.60189e-06
4.90147e-07
5.62978e-06
4.75118e-07
5.66238e-06
4.59293e-07
5.70047e-06
5.74492e-06
6.75485e-07
1.12346e-06
6.75429e-07
1.17789e-06
6.75351e-07
1.2352e-06
6.75251e-07
1.2954e-06
6.75129e-07
1.35859e-06
6.74982e-07
1.42489e-06
6.74806e-07
1.49445e-06
6.74598e-07
1.56741e-06
6.74353e-07
1.64394e-06
6.74066e-07
1.7242e-06
6.73732e-07
1.80837e-06
6.73344e-07
1.89664e-06
6.72896e-07
1.9892e-06
6.7238e-07
2.08627e-06
6.71788e-07
2.18806e-06
6.71111e-07
2.29481e-06
6.7034e-07
2.40676e-06
6.69463e-07
2.52415e-06
6.68468e-07
2.64726e-06
6.67342e-07
2.77637e-06
6.66069e-07
2.91178e-06
6.64634e-07
3.0538e-06
6.63017e-07
3.20276e-06
6.61198e-07
3.359e-06
6.59153e-07
3.5229e-06
6.56858e-07
3.69484e-06
6.54282e-07
3.87526e-06
6.51392e-07
4.06458e-06
6.48154e-07
4.26329e-06
6.44523e-07
4.47193e-06
6.3975e-07
5.47299e-06
6.34604e-07
5.47385e-06
6.29078e-07
5.47536e-06
6.23163e-07
5.47757e-06
6.16848e-07
5.48057e-06
6.10124e-07
5.48447e-06
6.02977e-07
5.48939e-06
5.95395e-07
5.49549e-06
5.87361e-07
5.50294e-06
5.78858e-07
5.51194e-06
5.69872e-07
5.52269e-06
5.60383e-07
5.53547e-06
5.50377e-07
5.55057e-06
5.39839e-07
5.56833e-06
5.28761e-07
5.58916e-06
5.17145e-07
5.61351e-06
5.0501e-07
5.64192e-06
4.924e-07
5.67499e-06
4.79407e-07
5.71346e-06
5.75814e-06
6.75189e-07
1.12348e-06
6.75134e-07
1.17795e-06
6.75057e-07
1.23528e-06
6.74959e-07
1.2955e-06
6.7484e-07
1.35871e-06
6.74696e-07
1.42503e-06
6.74525e-07
1.49462e-06
6.74323e-07
1.56761e-06
6.74086e-07
1.64417e-06
6.73808e-07
1.72447e-06
6.73485e-07
1.80869e-06
6.7311e-07
1.89701e-06
6.72677e-07
1.98963e-06
6.72178e-07
2.08677e-06
6.71606e-07
2.18864e-06
6.70952e-07
2.29547e-06
6.70206e-07
2.4075e-06
6.69358e-07
2.525e-06
6.68396e-07
2.64822e-06
6.67308e-07
2.77746e-06
6.66078e-07
2.91301e-06
6.64692e-07
3.05519e-06
6.63132e-07
3.20432e-06
6.61377e-07
3.36075e-06
6.59407e-07
3.52487e-06
6.57197e-07
3.69705e-06
6.54719e-07
3.87773e-06
6.51945e-07
4.06735e-06
6.4884e-07
4.2664e-06
6.45366e-07
4.4754e-06
6.40811e-07
5.47754e-06
6.35916e-07
5.47875e-06
6.30679e-07
5.4806e-06
6.25095e-07
5.48315e-06
6.19162e-07
5.4865e-06
6.12875e-07
5.49075e-06
6.06231e-07
5.49604e-06
5.99224e-07
5.5025e-06
5.91852e-07
5.51032e-06
5.84111e-07
5.51968e-06
5.76001e-07
5.5308e-06
5.67522e-07
5.54395e-06
5.58678e-07
5.55941e-06
5.49478e-07
5.57753e-06
5.39945e-07
5.59869e-06
5.30112e-07
5.62334e-06
5.20041e-07
5.65199e-06
5.09819e-07
5.68522e-06
4.9959e-07
5.72369e-06
5.76816e-06
6.74951e-07
1.12351e-06
6.74896e-07
1.178e-06
6.7482e-07
1.23535e-06
6.74723e-07
1.29559e-06
6.74606e-07
1.35883e-06
6.74465e-07
1.42518e-06
6.74298e-07
1.49479e-06
6.74101e-07
1.56781e-06
6.73871e-07
1.64441e-06
6.73601e-07
1.72474e-06
6.73288e-07
1.809e-06
6.72925e-07
1.89737e-06
6.72506e-07
1.99005e-06
6.72024e-07
2.08725e-06
6.71471e-07
2.18919e-06
6.70838e-07
2.2961e-06
6.70118e-07
2.40822e-06
6.69299e-07
2.52582e-06
6.68371e-07
2.64915e-06
6.6732e-07
2.77851e-06
6.66134e-07
2.9142e-06
6.64797e-07
3.05652e-06
6.63293e-07
3.20582e-06
6.61604e-07
3.36244e-06
6.59709e-07
3.52676e-06
6.57585e-07
3.69918e-06
6.55208e-07
3.88011e-06
6.52551e-07
4.07001e-06
6.49582e-07
4.26937e-06
6.46268e-07
4.47872e-06
6.41933e-07
5.48188e-06
6.37293e-07
5.48339e-06
6.32347e-07
5.48554e-06
6.271e-07
5.4884e-06
6.21552e-07
5.49205e-06
6.15707e-07
5.4966e-06
6.0957e-07
5.50217e-06
6.03145e-07
5.50893e-06
5.9644e-07
5.51702e-06
5.89465e-07
5.52665e-06
5.82235e-07
5.53803e-06
5.74767e-07
5.55142e-06
5.67083e-07
5.56709e-06
5.59218e-07
5.58539e-06
5.51218e-07
5.60669e-06
5.43149e-07
5.63141e-06
5.35101e-07
5.66004e-06
5.27204e-07
5.69311e-06
5.19641e-07
5.73125e-06
5.77514e-06
6.74776e-07
1.12353e-06
6.74721e-07
1.17806e-06
6.74645e-07
1.23543e-06
6.74549e-07
1.29569e-06
6.74433e-07
1.35894e-06
6.74294e-07
1.42531e-06
6.7413e-07
1.49495e-06
6.73937e-07
1.568e-06
6.73712e-07
1.64463e-06
6.7345e-07
1.72501e-06
6.73145e-07
1.80931e-06
6.72793e-07
1.89773e-06
6.72387e-07
1.99046e-06
6.71921e-07
2.08772e-06
6.71386e-07
2.18972e-06
6.70775e-07
2.29671e-06
6.70079e-07
2.40892e-06
6.69289e-07
2.52661e-06
6.68393e-07
2.65005e-06
6.6738e-07
2.77953e-06
6.66237e-07
2.91534e-06
6.6495e-07
3.05781e-06
6.63503e-07
3.20727e-06
6.61878e-07
3.36407e-06
6.60058e-07
3.52858e-06
6.58022e-07
3.70122e-06
6.55746e-07
3.88239e-06
6.53205e-07
4.07255e-06
6.50373e-07
4.2722e-06
6.4722e-07
4.48187e-06
6.43108e-07
5.48599e-06
6.38724e-07
5.48777e-06
6.34072e-07
5.49019e-06
6.29161e-07
5.49331e-06
6.23999e-07
5.49721e-06
6.18597e-07
5.502e-06
6.12967e-07
5.5078e-06
6.07123e-07
5.51477e-06
6.01085e-07
5.52306e-06
5.94875e-07
5.53286e-06
5.8852e-07
5.54439e-06
5.82056e-07
5.55788e-06
5.75522e-07
5.57363e-06
5.68975e-07
5.59194e-06
5.62484e-07
5.61318e-06
5.56139e-07
5.63775e-06
5.5006e-07
5.66611e-06
5.44406e-07
5.69877e-06
5.39392e-07
5.73627e-06
5.77923e-06
6.74669e-07
1.12356e-06
6.74614e-07
1.17811e-06
6.74537e-07
1.23551e-06
6.74441e-07
1.29579e-06
6.74324e-07
1.35906e-06
6.74187e-07
1.42545e-06
6.74025e-07
1.49511e-06
6.73835e-07
1.56819e-06
6.73615e-07
1.64485e-06
6.73358e-07
1.72526e-06
6.73062e-07
1.8096e-06
6.72719e-07
1.89807e-06
6.72325e-07
1.99085e-06
6.71873e-07
2.08817e-06
6.71356e-07
2.19024e-06
6.70765e-07
2.2973e-06
6.70093e-07
2.40959e-06
6.6933e-07
2.52737e-06
6.68466e-07
2.65091e-06
6.6749e-07
2.7805e-06
6.66389e-07
2.91644e-06
6.65151e-07
3.05905e-06
6.6376e-07
3.20866e-06
6.62201e-07
3.36563e-06
6.60455e-07
3.53033e-06
6.58505e-07
3.70317e-06
6.5633e-07
3.88456e-06
6.53906e-07
4.07497e-06
6.51211e-07
4.27489e-06
6.48218e-07
4.48486e-06
6.44329e-07
5.48988e-06
6.40199e-07
5.4919e-06
6.3584e-07
5.49455e-06
6.31264e-07
5.49789e-06
6.26487e-07
5.50199e-06
6.21524e-07
5.50696e-06
6.16397e-07
5.51293e-06
6.11129e-07
5.52004e-06
6.05751e-07
5.52844e-06
6.00296e-07
5.53832e-06
5.94806e-07
5.54988e-06
5.89329e-07
5.56336e-06
5.83926e-07
5.57903e-06
5.78668e-07
5.5972e-06
5.73649e-07
5.6182e-06
5.68979e-07
5.64242e-06
5.648e-07
5.67029e-06
5.61295e-07
5.70227e-06
5.58699e-07
5.73886e-06
5.78062e-06
6.74632e-07
1.12359e-06
6.74576e-07
1.17817e-06
6.74499e-07
1.23559e-06
6.74402e-07
1.29588e-06
6.74285e-07
1.35917e-06
6.74148e-07
1.42559e-06
6.73987e-07
1.49527e-06
6.738e-07
1.56838e-06
6.73583e-07
1.64507e-06
6.73332e-07
1.72551e-06
6.73042e-07
1.80989e-06
6.72708e-07
1.8984e-06
6.72325e-07
1.99124e-06
6.71886e-07
2.08861e-06
6.71384e-07
2.19074e-06
6.70813e-07
2.29787e-06
6.70163e-07
2.41024e-06
6.69427e-07
2.52811e-06
6.68593e-07
2.65175e-06
6.67653e-07
2.78144e-06
6.66593e-07
2.9175e-06
6.65403e-07
3.06024e-06
6.64067e-07
3.20999e-06
6.62572e-07
3.36712e-06
6.609e-07
3.532e-06
6.59036e-07
3.70503e-06
6.56959e-07
3.88664e-06
6.54652e-07
4.07728e-06
6.52091e-07
4.27745e-06
6.49257e-07
4.4877e-06
6.45588e-07
5.49355e-06
6.41711e-07
5.49578e-06
6.37641e-07
5.49862e-06
6.33396e-07
5.50213e-06
6.28996e-07
5.50639e-06
6.24466e-07
5.51149e-06
6.19835e-07
5.51756e-06
6.15133e-07
5.52474e-06
6.10402e-07
5.53317e-06
6.05687e-07
5.54303e-06
6.01042e-07
5.55452e-06
5.9653e-07
5.56787e-06
5.92227e-07
5.58333e-06
5.88223e-07
5.6012e-06
5.84627e-07
5.6218e-06
5.8157e-07
5.64548e-06
5.79212e-07
5.67265e-06
5.77752e-07
5.70373e-06
5.77437e-07
5.73918e-06
5.77948e-06
6.74669e-07
1.12361e-06
6.74612e-07
1.17823e-06
6.74533e-07
1.23566e-06
6.74436e-07
1.29598e-06
6.74318e-07
1.35929e-06
6.74181e-07
1.42573e-06
6.7402e-07
1.49543e-06
6.73835e-07
1.56856e-06
6.7362e-07
1.64528e-06
6.73373e-07
1.72576e-06
6.73089e-07
1.81018e-06
6.72763e-07
1.89873e-06
6.72389e-07
1.99161e-06
6.71962e-07
2.08904e-06
6.71476e-07
2.19123e-06
6.70922e-07
2.29842e-06
6.70294e-07
2.41087e-06
6.69582e-07
2.52882e-06
6.68778e-07
2.65255e-06
6.67872e-07
2.78235e-06
6.66852e-07
2.91852e-06
6.65708e-07
3.06138e-06
6.64426e-07
3.21128e-06
6.62992e-07
3.36856e-06
6.61393e-07
3.5336e-06
6.59612e-07
3.70681e-06
6.57633e-07
3.88862e-06
6.55439e-07
4.07947e-06
6.53012e-07
4.27988e-06
6.50333e-07
4.49038e-06
6.4688e-07
5.497e-06
6.4325e-07
5.49941e-06
6.39463e-07
5.50241e-06
6.35541e-07
5.50605e-06
6.31512e-07
5.51042e-06
6.27405e-07
5.5156e-06
6.23255e-07
5.52171e-06
6.19106e-07
5.52889e-06
6.15004e-07
5.53727e-06
6.11008e-07
5.54703e-06
6.07183e-07
5.55835e-06
6.03605e-07
5.57145e-06
6.00364e-07
5.58658e-06
5.97567e-07
5.604e-06
5.95339e-07
5.62403e-06
5.93826e-07
5.647e-06
5.93203e-07
5.67327e-06
5.93679e-07
5.70326e-06
5.95505e-07
5.73735e-06
5.776e-06
6.74781e-07
1.12364e-06
6.74723e-07
1.17829e-06
6.74643e-07
1.23574e-06
6.74544e-07
1.29608e-06
6.74426e-07
1.35941e-06
6.74288e-07
1.42587e-06
6.74128e-07
1.49559e-06
6.73943e-07
1.56875e-06
6.7373e-07
1.64549e-06
6.73486e-07
1.726e-06
6.73207e-07
1.81046e-06
6.72887e-07
1.89905e-06
6.72522e-07
1.99198e-06
6.72106e-07
2.08945e-06
6.71633e-07
2.1917e-06
6.71096e-07
2.29896e-06
6.70487e-07
2.41148e-06
6.69799e-07
2.52951e-06
6.69023e-07
2.65333e-06
6.6815e-07
2.78322e-06
6.67168e-07
2.9195e-06
6.66068e-07
3.06248e-06
6.64838e-07
3.21251e-06
6.63465e-07
3.36993e-06
6.61935e-07
3.53513e-06
6.60236e-07
3.70851e-06
6.58352e-07
3.8905e-06
6.56268e-07
4.08156e-06
6.53969e-07
4.28218e-06
6.51441e-07
4.4929e-06
6.48198e-07
5.50024e-06
6.44808e-07
5.5028e-06
6.41296e-07
5.50592e-06
6.37688e-07
5.50966e-06
6.34017e-07
5.51409e-06
6.30319e-07
5.5193e-06
6.26636e-07
5.5254e-06
6.23018e-07
5.53251e-06
6.19524e-07
5.54077e-06
6.16219e-07
5.55033e-06
6.13182e-07
5.56138e-06
6.10499e-07
5.57413e-06
6.08277e-07
5.5888e-06
6.06635e-07
5.60564e-06
6.0571e-07
5.62495e-06
6.05665e-07
5.64704e-06
6.06685e-07
5.67225e-06
6.08985e-07
5.70096e-06
6.12816e-07
5.73352e-06
5.77035e-06
6.7497e-07
1.12367e-06
6.74911e-07
1.17834e-06
6.7483e-07
1.23583e-06
6.74729e-07
1.29618e-06
6.7461e-07
1.35953e-06
6.74471e-07
1.426e-06
6.7431e-07
1.49575e-06
6.74126e-07
1.56893e-06
6.73915e-07
1.64571e-06
6.73674e-07
1.72625e-06
6.73398e-07
1.81073e-06
6.73084e-07
1.89936e-06
6.72727e-07
1.99233e-06
6.7232e-07
2.08986e-06
6.71859e-07
2.19216e-06
6.71337e-07
2.29948e-06
6.70747e-07
2.41207e-06
6.70081e-07
2.53017e-06
6.69331e-07
2.65408e-06
6.68489e-07
2.78407e-06
6.67544e-07
2.92045e-06
6.66486e-07
3.06354e-06
6.65305e-07
3.21369e-06
6.6399e-07
3.37124e-06
6.62528e-07
3.53659e-06
6.60906e-07
3.71013e-06
6.59113e-07
3.89229e-06
6.57135e-07
4.08354e-06
6.54961e-07
4.28435e-06
6.52579e-07
4.49529e-06
6.49538e-07
5.50328e-06
6.46379e-07
5.50596e-06
6.43131e-07
5.50917e-06
6.39825e-07
5.51297e-06
6.36497e-07
5.51742e-06
6.3319e-07
5.5226e-06
6.29953e-07
5.52863e-06
6.26844e-07
5.53561e-06
6.23929e-07
5.54368e-06
6.21284e-07
5.55298e-06
6.18996e-07
5.56367e-06
6.17166e-07
5.57596e-06
6.1591e-07
5.59005e-06
6.15363e-07
5.60619e-06
6.15673e-07
5.62464e-06
6.17014e-07
5.6457e-06
6.19582e-07
5.66969e-06
6.23596e-07
5.69694e-06
6.29301e-07
5.72782e-06
5.76268e-06
6.75235e-07
1.1237e-06
6.75175e-07
1.17841e-06
6.75093e-07
1.23591e-06
6.74991e-07
1.29628e-06
6.7487e-07
1.35965e-06
6.7473e-07
1.42614e-06
6.74569e-07
1.49591e-06
6.74385e-07
1.56912e-06
6.74175e-07
1.64592e-06
6.73936e-07
1.72648e-06
6.73664e-07
1.81101e-06
6.73355e-07
1.89967e-06
6.73004e-07
1.99268e-06
6.72606e-07
2.09026e-06
6.72157e-07
2.19261e-06
6.71648e-07
2.29999e-06
6.71075e-07
2.41264e-06
6.7043e-07
2.53082e-06
6.69704e-07
2.6548e-06
6.68891e-07
2.78488e-06
6.6798e-07
2.92136e-06
6.66963e-07
3.06456e-06
6.65829e-07
3.21482e-06
6.64568e-07
3.37251e-06
6.6317e-07
3.53799e-06
6.61623e-07
3.71168e-06
6.59917e-07
3.894e-06
6.58041e-07
4.08541e-06
6.55985e-07
4.28641e-06
6.53742e-07
4.49753e-06
6.50894e-07
5.50613e-06
6.47955e-07
5.50889e-06
6.44958e-07
5.51217e-06
6.41938e-07
5.51599e-06
6.38936e-07
5.52042e-06
6.36e-07
5.52554e-06
6.33186e-07
5.53145e-06
6.30558e-07
5.53824e-06
6.28189e-07
5.54605e-06
6.26166e-07
5.555e-06
6.24584e-07
5.56525e-06
6.23557e-07
5.57699e-06
6.23211e-07
5.5904e-06
6.23692e-07
5.60571e-06
6.25162e-07
5.62317e-06
6.27805e-07
5.64306e-06
6.31824e-07
5.66567e-06
6.37443e-07
5.69132e-06
6.449e-07
5.72036e-06
5.75313e-06
6.75577e-07
1.12373e-06
6.75516e-07
1.17847e-06
6.75432e-07
1.23599e-06
6.75329e-07
1.29639e-06
6.75207e-07
1.35977e-06
6.75067e-07
1.42628e-06
6.74905e-07
1.49608e-06
6.74721e-07
1.5693e-06
6.74512e-07
1.64613e-06
6.74274e-07
1.72672e-06
6.74005e-07
1.81127e-06
6.737e-07
1.89998e-06
6.73355e-07
1.99303e-06
6.72966e-07
2.09065e-06
6.72526e-07
2.19305e-06
6.7203e-07
2.30049e-06
6.71472e-07
2.4132e-06
6.70846e-07
2.53144e-06
6.70143e-07
2.6555e-06
6.69357e-07
2.78567e-06
6.68478e-07
2.92224e-06
6.67499e-07
3.06554e-06
6.66409e-07
3.21591e-06
6.65201e-07
3.37371e-06
6.63863e-07
3.53933e-06
6.62387e-07
3.71315e-06
6.60762e-07
3.89562e-06
6.58982e-07
4.08719e-06
6.57038e-07
4.28835e-06
6.54927e-07
4.49964e-06
6.5226e-07
5.5088e-06
6.49529e-07
5.51162e-06
6.46768e-07
5.51493e-06
6.44017e-07
5.51874e-06
6.41321e-07
5.52311e-06
6.38732e-07
5.52813e-06
6.36313e-07
5.53387e-06
6.34134e-07
5.54042e-06
6.32276e-07
5.54791e-06
6.30833e-07
5.55644e-06
6.29909e-07
5.56618e-06
6.29629e-07
5.57727e-06
6.3013e-07
5.5899e-06
6.31569e-07
5.60427e-06
6.34119e-07
5.62062e-06
6.37974e-07
5.6392e-06
6.43347e-07
5.66029e-06
6.50464e-07
5.68421e-06
6.5956e-07
5.71126e-06
5.74181e-06
6.75994e-07
1.12376e-06
6.75932e-07
1.17853e-06
6.75847e-07
1.23608e-06
6.75743e-07
1.29649e-06
6.7562e-07
1.35989e-06
6.75479e-07
1.42643e-06
6.75317e-07
1.49624e-06
6.75133e-07
1.56949e-06
6.74924e-07
1.64633e-06
6.74688e-07
1.72696e-06
6.74421e-07
1.81154e-06
6.7412e-07
1.90028e-06
6.73781e-07
1.99337e-06
6.73398e-07
2.09103e-06
6.72967e-07
2.19348e-06
6.72483e-07
2.30097e-06
6.7194e-07
2.41374e-06
6.71331e-07
2.53205e-06
6.70649e-07
2.65618e-06
6.69888e-07
2.78643e-06
6.69039e-07
2.92309e-06
6.68095e-07
3.06648e-06
6.67047e-07
3.21696e-06
6.65886e-07
3.37487e-06
6.64605e-07
3.54061e-06
6.63195e-07
3.71457e-06
6.61647e-07
3.89717e-06
6.59956e-07
4.08888e-06
6.58117e-07
4.29019e-06
6.56128e-07
4.50163e-06
6.53631e-07
5.5113e-06
6.51093e-07
5.51416e-06
6.48552e-07
5.51747e-06
6.4605e-07
5.52124e-06
6.43637e-07
5.52553e-06
6.4137e-07
5.5304e-06
6.39315e-07
5.53592e-06
6.3755e-07
5.54219e-06
6.36162e-07
5.54929e-06
6.35252e-07
5.55735e-06
6.34935e-07
5.56649e-06
6.35341e-07
5.57686e-06
6.36621e-07
5.58862e-06
6.38941e-07
5.60195e-06
6.42487e-07
5.61707e-06
6.47462e-07
5.63423e-06
6.54089e-07
5.65367e-06
6.626e-07
5.67569e-06
6.7323e-07
5.70063e-06
5.72883e-06
6.76485e-07
1.12379e-06
6.76422e-07
1.17859e-06
6.76337e-07
1.23616e-06
6.76232e-07
1.29659e-06
6.76108e-07
1.36002e-06
6.75965e-07
1.42657e-06
6.75803e-07
1.4964e-06
6.75619e-07
1.56967e-06
6.75411e-07
1.64654e-06
6.75176e-07
1.72719e-06
6.74912e-07
1.81181e-06
6.74614e-07
1.90057e-06
6.74279e-07
1.9937e-06
6.73903e-07
2.09141e-06
6.73481e-07
2.19391e-06
6.73007e-07
2.30145e-06
6.72477e-07
2.41427e-06
6.71884e-07
2.53265e-06
6.71221e-07
2.65685e-06
6.70483e-07
2.78717e-06
6.69662e-07
2.92391e-06
6.6875e-07
3.06739e-06
6.6774e-07
3.21797e-06
6.66624e-07
3.37599e-06
6.65395e-07
3.54184e-06
6.64046e-07
3.71591e-06
6.62569e-07
3.89865e-06
6.60961e-07
4.09049e-06
6.59219e-07
4.29193e-06
6.57343e-07
4.50351e-06
6.55001e-07
5.51364e-06
6.52641e-07
5.51652e-06
6.50301e-07
5.51981e-06
6.48027e-07
5.52352e-06
6.45872e-07
5.52768e-06
6.43898e-07
5.53237e-06
6.42175e-07
5.53764e-06
6.40785e-07
5.54358e-06
6.39823e-07
5.55026e-06
6.39396e-07
5.55778e-06
6.39626e-07
5.56626e-06
6.40655e-07
5.57583e-06
6.4264e-07
5.58663e-06
6.4576e-07
5.59883e-06
6.50212e-07
5.61262e-06
6.56212e-07
5.62823e-06
6.63991e-07
5.64589e-06
6.73792e-07
5.66589e-06
6.85856e-07
5.68857e-06
5.71427e-06
6.77048e-07
1.12382e-06
6.76985e-07
1.17865e-06
6.76899e-07
1.23625e-06
6.76793e-07
1.2967e-06
6.76669e-07
1.36014e-06
6.76525e-07
1.42671e-06
6.76363e-07
1.49656e-06
6.76179e-07
1.56985e-06
6.75971e-07
1.64675e-06
6.75738e-07
1.72743e-06
6.75475e-07
1.81207e-06
6.75181e-07
1.90087e-06
6.7485e-07
1.99403e-06
6.7448e-07
2.09178e-06
6.74065e-07
2.19432e-06
6.73601e-07
2.30191e-06
6.73083e-07
2.41479e-06
6.72504e-07
2.53323e-06
6.71859e-07
2.65749e-06
6.71142e-07
2.78788e-06
6.70346e-07
2.9247e-06
6.69464e-07
3.06828e-06
6.68489e-07
3.21894e-06
6.67414e-07
3.37707e-06
6.66232e-07
3.54302e-06
6.64938e-07
3.71721e-06
6.63526e-07
3.90006e-06
6.61994e-07
4.09202e-06
6.60339e-07
4.29359e-06
6.58565e-07
4.50528e-06
6.56365e-07
5.51584e-06
6.54165e-07
5.51872e-06
6.52006e-07
5.52197e-06
6.49938e-07
5.52558e-06
6.48015e-07
5.52961e-06
6.46302e-07
5.53408e-06
6.44875e-07
5.53907e-06
6.43819e-07
5.54463e-06
6.43235e-07
5.55084e-06
6.43237e-07
5.55778e-06
6.43954e-07
5.56555e-06
6.45535e-07
5.57425e-06
6.48148e-07
5.58402e-06
6.51982e-07
5.595e-06
6.57245e-07
5.60736e-06
6.64167e-07
5.62131e-06
6.72993e-07
5.63706e-06
6.83978e-07
5.65491e-06
6.97379e-07
5.67517e-06
5.69821e-06
6.77682e-07
1.12385e-06
6.77619e-07
1.17872e-06
6.77532e-07
1.23633e-06
6.77425e-07
1.29681e-06
6.773e-07
1.36027e-06
6.77157e-07
1.42686e-06
6.76994e-07
1.49673e-06
6.7681e-07
1.57004e-06
6.76603e-07
1.64696e-06
6.76371e-07
1.72766e-06
6.7611e-07
1.81233e-06
6.75819e-07
1.90116e-06
6.75492e-07
1.99436e-06
6.75127e-07
2.09214e-06
6.7472e-07
2.19473e-06
6.74264e-07
2.30237e-06
6.73756e-07
2.4153e-06
6.73191e-07
2.53379e-06
6.72562e-07
2.65812e-06
6.71864e-07
2.78858e-06
6.7109e-07
2.92548e-06
6.70234e-07
3.06913e-06
6.6929e-07
3.21989e-06
6.68252e-07
3.3781e-06
6.67113e-07
3.54416e-06
6.65869e-07
3.71845e-06
6.64516e-07
3.90141e-06
6.63051e-07
4.09349e-06
6.61475e-07
4.29517e-06
6.59793e-07
4.50696e-06
6.57718e-07
5.51791e-06
6.5566e-07
5.52078e-06
6.53662e-07
5.52397e-06
6.51774e-07
5.52747e-06
6.50054e-07
5.53133e-06
6.4857e-07
5.53557e-06
6.474e-07
5.54024e-06
6.46635e-07
5.5454e-06
6.46379e-07
5.5511e-06
6.46752e-07
5.55741e-06
6.4789e-07
5.56441e-06
6.4995e-07
5.57219e-06
6.53108e-07
5.58086e-06
6.57562e-07
5.59054e-06
6.63537e-07
5.60139e-06
6.71274e-07
5.61357e-06
6.81035e-07
5.6273e-06
6.93094e-07
5.64285e-06
7.07729e-07
5.66053e-06
5.68073e-06
6.78385e-07
1.12388e-06
6.78321e-07
1.17878e-06
6.78234e-07
1.23642e-06
6.78127e-07
1.29691e-06
6.78002e-07
1.36039e-06
6.77858e-07
1.427e-06
6.77695e-07
1.49689e-06
6.77511e-07
1.57022e-06
6.77305e-07
1.64716e-06
6.77074e-07
1.72789e-06
6.76815e-07
1.81259e-06
6.76526e-07
1.90145e-06
6.76204e-07
1.99468e-06
6.75843e-07
2.0925e-06
6.75442e-07
2.19513e-06
6.74994e-07
2.30281e-06
6.74496e-07
2.4158e-06
6.73942e-07
2.53434e-06
6.73327e-07
2.65874e-06
6.72646e-07
2.78926e-06
6.71892e-07
2.92623e-06
6.7106e-07
3.06996e-06
6.70144e-07
3.2208e-06
6.69138e-07
3.37911e-06
6.68037e-07
3.54526e-06
6.66837e-07
3.71965e-06
6.65535e-07
3.90272e-06
6.64129e-07
4.0949e-06
6.62622e-07
4.29667e-06
6.6102e-07
4.50856e-06
6.59055e-07
5.51988e-06
6.5712e-07
5.52272e-06
6.55261e-07
5.52583e-06
6.53527e-07
5.52921e-06
6.51981e-07
5.53287e-06
6.50691e-07
5.53686e-06
6.49739e-07
5.54119e-06
6.49218e-07
5.54592e-06
6.49237e-07
5.55108e-06
6.4992e-07
5.55672e-06
6.5141e-07
5.56292e-06
6.5387e-07
5.56973e-06
6.57485e-07
5.57725e-06
6.62464e-07
5.58556e-06
6.69042e-07
5.59481e-06
6.7748e-07
5.60513e-06
6.88056e-07
5.61673e-06
7.01069e-07
5.62984e-06
7.16828e-07
5.64477e-06
5.66192e-06
6.79155e-07
1.12391e-06
6.79091e-07
1.17884e-06
6.79004e-07
1.23651e-06
6.78897e-07
1.29702e-06
6.78771e-07
1.36052e-06
6.78627e-07
1.42714e-06
6.78464e-07
1.49705e-06
6.7828e-07
1.57041e-06
6.78075e-07
1.64737e-06
6.77845e-07
1.72812e-06
6.77588e-07
1.81284e-06
6.77301e-07
1.90174e-06
6.76982e-07
1.995e-06
6.76626e-07
2.09286e-06
6.7623e-07
2.19553e-06
6.75789e-07
2.30325e-06
6.75299e-07
2.41629e-06
6.74756e-07
2.53489e-06
6.74153e-07
2.65934e-06
6.73487e-07
2.78993e-06
6.7275e-07
2.92697e-06
6.71939e-07
3.07078e-06
6.71047e-07
3.2217e-06
6.70069e-07
3.38009e-06
6.69001e-07
3.54633e-06
6.67839e-07
3.72081e-06
6.66581e-07
3.90397e-06
6.65227e-07
4.09625e-06
6.63779e-07
4.29812e-06
6.62245e-07
4.5101e-06
6.60372e-07
5.52175e-06
6.58541e-07
5.52455e-06
6.56797e-07
5.52757e-06
6.55192e-07
5.53081e-06
6.53788e-07
5.53428e-06
6.52656e-07
5.53799e-06
6.5188e-07
5.54197e-06
6.51556e-07
5.54624e-06
6.51795e-07
5.55084e-06
6.52725e-07
5.55579e-06
6.54494e-07
5.56115e-06
6.57272e-07
5.56695e-06
6.61251e-07
5.57327e-06
6.66651e-07
5.58016e-06
6.7372e-07
5.58774e-06
6.82733e-07
5.59612e-06
6.93994e-07
5.60547e-06
7.07828e-07
5.616e-06
7.24582e-07
5.62802e-06
5.64189e-06
6.79991e-07
1.12394e-06
6.79927e-07
1.17891e-06
6.7984e-07
1.2366e-06
6.79732e-07
1.29713e-06
6.79606e-07
1.36064e-06
6.79462e-07
1.42729e-06
6.79299e-07
1.49722e-06
6.79116e-07
1.57059e-06
6.78911e-07
1.64757e-06
6.78682e-07
1.72835e-06
6.78427e-07
1.8131e-06
6.78142e-07
1.90202e-06
6.77826e-07
1.99532e-06
6.77474e-07
2.09321e-06
6.77082e-07
2.19592e-06
6.76647e-07
2.30369e-06
6.76165e-07
2.41677e-06
6.7563e-07
2.53542e-06
6.75038e-07
2.65993e-06
6.74384e-07
2.79058e-06
6.73663e-07
2.92769e-06
6.72869e-07
3.07157e-06
6.71997e-07
3.22257e-06
6.71043e-07
3.38104e-06
6.70003e-07
3.54737e-06
6.68873e-07
3.72194e-06
6.67652e-07
3.90519e-06
6.6634e-07
4.09756e-06
6.64941e-07
4.29952e-06
6.63463e-07
4.51158e-06
6.61667e-07
5.52355e-06
6.59919e-07
5.52629e-06
6.58267e-07
5.52922e-06
6.56763e-07
5.53231e-06
6.55469e-07
5.53557e-06
6.54458e-07
5.539e-06
6.53816e-07
5.54261e-06
6.53639e-07
5.54642e-06
6.5404e-07
5.55044e-06
6.55152e-07
5.55468e-06
6.57125e-07
5.55918e-06
6.60135e-07
5.56394e-06
6.64382e-07
5.56902e-06
6.70093e-07
5.57445e-06
6.77529e-07
5.5803e-06
6.86986e-07
5.58666e-06
6.98787e-07
5.59367e-06
7.13293e-07
5.6015e-06
7.30892e-07
5.61042e-06
5.62077e-06
6.80892e-07
1.12397e-06
6.80828e-07
1.17897e-06
6.8074e-07
1.23668e-06
6.80633e-07
1.29724e-06
6.80507e-07
1.36077e-06
6.80363e-07
1.42743e-06
6.80199e-07
1.49738e-06
6.80016e-07
1.57077e-06
6.79812e-07
1.64778e-06
6.79584e-07
1.72858e-06
6.7933e-07
1.81335e-06
6.79048e-07
1.9023e-06
6.78733e-07
1.99563e-06
6.78384e-07
2.09356e-06
6.77997e-07
2.19631e-06
6.77567e-07
2.30412e-06
6.7709e-07
2.41724e-06
6.76563e-07
2.53595e-06
6.7598e-07
2.66051e-06
6.75336e-07
2.79123e-06
6.74627e-07
2.9284e-06
6.73848e-07
3.07235e-06
6.72993e-07
3.22342e-06
6.72059e-07
3.38198e-06
6.71041e-07
3.54838e-06
6.69938e-07
3.72305e-06
6.68746e-07
3.90639e-06
6.67469e-07
4.09884e-06
6.66108e-07
4.30088e-06
6.64674e-07
4.51301e-06
6.62936e-07
5.52529e-06
6.61252e-07
5.52798e-06
6.59667e-07
5.53081e-06
6.58236e-07
5.53375e-06
6.57021e-07
5.53679e-06
6.56094e-07
5.53993e-06
6.55541e-07
5.54316e-06
6.5546e-07
5.5465e-06
6.55966e-07
5.54993e-06
6.57191e-07
5.55346e-06
6.5929e-07
5.55708e-06
6.62443e-07
5.56079e-06
6.66855e-07
5.56461e-06
6.72763e-07
5.56854e-06
6.80438e-07
5.57263e-06
6.90193e-07
5.57691e-06
7.02376e-07
5.58148e-06
7.17383e-07
5.58649e-06
7.3565e-07
5.59215e-06
5.59875e-06
6.81855e-07
1.124e-06
6.81791e-07
1.17904e-06
6.81704e-07
1.23677e-06
6.81596e-07
1.29734e-06
6.8147e-07
1.3609e-06
6.81326e-07
1.42758e-06
6.81163e-07
1.49754e-06
6.8098e-07
1.57095e-06
6.80776e-07
1.64798e-06
6.80549e-07
1.7288e-06
6.80296e-07
1.81361e-06
6.80015e-07
1.90258e-06
6.79703e-07
1.99594e-06
6.79357e-07
2.0939e-06
6.78972e-07
2.19669e-06
6.78546e-07
2.30454e-06
6.78075e-07
2.41772e-06
6.77553e-07
2.53647e-06
6.76977e-07
2.66109e-06
6.76342e-07
2.79186e-06
6.75642e-07
2.9291e-06
6.74874e-07
3.07312e-06
6.74033e-07
3.22426e-06
6.73114e-07
3.38289e-06
6.72114e-07
3.54938e-06
6.71031e-07
3.72413e-06
6.69862e-07
3.90755e-06
6.6861e-07
4.10009e-06
6.67278e-07
4.30221e-06
6.65876e-07
4.51441e-06
6.64178e-07
5.52698e-06
6.62537e-07
5.52962e-06
6.60997e-07
5.53235e-06
6.59611e-07
5.53513e-06
6.58441e-07
5.53796e-06
6.5756e-07
5.54081e-06
6.57052e-07
5.54367e-06
6.57017e-07
5.54653e-06
6.57567e-07
5.54938e-06
6.58838e-07
5.55219e-06
6.60984e-07
5.55493e-06
6.64188e-07
5.55759e-06
6.68659e-07
5.56014e-06
6.74642e-07
5.56256e-06
6.82419e-07
5.56485e-06
6.92315e-07
5.56701e-06
7.04706e-07
5.56909e-06
7.2002e-07
5.57118e-06
7.38748e-07
5.57342e-06
5.57603e-06
6.8288e-07
1.12403e-06
6.82816e-07
1.1791e-06
6.82729e-07
1.23686e-06
6.82621e-07
1.29745e-06
6.82496e-07
1.36102e-06
6.82352e-07
1.42772e-06
6.82189e-07
1.49771e-06
6.82006e-07
1.57114e-06
6.81803e-07
1.64819e-06
6.81576e-07
1.72903e-06
6.81324e-07
1.81386e-06
6.81044e-07
1.90286e-06
6.80733e-07
1.99626e-06
6.80389e-07
2.09425e-06
6.80007e-07
2.19707e-06
6.79584e-07
2.30497e-06
6.79116e-07
2.41818e-06
6.78599e-07
2.53699e-06
6.78028e-07
2.66166e-06
6.77399e-07
2.79249e-06
6.76707e-07
2.92979e-06
6.75948e-07
3.07388e-06
6.75116e-07
3.22509e-06
6.74209e-07
3.3838e-06
6.73221e-07
3.55037e-06
6.72152e-07
3.7252e-06
6.70999e-07
3.90871e-06
6.69764e-07
4.10133e-06
6.6845e-07
4.30353e-06
6.67067e-07
4.5158e-06
6.65393e-07
5.52866e-06
6.63775e-07
5.53124e-06
6.62256e-07
5.53387e-06
6.60888e-07
5.5365e-06
6.59732e-07
5.53911e-06
6.58858e-07
5.54168e-06
6.58352e-07
5.54418e-06
6.5831e-07
5.54658e-06
6.58845e-07
5.54884e-06
6.60091e-07
5.55094e-06
6.62203e-07
5.55282e-06
6.65364e-07
5.55443e-06
6.69786e-07
5.55571e-06
6.75718e-07
5.55663e-06
6.8345e-07
5.55712e-06
6.93322e-07
5.55714e-06
7.05729e-07
5.55668e-06
7.21134e-07
5.55577e-06
7.40077e-07
5.55448e-06
5.5529e-06
6.83965e-07
1.12406e-06
6.83901e-07
1.17916e-06
6.83814e-07
1.23695e-06
6.83707e-07
1.29756e-06
6.83582e-07
1.36115e-06
6.83438e-07
1.42786e-06
6.83275e-07
1.49787e-06
6.83093e-07
1.57132e-06
6.82889e-07
1.64839e-06
6.82663e-07
1.72926e-06
6.82412e-07
1.81411e-06
6.82132e-07
1.90314e-06
6.81823e-07
1.99656e-06
6.81479e-07
2.09459e-06
6.81099e-07
2.19745e-06
6.80678e-07
2.30539e-06
6.80213e-07
2.41865e-06
6.79699e-07
2.5375e-06
6.79132e-07
2.66223e-06
6.78507e-07
2.79312e-06
6.7782e-07
2.93048e-06
6.77066e-07
3.07463e-06
6.76241e-07
3.22592e-06
6.75341e-07
3.3847e-06
6.74362e-07
3.55135e-06
6.73301e-07
3.72626e-06
6.72156e-07
3.90985e-06
6.7093e-07
4.10255e-06
6.69625e-07
4.30483e-06
6.6825e-07
4.51717e-06
6.66583e-07
5.53033e-06
6.64967e-07
5.53285e-06
6.63446e-07
5.53539e-06
6.62068e-07
5.53788e-06
6.60894e-07
5.54029e-06
6.59991e-07
5.54258e-06
6.59442e-07
5.54473e-06
6.59343e-07
5.54668e-06
6.59804e-07
5.54838e-06
6.60955e-07
5.54979e-06
6.62952e-07
5.55082e-06
6.65974e-07
5.5514e-06
6.70236e-07
5.55145e-06
6.75987e-07
5.55088e-06
6.83524e-07
5.54958e-06
6.93193e-07