/*--------------------------------*- C++ -*----------------------------------*\
  =========                 |
  \\      /  F ield         | OpenFOAM: The Open Source CFD Toolbox
   \\    /   O peration     | Website:  https://openfoam.org
    \\  /    A nd           | Version:  9
     \\/     M anipulation  |
\*---------------------------------------------------------------------------*/
FoamFile
{
    format      ascii;
    class       volScalarField;
    location    "0.02";
    object      rAU;
}
// * * * * * * * * * * * * * * * * * * * * * * * * * * * * * * * * * * * * * //

dimensions      [-1 3 1 0 0 0 0];

internalField   nonuniform List<scalar> 
5000
(
1.93062e-05
2.49966e-05
2.54922e-05
2.59636e-05
2.6411e-05
2.68348e-05
2.72356e-05
2.76139e-05
2.79705e-05
2.83062e-05
2.86217e-05
2.89179e-05
2.91957e-05
2.94561e-05
2.96998e-05
2.9928e-05
3.01413e-05
3.03407e-05
3.0527e-05
3.07011e-05
3.08637e-05
3.10155e-05
3.11573e-05
3.12897e-05
3.14134e-05
3.15289e-05
3.16369e-05
3.17377e-05
3.1832e-05
3.19394e-05
3.21998e-05
3.22223e-05
3.22275e-05
3.22326e-05
3.22375e-05
3.22422e-05
3.22466e-05
3.22506e-05
3.22541e-05
3.2257e-05
3.22591e-05
3.22603e-05
3.22605e-05
3.22594e-05
3.22566e-05
3.22521e-05
3.22452e-05
3.22356e-05
3.22226e-05
3.22055e-05
1.93072e-05
2.49975e-05
2.54931e-05
2.59643e-05
2.64117e-05
2.68354e-05
2.72361e-05
2.76143e-05
2.79708e-05
2.83063e-05
2.86217e-05
2.89177e-05
2.91954e-05
2.94556e-05
2.96992e-05
2.99272e-05
3.01403e-05
3.03395e-05
3.05256e-05
3.06995e-05
3.08618e-05
3.10134e-05
3.11549e-05
3.12871e-05
3.14104e-05
3.15257e-05
3.16333e-05
3.17338e-05
3.18277e-05
3.19346e-05
3.21945e-05
3.22165e-05
3.22211e-05
3.22255e-05
3.22297e-05
3.22336e-05
3.22371e-05
3.22401e-05
3.22425e-05
3.22442e-05
3.2245e-05
3.22447e-05
3.22432e-05
3.22402e-05
3.22354e-05
3.22284e-05
3.22188e-05
3.22061e-05
3.21896e-05
3.21686e-05
1.93082e-05
2.49983e-05
2.54938e-05
2.5965e-05
2.64123e-05
2.68359e-05
2.72365e-05
2.76147e-05
2.7971e-05
2.83064e-05
2.86216e-05
2.89176e-05
2.91951e-05
2.94551e-05
2.96986e-05
2.99263e-05
3.01393e-05
3.03383e-05
3.05242e-05
3.06978e-05
3.086e-05
3.10113e-05
3.11526e-05
3.12844e-05
3.14075e-05
3.15224e-05
3.16297e-05
3.17299e-05
3.18234e-05
3.19299e-05
3.21894e-05
3.22108e-05
3.22148e-05
3.22185e-05
3.2222e-05
3.22251e-05
3.22278e-05
3.22299e-05
3.22313e-05
3.22318e-05
3.22314e-05
3.22298e-05
3.22267e-05
3.22219e-05
3.22151e-05
3.22059e-05
3.21939e-05
3.21784e-05
3.21588e-05
3.21343e-05
1.9309e-05
2.4999e-05
2.54944e-05
2.59656e-05
2.64127e-05
2.68363e-05
2.72369e-05
2.76149e-05
2.79712e-05
2.83064e-05
2.86215e-05
2.89173e-05
2.91947e-05
2.94546e-05
2.96979e-05
2.99255e-05
3.01382e-05
3.03371e-05
3.05228e-05
3.06962e-05
3.08581e-05
3.10092e-05
3.11502e-05
3.12818e-05
3.14046e-05
3.15192e-05
3.16262e-05
3.1726e-05
3.18192e-05
3.19253e-05
3.21844e-05
3.22052e-05
3.22086e-05
3.22118e-05
3.22146e-05
3.2217e-05
3.22188e-05
3.22201e-05
3.22205e-05
3.222e-05
3.22184e-05
3.22155e-05
3.22109e-05
3.22046e-05
3.2196e-05
3.21848e-05
3.21705e-05
3.21526e-05
3.21303e-05
3.21028e-05
1.93097e-05
2.49996e-05
2.54949e-05
2.5966e-05
2.64131e-05
2.68366e-05
2.72371e-05
2.7615e-05
2.79712e-05
2.83063e-05
2.86213e-05
2.8917e-05
2.91943e-05
2.9454e-05
2.96971e-05
2.99246e-05
3.01372e-05
3.03358e-05
3.05213e-05
3.06945e-05
3.08562e-05
3.10071e-05
3.11479e-05
3.12792e-05
3.14018e-05
3.15161e-05
3.16227e-05
3.17222e-05
3.1815e-05
3.19208e-05
3.21795e-05
3.21998e-05
3.22027e-05
3.22052e-05
3.22074e-05
3.22091e-05
3.22102e-05
3.22106e-05
3.22102e-05
3.22087e-05
3.2206e-05
3.22019e-05
3.21961e-05
3.21882e-05
3.2178e-05
3.21651e-05
3.21489e-05
3.21288e-05
3.21042e-05
3.20742e-05
1.93102e-05
2.5e-05
2.54952e-05
2.59663e-05
2.64133e-05
2.68368e-05
2.72372e-05
2.7615e-05
2.79711e-05
2.83062e-05
2.86211e-05
2.89166e-05
2.91937e-05
2.94533e-05
2.96963e-05
2.99236e-05
3.0136e-05
3.03345e-05
3.05198e-05
3.06929e-05
3.08543e-05
3.1005e-05
3.11455e-05
3.12766e-05
3.13989e-05
3.1513e-05
3.16193e-05
3.17185e-05
3.1811e-05
3.19163e-05
3.21748e-05
3.21946e-05
3.21969e-05
3.21989e-05
3.22005e-05
3.22016e-05
3.2202e-05
3.22016e-05
3.22004e-05
3.2198e-05
3.21943e-05
3.21891e-05
3.21821e-05
3.2173e-05
3.21614e-05
3.21469e-05
3.2129e-05
3.21071e-05
3.20805e-05
3.20485e-05
1.93105e-05
2.50002e-05
2.54954e-05
2.59664e-05
2.64134e-05
2.68368e-05
2.72371e-05
2.76149e-05
2.79709e-05
2.83059e-05
2.86207e-05
2.89161e-05
2.91931e-05
2.94526e-05
2.96955e-05
2.99226e-05
3.01349e-05
3.03332e-05
3.05183e-05
3.06912e-05
3.08524e-05
3.10029e-05
3.11432e-05
3.12741e-05
3.13961e-05
3.15099e-05
3.1616e-05
3.17149e-05
3.1807e-05
3.1912e-05
3.21702e-05
3.21895e-05
3.21914e-05
3.21929e-05
3.21939e-05
3.21944e-05
3.21942e-05
3.21931e-05
3.21911e-05
3.21879e-05
3.21834e-05
3.21772e-05
3.21692e-05
3.21589e-05
3.21461e-05
3.21302e-05
3.21109e-05
3.20875e-05
3.20594e-05
3.20258e-05
1.93107e-05
2.50003e-05
2.54955e-05
2.59664e-05
2.64134e-05
2.68367e-05
2.7237e-05
2.76147e-05
2.79706e-05
2.83055e-05
2.86202e-05
2.89155e-05
2.91924e-05
2.94518e-05
2.96945e-05
2.99215e-05
3.01336e-05
3.03318e-05
3.05168e-05
3.06894e-05
3.08505e-05
3.10008e-05
3.11409e-05
3.12715e-05
3.13933e-05
3.15069e-05
3.16127e-05
3.17113e-05
3.18031e-05
3.19079e-05
3.21657e-05
3.21846e-05
3.2186e-05
3.21871e-05
3.21876e-05
3.21875e-05
3.21867e-05
3.21851e-05
3.21824e-05
3.21785e-05
3.21732e-05
3.21662e-05
3.21572e-05
3.2146e-05
3.21321e-05
3.21152e-05
3.20947e-05
3.20701e-05
3.20408e-05
3.2006e-05
1.93107e-05
2.50002e-05
2.54953e-05
2.59662e-05
2.64131e-05
2.68364e-05
2.72366e-05
2.76143e-05
2.79702e-05
2.8305e-05
2.86196e-05
2.89148e-05
2.91916e-05
2.94509e-05
2.96935e-05
2.99204e-05
3.01324e-05
3.03304e-05
3.05152e-05
3.06877e-05
3.08486e-05
3.09987e-05
3.11386e-05
3.1269e-05
3.13906e-05
3.15039e-05
3.16095e-05
3.17078e-05
3.17994e-05
3.19038e-05
3.21614e-05
3.21799e-05
3.21809e-05
3.21815e-05
3.21816e-05
3.2181e-05
3.21797e-05
3.21775e-05
3.21742e-05
3.21697e-05
3.21637e-05
3.2156e-05
3.21463e-05
3.21343e-05
3.21196e-05
3.21017e-05
3.20803e-05
3.20548e-05
3.20246e-05
3.19891e-05
1.93105e-05
2.49999e-05
2.5495e-05
2.59658e-05
2.64127e-05
2.6836e-05
2.72361e-05
2.76138e-05
2.79696e-05
2.83043e-05
2.86188e-05
2.8914e-05
2.91907e-05
2.94499e-05
2.96924e-05
2.99191e-05
3.0131e-05
3.03289e-05
3.05136e-05
3.06859e-05
3.08466e-05
3.09965e-05
3.11363e-05
3.12665e-05
3.13879e-05
3.1501e-05
3.16063e-05
3.17044e-05
3.17957e-05
3.18999e-05
3.21573e-05
3.21754e-05
3.2176e-05
3.21762e-05
3.21759e-05
3.21749e-05
3.21731e-05
3.21705e-05
3.21667e-05
3.21617e-05
3.21551e-05
3.21468e-05
3.21365e-05
3.21239e-05
3.21085e-05
3.20899e-05
3.20678e-05
3.20417e-05
3.20109e-05
3.19748e-05
1.93101e-05
2.49994e-05
2.54945e-05
2.59653e-05
2.64121e-05
2.68354e-05
2.72355e-05
2.76131e-05
2.79688e-05
2.83035e-05
2.8618e-05
2.89131e-05
2.91897e-05
2.94488e-05
2.96912e-05
2.99178e-05
3.01296e-05
3.03273e-05
3.05119e-05
3.06841e-05
3.08447e-05
3.09944e-05
3.1134e-05
3.1264e-05
3.13852e-05
3.14981e-05
3.16032e-05
3.17011e-05
3.17922e-05
3.1896e-05
3.21533e-05
3.21711e-05
3.21714e-05
3.21712e-05
3.21705e-05
3.21691e-05
3.2167e-05
3.21639e-05
3.21597e-05
3.21543e-05
3.21473e-05
3.21386e-05
3.21278e-05
3.21146e-05
3.20988e-05
3.20798e-05
3.20572e-05
3.20306e-05
3.19995e-05
3.19633e-05
1.93095e-05
2.49987e-05
2.54937e-05
2.59645e-05
2.64114e-05
2.68346e-05
2.72346e-05
2.76122e-05
2.79679e-05
2.83025e-05
2.86169e-05
2.8912e-05
2.91886e-05
2.94475e-05
2.96899e-05
2.99164e-05
3.01281e-05
3.03257e-05
3.05101e-05
3.06822e-05
3.08426e-05
3.09922e-05
3.11316e-05
3.12615e-05
3.13825e-05
3.14952e-05
3.16002e-05
3.16978e-05
3.17887e-05
3.18923e-05
3.21495e-05
3.2167e-05
3.2167e-05
3.21665e-05
3.21655e-05
3.21638e-05
3.21613e-05
3.21579e-05
3.21534e-05
3.21476e-05
3.21403e-05
3.21312e-05
3.21201e-05
3.21066e-05
3.20905e-05
3.20712e-05
3.20484e-05
3.20216e-05
3.19904e-05
3.19542e-05
1.93087e-05
2.49979e-05
2.54928e-05
2.59636e-05
2.64104e-05
2.68336e-05
2.72336e-05
2.76111e-05
2.79668e-05
2.83014e-05
2.86158e-05
2.89108e-05
2.91873e-05
2.94462e-05
2.96884e-05
2.99149e-05
3.01264e-05
3.0324e-05
3.05083e-05
3.06803e-05
3.08406e-05
3.099e-05
3.11293e-05
3.1259e-05
3.13799e-05
3.14924e-05
3.15972e-05
3.16946e-05
3.17853e-05
3.18888e-05
3.21459e-05
3.21631e-05
3.21628e-05
3.2162e-05
3.21607e-05
3.21588e-05
3.2156e-05
3.21524e-05
3.21476e-05
3.21416e-05
3.21341e-05
3.21248e-05
3.21135e-05
3.20999e-05
3.20836e-05
3.20642e-05
3.20414e-05
3.20147e-05
3.19836e-05
3.19476e-05
1.93077e-05
2.49968e-05
2.54918e-05
2.59625e-05
2.64093e-05
2.68324e-05
2.72324e-05
2.76099e-05
2.79655e-05
2.83001e-05
2.86144e-05
2.89094e-05
2.91858e-05
2.94447e-05
2.96869e-05
2.99133e-05
3.01247e-05
3.03222e-05
3.05064e-05
3.06783e-05
3.08385e-05
3.09878e-05
3.11269e-05
3.12565e-05
3.13772e-05
3.14896e-05
3.15942e-05
3.16915e-05
3.1782e-05
3.18853e-05
3.21424e-05
3.21593e-05
3.21588e-05
3.21578e-05
3.21563e-05
3.21541e-05
3.21512e-05
3.21474e-05
3.21425e-05
3.21363e-05
3.21287e-05
3.21193e-05
3.2108e-05
3.20943e-05
3.20781e-05
3.20588e-05
3.20362e-05
3.20097e-05
3.19789e-05
3.19434e-05
1.93065e-05
2.49956e-05
2.54905e-05
2.59612e-05
2.64079e-05
2.68311e-05
2.7231e-05
2.76085e-05
2.79641e-05
2.82987e-05
2.8613e-05
2.89079e-05
2.91843e-05
2.94431e-05
2.96852e-05
2.99115e-05
3.01229e-05
3.03203e-05
3.05045e-05
3.06762e-05
3.08363e-05
3.09855e-05
3.11246e-05
3.1254e-05
3.13746e-05
3.14869e-05
3.15913e-05
3.16885e-05
3.17788e-05
3.1882e-05
3.2139e-05
3.21557e-05
3.2155e-05
3.21539e-05
3.21522e-05
3.21499e-05
3.21468e-05
3.21429e-05
3.21379e-05
3.21317e-05
3.2124e-05
3.21147e-05
3.21035e-05
3.209e-05
3.20739e-05
3.2055e-05
3.20327e-05
3.20066e-05
3.19764e-05
3.19415e-05
1.93052e-05
2.49942e-05
2.5489e-05
2.59597e-05
2.64064e-05
2.68295e-05
2.72295e-05
2.76069e-05
2.79625e-05
2.82971e-05
2.86113e-05
2.89062e-05
2.91826e-05
2.94414e-05
2.96834e-05
2.99097e-05
3.0121e-05
3.03183e-05
3.05024e-05
3.06741e-05
3.08341e-05
3.09832e-05
3.11222e-05
3.12515e-05
3.1372e-05
3.14841e-05
3.15884e-05
3.16855e-05
3.17757e-05
3.18787e-05
3.21357e-05
3.21523e-05
3.21514e-05
3.21501e-05
3.21483e-05
3.21459e-05
3.21428e-05
3.21388e-05
3.21339e-05
3.21277e-05
3.21201e-05
3.2111e-05
3.21e-05
3.20868e-05
3.20711e-05
3.20526e-05
3.20308e-05
3.20054e-05
3.19759e-05
3.19418e-05
1.93036e-05
2.49926e-05
2.54874e-05
2.5958e-05
2.64047e-05
2.68278e-05
2.72278e-05
2.76052e-05
2.79608e-05
2.82953e-05
2.86096e-05
2.89044e-05
2.91808e-05
2.94395e-05
2.96815e-05
2.99078e-05
3.01191e-05
3.03163e-05
3.05003e-05
3.06719e-05
3.08319e-05
3.09809e-05
3.11197e-05
3.1249e-05
3.13694e-05
3.14814e-05
3.15856e-05
3.16826e-05
3.17727e-05
3.18755e-05
3.21326e-05
3.21491e-05
3.21481e-05
3.21467e-05
3.21448e-05
3.21424e-05
3.21392e-05
3.21353e-05
3.21304e-05
3.21243e-05
3.2117e-05
3.21081e-05
3.20974e-05
3.20847e-05
3.20696e-05
3.20517e-05
3.20307e-05
3.20061e-05
3.19775e-05
3.19444e-05
1.93019e-05
2.49908e-05
2.54856e-05
2.59562e-05
2.64029e-05
2.6826e-05
2.72259e-05
2.76033e-05
2.79589e-05
2.82934e-05
2.86076e-05
2.89025e-05
2.91788e-05
2.94375e-05
2.96795e-05
2.99057e-05
3.0117e-05
3.03142e-05
3.04981e-05
3.06697e-05
3.08295e-05
3.09785e-05
3.11173e-05
3.12465e-05
3.13667e-05
3.14787e-05
3.15828e-05
3.16797e-05
3.17697e-05
3.18725e-05
3.21296e-05
3.2146e-05
3.21449e-05
3.21434e-05
3.21415e-05
3.21391e-05
3.2136e-05
3.21321e-05
3.21274e-05
3.21216e-05
3.21145e-05
3.2106e-05
3.20958e-05
3.20837e-05
3.20692e-05
3.20522e-05
3.20321e-05
3.20086e-05
3.19811e-05
3.19492e-05
1.93e-05
2.49889e-05
2.54836e-05
2.59542e-05
2.64009e-05
2.68239e-05
2.72239e-05
2.76013e-05
2.79569e-05
2.82914e-05
2.86056e-05
2.89004e-05
2.91767e-05
2.94354e-05
2.96774e-05
2.99035e-05
3.01148e-05
3.03119e-05
3.04958e-05
3.06673e-05
3.08272e-05
3.09761e-05
3.11148e-05
3.12439e-05
3.13641e-05
3.1476e-05
3.158e-05
3.16768e-05
3.17668e-05
3.18695e-05
3.21268e-05
3.2143e-05
3.21419e-05
3.21404e-05
3.21385e-05
3.21361e-05
3.21331e-05
3.21294e-05
3.21249e-05
3.21194e-05
3.21127e-05
3.21047e-05
3.20951e-05
3.20837e-05
3.20701e-05
3.2054e-05
3.20351e-05
3.20128e-05
3.19868e-05
3.19563e-05
1.92979e-05
2.49868e-05
2.54815e-05
2.5952e-05
2.63987e-05
2.68218e-05
2.72217e-05
2.75991e-05
2.79547e-05
2.82892e-05
2.86034e-05
2.88982e-05
2.91745e-05
2.94332e-05
2.96751e-05
2.99013e-05
3.01125e-05
3.03096e-05
3.04935e-05
3.06649e-05
3.08247e-05
3.09736e-05
3.11122e-05
3.12413e-05
3.13615e-05
3.14733e-05
3.15773e-05
3.1674e-05
3.17639e-05
3.18666e-05
3.2124e-05
3.21402e-05
3.2139e-05
3.21375e-05
3.21357e-05
3.21334e-05
3.21306e-05
3.21271e-05
3.21229e-05
3.21177e-05
3.21116e-05
3.21041e-05
3.20953e-05
3.20847e-05
3.20721e-05
3.20572e-05
3.20396e-05
3.20188e-05
3.19944e-05
3.19656e-05
1.92956e-05
2.49845e-05
2.54792e-05
2.59497e-05
2.63964e-05
2.68194e-05
2.72194e-05
2.75968e-05
2.79523e-05
2.82868e-05
2.86011e-05
2.88959e-05
2.91722e-05
2.94308e-05
2.96728e-05
2.98989e-05
3.01101e-05
3.03072e-05
3.04911e-05
3.06625e-05
3.08222e-05
3.09711e-05
3.11097e-05
3.12387e-05
3.13588e-05
3.14706e-05
3.15745e-05
3.16712e-05
3.17611e-05
3.18638e-05
3.21213e-05
3.21374e-05
3.21363e-05
3.21348e-05
3.21331e-05
3.21309e-05
3.21283e-05
3.21251e-05
3.21212e-05
3.21166e-05
3.21109e-05
3.21042e-05
3.20962e-05
3.20866e-05
3.20751e-05
3.20616e-05
3.20455e-05
3.20265e-05
3.20039e-05
3.19772e-05
1.92932e-05
2.49821e-05
2.54767e-05
2.59472e-05
2.63939e-05
2.68169e-05
2.72169e-05
2.75943e-05
2.79499e-05
2.82844e-05
2.85986e-05
2.88934e-05
2.91697e-05
2.94284e-05
2.96703e-05
2.98964e-05
3.01076e-05
3.03047e-05
3.04886e-05
3.066e-05
3.08197e-05
3.09685e-05
3.11071e-05
3.12361e-05
3.13561e-05
3.14679e-05
3.15718e-05
3.16685e-05
3.17583e-05
3.1861e-05
3.21187e-05
3.21348e-05
3.21337e-05
3.21323e-05
3.21306e-05
3.21287e-05
3.21263e-05
3.21234e-05
3.21199e-05
3.21158e-05
3.21108e-05
3.21049e-05
3.20977e-05
3.20893e-05
3.20792e-05
3.20671e-05
3.20528e-05
3.20357e-05
3.20153e-05
3.1991e-05
1.92907e-05
2.49795e-05
2.54741e-05
2.59446e-05
2.63913e-05
2.68143e-05
2.72143e-05
2.75917e-05
2.79473e-05
2.82818e-05
2.8596e-05
2.88908e-05
2.91671e-05
2.94258e-05
2.96678e-05
2.98939e-05
3.01051e-05
3.03021e-05
3.0486e-05
3.06574e-05
3.08171e-05
3.09659e-05
3.11044e-05
3.12334e-05
3.13535e-05
3.14652e-05
3.15691e-05
3.16657e-05
3.17556e-05
3.18582e-05
3.21161e-05
3.21322e-05
3.21311e-05
3.21299e-05
3.21284e-05
3.21266e-05
3.21245e-05
3.2122e-05
3.2119e-05
3.21154e-05
3.21111e-05
3.2106e-05
3.21e-05
3.20927e-05
3.2084e-05
3.20737e-05
3.20613e-05
3.20464e-05
3.20285e-05
3.2007e-05
1.92879e-05
2.49768e-05
2.54713e-05
2.59419e-05
2.63885e-05
2.68115e-05
2.72115e-05
2.75889e-05
2.79445e-05
2.8279e-05
2.85933e-05
2.88881e-05
2.91644e-05
2.94231e-05
2.96651e-05
2.98912e-05
3.01024e-05
3.02995e-05
3.04833e-05
3.06547e-05
3.08144e-05
3.09632e-05
3.11017e-05
3.12307e-05
3.13507e-05
3.14624e-05
3.15664e-05
3.1663e-05
3.17529e-05
3.18555e-05
3.21136e-05
3.21297e-05
3.21287e-05
3.21275e-05
3.21262e-05
3.21247e-05
3.21229e-05
3.21208e-05
3.21183e-05
3.21153e-05
3.21118e-05
3.21077e-05
3.21027e-05
3.20968e-05
3.20897e-05
3.20812e-05
3.20709e-05
3.20585e-05
3.20435e-05
3.20251e-05
1.92851e-05
2.49739e-05
2.54684e-05
2.59389e-05
2.63856e-05
2.68086e-05
2.72086e-05
2.7586e-05
2.79417e-05
2.82762e-05
2.85905e-05
2.88853e-05
2.91617e-05
2.94204e-05
2.96623e-05
2.98885e-05
3.00997e-05
3.02968e-05
3.04806e-05
3.0652e-05
3.08117e-05
3.09605e-05
3.1099e-05
3.1228e-05
3.1348e-05
3.14597e-05
3.15636e-05
3.16603e-05
3.17501e-05
3.18528e-05
3.21111e-05
3.21273e-05
3.21263e-05
3.21253e-05
3.21242e-05
3.21229e-05
3.21214e-05
3.21197e-05
3.21178e-05
3.21155e-05
3.21128e-05
3.21097e-05
3.21059e-05
3.21014e-05
3.2096e-05
3.20895e-05
3.20816e-05
3.20719e-05
3.20599e-05
3.20452e-05
1.9282e-05
2.49709e-05
2.54654e-05
2.59359e-05
2.63825e-05
2.68056e-05
2.72055e-05
2.7583e-05
2.79386e-05
2.82732e-05
2.85875e-05
2.88824e-05
2.91587e-05
2.94175e-05
2.96595e-05
2.98856e-05
3.00968e-05
3.02939e-05
3.04778e-05
3.06492e-05
3.08089e-05
3.09577e-05
3.10962e-05
3.12252e-05
3.13452e-05
3.14569e-05
3.15608e-05
3.16575e-05
3.17474e-05
3.18502e-05
3.21086e-05
3.21248e-05
3.2124e-05
3.21231e-05
3.21222e-05
3.21212e-05
3.21201e-05
3.21188e-05
3.21175e-05
3.21159e-05
3.21141e-05
3.2112e-05
3.21094e-05
3.21064e-05
3.21028e-05
3.20984e-05
3.2093e-05
3.20863e-05
3.20777e-05
3.2067e-05
1.92789e-05
2.49677e-05
2.54622e-05
2.59327e-05
2.63793e-05
2.68024e-05
2.72024e-05
2.75799e-05
2.79355e-05
2.82701e-05
2.85844e-05
2.88793e-05
2.91557e-05
2.94145e-05
2.96565e-05
2.98827e-05
3.00939e-05
3.0291e-05
3.04749e-05
3.06463e-05
3.0806e-05
3.09548e-05
3.10934e-05
3.12223e-05
3.13424e-05
3.14541e-05
3.1558e-05
3.16547e-05
3.17447e-05
3.18475e-05
3.21061e-05
3.21224e-05
3.21217e-05
3.21209e-05
3.21202e-05
3.21195e-05
3.21188e-05
3.2118e-05
3.21172e-05
3.21164e-05
3.21154e-05
3.21144e-05
3.21132e-05
3.21118e-05
3.211e-05
3.21079e-05
3.21051e-05
3.21015e-05
3.20966e-05
3.20903e-05
1.92755e-05
2.49645e-05
2.54589e-05
2.59294e-05
2.6376e-05
2.67991e-05
2.71991e-05
2.75766e-05
2.79323e-05
2.82669e-05
2.85812e-05
2.88762e-05
2.91526e-05
2.94114e-05
2.96534e-05
2.98796e-05
3.00909e-05
3.0288e-05
3.04719e-05
3.06433e-05
3.08031e-05
3.09519e-05
3.10904e-05
3.12194e-05
3.13395e-05
3.14512e-05
3.15552e-05
3.16519e-05
3.17419e-05
3.18447e-05
3.21036e-05
3.212e-05
3.21193e-05
3.21187e-05
3.21182e-05
3.21178e-05
3.21175e-05
3.21172e-05
3.2117e-05
3.21169e-05
3.21169e-05
3.21169e-05
3.21171e-05
3.21172e-05
3.21174e-05
3.21176e-05
3.21176e-05
3.21172e-05
3.21164e-05
3.21147e-05
1.92721e-05
2.4961e-05
2.54555e-05
2.59259e-05
2.63725e-05
2.67956e-05
2.71957e-05
2.75732e-05
2.79289e-05
2.82635e-05
2.85779e-05
2.88729e-05
2.91493e-05
2.94082e-05
2.96502e-05
2.98765e-05
3.00878e-05
3.02849e-05
3.04688e-05
3.06403e-05
3.08001e-05
3.09489e-05
3.10875e-05
3.12165e-05
3.13366e-05
3.14483e-05
3.15523e-05
3.16491e-05
3.17391e-05
3.1842e-05
3.21011e-05
3.21175e-05
3.2117e-05
3.21165e-05
3.21162e-05
3.21161e-05
3.21161e-05
3.21163e-05
3.21168e-05
3.21174e-05
3.21183e-05
3.21194e-05
3.21209e-05
3.21227e-05
3.21249e-05
3.21274e-05
3.21302e-05
3.21333e-05
3.21365e-05
3.21399e-05
1.92685e-05
2.49575e-05
2.54519e-05
2.59223e-05
2.63689e-05
2.6792e-05
2.71921e-05
2.75696e-05
2.79254e-05
2.82601e-05
2.85745e-05
2.88695e-05
2.9146e-05
2.94048e-05
2.9647e-05
2.98732e-05
3.00845e-05
3.02818e-05
3.04657e-05
3.06372e-05
3.0797e-05
3.09458e-05
3.10844e-05
3.12135e-05
3.13336e-05
3.14454e-05
3.15494e-05
3.16462e-05
3.17362e-05
3.18392e-05
3.20985e-05
3.2115e-05
3.21145e-05
3.21143e-05
3.21142e-05
3.21143e-05
3.21147e-05
3.21154e-05
3.21164e-05
3.21178e-05
3.21196e-05
3.21218e-05
3.21246e-05
3.2128e-05
3.21322e-05
3.2137e-05
3.21427e-05
3.21493e-05
3.21568e-05
3.21653e-05
1.92647e-05
2.49538e-05
2.54482e-05
2.59186e-05
2.63652e-05
2.67883e-05
2.71884e-05
2.7566e-05
2.79218e-05
2.82565e-05
2.85709e-05
2.8866e-05
2.91425e-05
2.94014e-05
2.96436e-05
2.98699e-05
3.00812e-05
3.02785e-05
3.04624e-05
3.0634e-05
3.07938e-05
3.09427e-05
3.10813e-05
3.12104e-05
3.13305e-05
3.14423e-05
3.15464e-05
3.16432e-05
3.17333e-05
3.18363e-05
3.20958e-05
3.21124e-05
3.2112e-05
3.21119e-05
3.2112e-05
3.21124e-05
3.21132e-05
3.21143e-05
3.21159e-05
3.2118e-05
3.21206e-05
3.2124e-05
3.21281e-05
3.21331e-05
3.21391e-05
3.21464e-05
3.21549e-05
3.2165e-05
3.21767e-05
3.21905e-05
1.92608e-05
2.49499e-05
2.54443e-05
2.59147e-05
2.63614e-05
2.67845e-05
2.71846e-05
2.75622e-05
2.7918e-05
2.82528e-05
2.85673e-05
2.88624e-05
2.91389e-05
2.93979e-05
2.96401e-05
2.98664e-05
3.00778e-05
3.02751e-05
3.04591e-05
3.06307e-05
3.07905e-05
3.09394e-05
3.10781e-05
3.12072e-05
3.13274e-05
3.14392e-05
3.15433e-05
3.16402e-05
3.17303e-05
3.18334e-05
3.20931e-05
3.21097e-05
3.21094e-05
3.21094e-05
3.21097e-05
3.21104e-05
3.21115e-05
3.21131e-05
3.21152e-05
3.21179e-05
3.21214e-05
3.21257e-05
3.21311e-05
3.21377e-05
3.21456e-05
3.21551e-05
3.21665e-05
3.21799e-05
3.21959e-05
3.22149e-05
1.92568e-05
2.49459e-05
2.54403e-05
2.59107e-05
2.63574e-05
2.67805e-05
2.71806e-05
2.75583e-05
2.79141e-05
2.82489e-05
2.85635e-05
2.88586e-05
2.91352e-05
2.93942e-05
2.96365e-05
2.98629e-05
3.00743e-05
3.02716e-05
3.04557e-05
3.06273e-05
3.07872e-05
3.09361e-05
3.10748e-05
3.12039e-05
3.13241e-05
3.1436e-05
3.15401e-05
3.1637e-05
3.17272e-05
3.18303e-05
3.20903e-05
3.21069e-05
3.21067e-05
3.21068e-05
3.21073e-05
3.21082e-05
3.21096e-05
3.21115e-05
3.21141e-05
3.21175e-05
3.21218e-05
3.21271e-05
3.21336e-05
3.21416e-05
3.21513e-05
3.2163e-05
3.21771e-05
3.21938e-05
3.22139e-05
3.22379e-05
1.92526e-05
2.49418e-05
2.54361e-05
2.59066e-05
2.63532e-05
2.67764e-05
2.71765e-05
2.75542e-05
2.79101e-05
2.8245e-05
2.85595e-05
2.88547e-05
2.91314e-05
2.93904e-05
2.96327e-05
2.98592e-05
3.00707e-05
3.0268e-05
3.04521e-05
3.06238e-05
3.07837e-05
3.09327e-05
3.10714e-05
3.12006e-05
3.13208e-05
3.14327e-05
3.15369e-05
3.16338e-05
3.1724e-05
3.18272e-05
3.20873e-05
3.2104e-05
3.21038e-05
3.2104e-05
3.21047e-05
3.21058e-05
3.21074e-05
3.21097e-05
3.21128e-05
3.21167e-05
3.21217e-05
3.21279e-05
3.21355e-05
3.21448e-05
3.21562e-05
3.21699e-05
3.21864e-05
3.22063e-05
3.22302e-05
3.2259e-05
1.92483e-05
2.49376e-05
2.54319e-05
2.59023e-05
2.6349e-05
2.67722e-05
2.71723e-05
2.75501e-05
2.7906e-05
2.82409e-05
2.85555e-05
2.88508e-05
2.91275e-05
2.93866e-05
2.96289e-05
2.98554e-05
3.00669e-05
3.02644e-05
3.04485e-05
3.06202e-05
3.07801e-05
3.09291e-05
3.10679e-05
3.11971e-05
3.13174e-05
3.14293e-05
3.15335e-05
3.16305e-05
3.17207e-05
3.18239e-05
3.20842e-05
3.21009e-05
3.21008e-05
3.21011e-05
3.21018e-05
3.21031e-05
3.2105e-05
3.21076e-05
3.2111e-05
3.21155e-05
3.21211e-05
3.2128e-05
3.21366e-05
3.21472e-05
3.216e-05
3.21756e-05
3.21944e-05
3.2217e-05
3.22444e-05
3.22777e-05
1.92439e-05
2.49332e-05
2.54275e-05
2.58979e-05
2.63446e-05
2.67678e-05
2.7168e-05
2.75458e-05
2.79017e-05
2.82367e-05
2.85514e-05
2.88467e-05
2.91234e-05
2.93826e-05
2.9625e-05
2.98515e-05
3.00631e-05
3.02606e-05
3.04447e-05
3.06165e-05
3.07765e-05
3.09255e-05
3.10643e-05
3.11935e-05
3.13138e-05
3.14258e-05
3.153e-05
3.1627e-05
3.17173e-05
3.18205e-05
3.2081e-05
3.20977e-05
3.20976e-05
3.20979e-05
3.20988e-05
3.21002e-05
3.21022e-05
3.21051e-05
3.21088e-05
3.21137e-05
3.21198e-05
3.21275e-05
3.21369e-05
3.21485e-05
3.21626e-05
3.21798e-05
3.22006e-05
3.22257e-05
3.22562e-05
3.22934e-05
1.92393e-05
2.49288e-05
2.5423e-05
2.58935e-05
2.63401e-05
2.67634e-05
2.71636e-05
2.75414e-05
2.78974e-05
2.82324e-05
2.85471e-05
2.88424e-05
2.91193e-05
2.93784e-05
2.96209e-05
2.98475e-05
3.00591e-05
3.02567e-05
3.04409e-05
3.06126e-05
3.07727e-05
3.09218e-05
3.10606e-05
3.11899e-05
3.13102e-05
3.14222e-05
3.15264e-05
3.16234e-05
3.17137e-05
3.1817e-05
3.20777e-05
3.20943e-05
3.20942e-05
3.20946e-05
3.20954e-05
3.20969e-05
3.20991e-05
3.21021e-05
3.21062e-05
3.21113e-05
3.21179e-05
3.21261e-05
3.21362e-05
3.21486e-05
3.21638e-05
3.21823e-05
3.22048e-05
3.22321e-05
3.22652e-05
3.23058e-05
1.92347e-05
2.49242e-05
2.54184e-05
2.58888e-05
2.63355e-05
2.67588e-05
2.7159e-05
2.75368e-05
2.78929e-05
2.82279e-05
2.85427e-05
2.88381e-05
2.9115e-05
2.93742e-05
2.96167e-05
2.98434e-05
3.00551e-05
3.02526e-05
3.04369e-05
3.06087e-05
3.07688e-05
3.09179e-05
3.10568e-05
3.11861e-05
3.13064e-05
3.14184e-05
3.15227e-05
3.16197e-05
3.17101e-05
3.18133e-05
3.20742e-05
3.20907e-05
3.20906e-05
3.2091e-05
3.20918e-05
3.20934e-05
3.20956e-05
3.20988e-05
3.2103e-05
3.21084e-05
3.21152e-05
3.21238e-05
3.21345e-05
3.21476e-05
3.21636e-05
3.21831e-05
3.22069e-05
3.22358e-05
3.22711e-05
3.23143e-05
1.92298e-05
2.49195e-05
2.54137e-05
2.58841e-05
2.63308e-05
2.6754e-05
2.71543e-05
2.75322e-05
2.78883e-05
2.82233e-05
2.85382e-05
2.88336e-05
2.91105e-05
2.93699e-05
2.96124e-05
2.98391e-05
3.00509e-05
3.02485e-05
3.04328e-05
3.06047e-05
3.07648e-05
3.0914e-05
3.10529e-05
3.11822e-05
3.13026e-05
3.14146e-05
3.15189e-05
3.16159e-05
3.17062e-05
3.18095e-05
3.20706e-05
3.2087e-05
3.20868e-05
3.20871e-05
3.2088e-05
3.20895e-05
3.20918e-05
3.2095e-05
3.20992e-05
3.21048e-05
3.21118e-05
3.21207e-05
3.21317e-05
3.21452e-05
3.21618e-05
3.21821e-05
3.22067e-05
3.22368e-05
3.22736e-05
3.23187e-05
1.92248e-05
2.49146e-05
2.54088e-05
2.58792e-05
2.63259e-05
2.67492e-05
2.71495e-05
2.75274e-05
2.78835e-05
2.82186e-05
2.85335e-05
2.8829e-05
2.9106e-05
2.93654e-05
2.9608e-05
2.98348e-05
3.00466e-05
3.02442e-05
3.04286e-05
3.06005e-05
3.07607e-05
3.09099e-05
3.10488e-05
3.11782e-05
3.12986e-05
3.14106e-05
3.15149e-05
3.16119e-05
3.17023e-05
3.18055e-05
3.20667e-05
3.20831e-05
3.20828e-05
3.2083e-05
3.20838e-05
3.20852e-05
3.20875e-05
3.20907e-05
3.20949e-05
3.21005e-05
3.21076e-05
3.21166e-05
3.21277e-05
3.21414e-05
3.21583e-05
3.2179e-05
3.22042e-05
3.22349e-05
3.22725e-05
3.23188e-05
1.92196e-05
2.49095e-05
2.54037e-05
2.58741e-05
2.63208e-05
2.67441e-05
2.71445e-05
2.75224e-05
2.78786e-05
2.82138e-05
2.85287e-05
2.88243e-05
2.91013e-05
2.93608e-05
2.96034e-05
2.98303e-05
3.00421e-05
3.02399e-05
3.04243e-05
3.05962e-05
3.07564e-05
3.09057e-05
3.10446e-05
3.1174e-05
3.12944e-05
3.14065e-05
3.15108e-05
3.16078e-05
3.16981e-05
3.18013e-05
3.20628e-05
3.2079e-05
3.20786e-05
3.20786e-05
3.20793e-05
3.20806e-05
3.20828e-05
3.20859e-05
3.209e-05
3.20955e-05
3.21026e-05
3.21115e-05
3.21226e-05
3.21363e-05
3.21532e-05
3.21739e-05
3.21992e-05
3.223e-05
3.22679e-05
3.23144e-05
1.92142e-05
2.49042e-05
2.53984e-05
2.58689e-05
2.63156e-05
2.67389e-05
2.71393e-05
2.75173e-05
2.78735e-05
2.82088e-05
2.85238e-05
2.88194e-05
2.90965e-05
2.9356e-05
2.95988e-05
2.98257e-05
3.00376e-05
3.02353e-05
3.04198e-05
3.05918e-05
3.07521e-05
3.09013e-05
3.10403e-05
3.11697e-05
3.12902e-05
3.14022e-05
3.15065e-05
3.16036e-05
3.16938e-05
3.1797e-05
3.20586e-05
3.20747e-05
3.20741e-05
3.2074e-05
3.20745e-05
3.20757e-05
3.20777e-05
3.20806e-05
3.20846e-05
3.20899e-05
3.20967e-05
3.21054e-05
3.21163e-05
3.21298e-05
3.21464e-05
3.21668e-05
3.21917e-05
3.22221e-05
3.22595e-05
3.23054e-05
1.92086e-05
2.48988e-05
2.5393e-05
2.58635e-05
2.63102e-05
2.67336e-05
2.7134e-05
2.7512e-05
2.78683e-05
2.82036e-05
2.85187e-05
2.88144e-05
2.90916e-05
2.93511e-05
2.95939e-05
2.98209e-05
3.00329e-05
3.02307e-05
3.04153e-05
3.05873e-05
3.07476e-05
3.08969e-05
3.10359e-05
3.11653e-05
3.12858e-05
3.13979e-05
3.15021e-05
3.15991e-05
3.16894e-05
3.17925e-05
3.20543e-05
3.20702e-05
3.20694e-05
3.20691e-05
3.20694e-05
3.20704e-05
3.20721e-05
3.20748e-05
3.20785e-05
3.20835e-05
3.209e-05
3.20983e-05
3.21088e-05
3.21218e-05
3.21379e-05
3.21576e-05
3.21817e-05
3.22113e-05
3.22475e-05
3.22921e-05
1.92029e-05
2.48932e-05
2.53874e-05
2.58579e-05
2.63047e-05
2.67281e-05
2.71286e-05
2.75066e-05
2.7863e-05
2.81983e-05
2.85135e-05
2.88092e-05
2.90865e-05
2.93461e-05
2.9589e-05
2.9816e-05
3.00281e-05
3.0226e-05
3.04106e-05
3.05826e-05
3.0743e-05
3.08923e-05
3.10314e-05
3.11608e-05
3.12813e-05
3.13933e-05
3.14976e-05
3.15946e-05
3.16848e-05
3.17879e-05
3.20498e-05
3.20655e-05
3.20645e-05
3.2064e-05
3.20641e-05
3.20647e-05
3.20662e-05
3.20685e-05
3.20719e-05
3.20765e-05
3.20826e-05
3.20903e-05
3.21002e-05
3.21125e-05
3.21277e-05
3.21464e-05
3.21694e-05
3.21975e-05
3.2232e-05
3.22744e-05
1.9197e-05
2.48875e-05
2.53817e-05
2.58522e-05
2.6299e-05
2.67224e-05
2.7123e-05
2.75011e-05
2.78575e-05
2.81929e-05
2.85081e-05
2.8804e-05
2.90813e-05
2.9341e-05
2.95839e-05
2.9811e-05
3.00231e-05
3.02211e-05
3.04057e-05
3.05779e-05
3.07383e-05
3.08876e-05
3.10267e-05
3.11562e-05
3.12766e-05
3.13887e-05
3.1493e-05
3.15899e-05
3.16801e-05
3.17831e-05
3.20452e-05
3.20606e-05
3.20594e-05
3.20586e-05
3.20584e-05
3.20588e-05
3.20599e-05
3.20618e-05
3.20647e-05
3.20688e-05
3.20743e-05
3.20814e-05
3.20905e-05
3.21019e-05
3.2116e-05
3.21334e-05
3.21548e-05
3.2181e-05
3.22132e-05
3.22527e-05
1.91909e-05
2.48816e-05
2.53758e-05
2.58463e-05
2.62932e-05
2.67167e-05
2.71172e-05
2.74954e-05
2.78519e-05
2.81874e-05
2.85026e-05
2.87985e-05
2.90759e-05
2.93357e-05
2.95787e-05
2.98059e-05
3.00181e-05
3.02161e-05
3.04008e-05
3.0573e-05
3.07334e-05
3.08828e-05
3.10219e-05
3.11514e-05
3.12719e-05
3.13839e-05
3.14882e-05
3.15851e-05
3.16752e-05
3.17781e-05
3.20404e-05
3.20556e-05
3.20541e-05
3.2053e-05
3.20525e-05
3.20525e-05
3.20532e-05
3.20546e-05
3.2057e-05
3.20606e-05
3.20653e-05
3.20717e-05
3.20798e-05
3.209e-05
3.21028e-05
3.21187e-05
3.21381e-05
3.2162e-05
3.21913e-05
3.22273e-05
1.91847e-05
2.48756e-05
2.53698e-05
2.58403e-05
2.62872e-05
2.67107e-05
2.71113e-05
2.74896e-05
2.78461e-05
2.81817e-05
2.8497e-05
2.8793e-05
2.90705e-05
2.93303e-05
2.95734e-05
2.98006e-05
3.00129e-05
3.0211e-05
3.03957e-05
3.0568e-05
3.07284e-05
3.08779e-05
3.1017e-05
3.11465e-05
3.1267e-05
3.1379e-05
3.14833e-05
3.15801e-05
3.16702e-05
3.1773e-05
3.20355e-05
3.20504e-05
3.20486e-05
3.20472e-05
3.20463e-05
3.20459e-05
3.20461e-05
3.20471e-05
3.20489e-05
3.20517e-05
3.20557e-05
3.20611e-05
3.20681e-05
3.20771e-05
3.20883e-05
3.21023e-05
3.21195e-05
3.21407e-05
3.21667e-05
3.21985e-05
1.91783e-05
2.48694e-05
2.53636e-05
2.58341e-05
2.6281e-05
2.67046e-05
2.71053e-05
2.74836e-05
2.78402e-05
2.81758e-05
2.84913e-05
2.87873e-05
2.90649e-05
2.93248e-05
2.9568e-05
2.97953e-05
3.00076e-05
3.02057e-05
3.03905e-05
3.05628e-05
3.07234e-05
3.08729e-05
3.1012e-05
3.11415e-05
3.1262e-05
3.1374e-05
3.14782e-05
3.15751e-05
3.16651e-05
3.17678e-05
3.20304e-05
3.2045e-05
3.20429e-05
3.20412e-05
3.20398e-05
3.2039e-05
3.20387e-05
3.20391e-05
3.20403e-05
3.20423e-05
3.20454e-05
3.20498e-05
3.20556e-05
3.20631e-05
3.20726e-05
3.20845e-05
3.20992e-05
3.21173e-05
3.21396e-05
3.21669e-05
1.91718e-05
2.4863e-05
2.53573e-05
2.58278e-05
2.62748e-05
2.66984e-05
2.70991e-05
2.74775e-05
2.78342e-05
2.81699e-05
2.84854e-05
2.87815e-05
2.90591e-05
2.93191e-05
2.95624e-05
2.97898e-05
3.00022e-05
3.02004e-05
3.03853e-05
3.05576e-05
3.07182e-05
3.08677e-05
3.10069e-05
3.11364e-05
3.12569e-05
3.13689e-05
3.14731e-05
3.15699e-05
3.16598e-05
3.17624e-05
3.20252e-05
3.20395e-05
3.20371e-05
3.2035e-05
3.20332e-05
3.20319e-05
3.20311e-05
3.20308e-05
3.20313e-05
3.20325e-05
3.20346e-05
3.20378e-05
3.20423e-05
3.20482e-05
3.20559e-05
3.20655e-05
3.20775e-05
3.20923e-05
3.21105e-05
3.21329e-05
1.91651e-05
2.48565e-05
2.53508e-05
2.58214e-05
2.62684e-05
2.6692e-05
2.70928e-05
2.74712e-05
2.7828e-05
2.81638e-05
2.84793e-05
2.87756e-05
2.90533e-05
2.93134e-05
2.95567e-05
2.97842e-05