/*--------------------------------*- C++ -*----------------------------------*\
  =========                 |
  \\      /  F ield         | OpenFOAM: The Open Source CFD Toolbox
   \\    /   O peration     | Website:  https://openfoam.org
    \\  /    A nd           | Version:  9
     \\/     M anipulation  |
\*---------------------------------------------------------------------------*/
FoamFile
{
    format      ascii;
    class       volVectorField;
    location    "0.02";
    object      U;
}
// * * * * * * * * * * * * * * * * * * * * * * * * * * * * * * * * * * * * * //

dimensions      [0 1 -1 0 0 0 0];

internalField   nonuniform List<vector> 
5000
(
(-0.057523 0 -0.000514699)
(-0.0575479 0 -0.00103857)
(-0.0575598 0 -0.00136466)
(-0.0575829 0 -0.00161042)
(-0.0576137 0 -0.00181605)
(-0.0576507 0 -0.00200254)
(-0.0576952 0 -0.00217994)
(-0.0577483 0 -0.00235481)
(-0.0578109 0 -0.00253185)
(-0.0578845 0 -0.0027143)
(-0.0579704 0 -0.00290424)
(-0.0580701 0 -0.00310285)
(-0.0581855 0 -0.00331074)
(-0.0583183 0 -0.00352809)
(-0.0584706 0 -0.00375481)
(-0.0586447 0 -0.00399061)
(-0.0588431 0 -0.00423503)
(-0.0590688 0 -0.0044875)
(-0.0593248 0 -0.00474732)
(-0.0596147 0 -0.00501366)
(-0.0599425 0 -0.00528551)
(-0.0603127 0 -0.00556165)
(-0.0607303 0 -0.00584058)
(-0.0612009 0 -0.00612043)
(-0.0617311 0 -0.00639889)
(-0.0623281 0 -0.006673)
(-0.0630002 0 -0.00693895)
(-0.063757 0 -0.00719174)
(-0.0646097 0 -0.00742461)
(-0.065569 0 -0.00762764)
(-0.0667438 0 -0.00779701)
(-0.0681494 0 -0.00789274)
(-0.069674 0 -0.00788936)
(-0.0713221 0 -0.00777815)
(-0.0731011 0 -0.00754512)
(-0.0750189 0 -0.00717325)
(-0.0770847 0 -0.00664304)
(-0.0793085 0 -0.00593201)
(-0.0817014 0 -0.00501394)
(-0.0842758 0 -0.00385816)
(-0.0870458 0 -0.00242907)
(-0.0900287 0 -0.000685565)
(-0.0932449 0 0.00141983)
(-0.0967168 0 0.0039428)
(-0.100469 0 0.00694914)
(-0.104526 0 0.010517)
(-0.108918 0 0.0147396)
(-0.113677 0 0.0197293)
(-0.118844 0 0.0256219)
(-0.124439 0 0.0325838)
(-0.0576344 0 -0.000492356)
(-0.0576592 0 -0.000992781)
(-0.0576703 0 -0.00130291)
(-0.0576925 0 -0.00153493)
(-0.0577223 0 -0.00172729)
(-0.057758 0 -0.00190011)
(-0.0578009 0 -0.00206313)
(-0.0578521 0 -0.00222273)
(-0.0579125 0 -0.00238354)
(-0.0579836 0 -0.00254875)
(-0.0580666 0 -0.0027204)
(-0.0581631 0 -0.00289969)
(-0.0582748 0 -0.00308718)
(-0.0584034 0 -0.00328302)
(-0.0585512 0 -0.00348708)
(-0.0587202 0 -0.003699)
(-0.058913 0 -0.00391825)
(-0.0591323 0 -0.00414419)
(-0.0593811 0 -0.00437601)
(-0.059663 0 -0.0046128)
(-0.0599817 0 -0.00485345)
(-0.0603415 0 -0.00509664)
(-0.0607472 0 -0.00534072)
(-0.0612043 0 -0.0055837)
(-0.0617188 0 -0.00582307)
(-0.0622979 0 -0.00605564)
(-0.0629493 0 -0.00627729)
(-0.063682 0 -0.00648265)
(-0.0645066 0 -0.00666444)
(-0.0654331 0 -0.00681211)
(-0.0665657 0 -0.00691548)
(-0.0679182 0 -0.00693548)
(-0.0693815 0 -0.00685267)
(-0.070959 0 -0.00665851)
(-0.0726567 0 -0.00633903)
(-0.074481 0 -0.00587671)
(-0.0764394 0 -0.00525085)
(-0.0785397 0 -0.00443746)
(-0.0807904 0 -0.00340895)
(-0.0832008 0 -0.00213381)
(-0.0857816 0 -0.000576108)
(-0.0885458 0 0.00130582)
(-0.0915086 0 0.00356087)
(-0.0946865 0 0.00624701)
(-0.0980967 0 0.00943191)
(-0.101756 0 0.0131944)
(-0.105681 0 0.0176269)
(-0.109889 0 0.022841)
(-0.114401 0 0.0289718)
(-0.119223 0 0.0361872)
(-0.0577343 0 -0.000470556)
(-0.0577592 0 -0.000948247)
(-0.0577697 0 -0.00124296)
(-0.0577911 0 -0.00146175)
(-0.0578201 0 -0.00164135)
(-0.0578546 0 -0.00180103)
(-0.0578961 0 -0.00195017)
(-0.0579455 0 -0.00209501)
(-0.0580039 0 -0.00224008)
(-0.0580724 0 -0.00238853)
(-0.0581526 0 -0.0025424)
(-0.0582458 0 -0.00270284)
(-0.0583537 0 -0.00287043)
(-0.0584781 0 -0.0030453)
(-0.0586211 0 -0.00322729)
(-0.0587847 0 -0.00341598)
(-0.0589714 0 -0.00361079)
(-0.059184 0 -0.00381101)
(-0.0594253 0 -0.00401574)
(-0.0596986 0 -0.00422398)
(-0.0600077 0 -0.0044345)
(-0.0603568 0 -0.00464586)
(-0.0607502 0 -0.0048563)
(-0.0611934 0 -0.00506369)
(-0.0616919 0 -0.00526535)
(-0.0622525 0 -0.0054579)
(-0.0628825 0 -0.005637)
(-0.0635901 0 -0.00579696)
(-0.0643853 0 -0.00593016)
(-0.0652773 0 -0.00602559)
(-0.0663653 0 -0.00606745)
(-0.067662 0 -0.00601739)
(-0.0690614 0 -0.0058617)
(-0.0705658 0 -0.00559162)
(-0.0721798 0 -0.00519309)
(-0.0739076 0 -0.00464839)
(-0.0757547 0 -0.00393637)
(-0.0777264 0 -0.00303228)
(-0.079829 0 -0.00190761)
(-0.082069 0 -0.000530016)
(-0.0844541 0 0.00113715)
(-0.0869927 0 0.00313607)
(-0.0896943 0 0.00551618)
(-0.092569 0 0.00833588)
(-0.095627 0 0.0116636)
(-0.0988771 0 0.0155788)
(-0.102326 0 0.0201734)
(-0.105977 0 0.0255551)
(-0.109834 0 0.0318531)
(-0.11388 0 0.0392226)
(-0.0578217 0 -0.00044917)
(-0.0578469 0 -0.000904658)
(-0.0578568 0 -0.00118444)
(-0.0578776 0 -0.0013905)
(-0.0579059 0 -0.00155786)
(-0.0579394 0 -0.00170493)
(-0.0579797 0 -0.00184074)
(-0.0580275 0 -0.00197137)
(-0.0580839 0 -0.00210123)
(-0.0581501 0 -0.00223345)
(-0.0582276 0 -0.00237004)
(-0.0583176 0 -0.00251216)
(-0.0584219 0 -0.00266038)
(-0.0585421 0 -0.00281485)
(-0.0586803 0 -0.00297536)
(-0.0588386 0 -0.0031415)
(-0.0590192 0 -0.00331265)
(-0.0592249 0 -0.00348802)
(-0.0594584 0 -0.00366668)
(-0.059723 0 -0.00384751)
(-0.0600222 0 -0.00402917)
(-0.06036 0 -0.00421007)
(-0.0607407 0 -0.00438831)
(-0.0611692 0 -0.00456157)
(-0.0616511 0 -0.00472698)
(-0.0621925 0 -0.00488098)
(-0.0628002 0 -0.00501904)
(-0.0634819 0 -0.0051353)
(-0.0642469 0 -0.00522199)
(-0.0651036 0 -0.0052679)
(-0.0661461 0 -0.00525238)
(-0.0673853 0 -0.00513818)
(-0.0687186 0 -0.00491687)
(-0.0701475 0 -0.00457909)
(-0.0716748 0 -0.00411023)
(-0.0733033 0 -0.00349221)
(-0.075036 0 -0.00270375)
(-0.0768761 0 -0.00172013)
(-0.0788269 0 -0.000512871)
(-0.0808923 0 0.000950635)
(-0.0830764 0 0.00270764)
(-0.0853837 0 0.00480104)
(-0.0878184 0 0.00728066)
(-0.0903847 0 0.0102044)
(-0.0930853 0 0.0136395)
(-0.0959213 0 0.0176639)
(-0.0988901 0 0.022368)
(-0.101984 0 0.0278566)
(-0.10519 0 0.034253)
(-0.108475 0 0.0416999)
(-0.0578956 0 -0.000428032)
(-0.0579212 0 -0.000861727)
(-0.0579305 0 -0.00112704)
(-0.0579509 0 -0.00132089)
(-0.0579786 0 -0.00147657)
(-0.0580114 0 -0.00161162)
(-0.0580506 0 -0.00173475)
(-0.058097 0 -0.00185181)
(-0.0581517 0 -0.00196713)
(-0.0582159 0 -0.00208379)
(-0.0582908 0 -0.00220375)
(-0.0583778 0 -0.00232821)
(-0.0584786 0 -0.00245772)
(-0.0585949 0 -0.00259241)
(-0.0587285 0 -0.0027321)
(-0.0588814 0 -0.00287633)
(-0.0590561 0 -0.00302446)
(-0.0592549 0 -0.00317568)
(-0.0594807 0 -0.00332897)
(-0.0597364 0 -0.00348316)
(-0.0600256 0 -0.00363684)
(-0.0603518 0 -0.00378833)
(-0.0607194 0 -0.0039356)
(-0.0611329 0 -0.00407621)
(-0.0615975 0 -0.00420715)
(-0.062119 0 -0.00432469)
(-0.0627038 0 -0.00442414)
(-0.0633589 0 -0.00449948)
(-0.064093 0 -0.00454276)
(-0.0649137 0 -0.00454257)
(-0.0659099 0 -0.00447382)
(-0.0670908 0 -0.0043004)
(-0.0683569 0 -0.00401915)
(-0.0697086 0 -0.00362053)
(-0.0711473 0 -0.00308967)
(-0.072674 0 -0.00240818)
(-0.0742899 0 -0.00155458)
(-0.0759957 0 -0.000504055)
(-0.0777924 0 0.000771728)
(-0.0796807 0 0.00230512)
(-0.0816612 0 0.00413322)
(-0.0837341 0 0.00629893)
(-0.0858989 0 0.00885199)
(-0.0881541 0 0.0118496)
(-0.0904964 0 0.0153574)
(-0.0929188 0 0.0194505)
(-0.0954098 0 0.0242162)
(-0.0979509 0 0.0297552)
(-0.100518 0 0.0361833)
(-0.103063 0 0.0436324)
(-0.0579548 0 -0.000406998)
(-0.0579809 0 -0.000819143)
(-0.0579899 0 -0.00107031)
(-0.05801 0 -0.00125237)
(-0.0580374 0 -0.00139686)
(-0.0580696 0 -0.00152048)
(-0.0581079 0 -0.00163154)
(-0.0581532 0 -0.00173569)
(-0.0582064 0 -0.00183716)
(-0.0582687 0 -0.00193895)
(-0.0583413 0 -0.00204301)
(-0.0584257 0 -0.00215052)
(-0.0585232 0 -0.00226204)
(-0.0586356 0 -0.00237769)
(-0.0587647 0 -0.00249729)
(-0.0589126 0 -0.00262036)
(-0.0590813 0 -0.00274625)
(-0.0592734 0 -0.00287408)
(-0.0594914 0 -0.00300284)
(-0.0597383 0 -0.00313128)
(-0.0600173 0 -0.00325793)
(-0.060332 0 -0.00338107)
(-0.0606864 0 -0.0034986)
(-0.0610847 0 -0.003608)
(-0.0615318 0 -0.00370618)
(-0.0620332 0 -0.00378932)
(-0.0625947 0 -0.00385262)
(-0.0632229 0 -0.00388991)
(-0.0639255 0 -0.0038931)
(-0.0647095 0 -0.00385059)
(-0.0656587 0 -0.00373323)
(-0.0667805 0 -0.00350589)
(-0.0679786 0 -0.00317043)
(-0.0692522 0 -0.0027175)
(-0.0706013 0 -0.00213234)
(-0.0720252 0 -0.00139668)
(-0.073523 0 -0.000489025)
(-0.0750933 0 0.000615414)
(-0.0767345 0 0.00194489)
(-0.0784445 0 0.00353145)
(-0.0802204 0 0.00541177)
(-0.0820583 0 0.00762815)
(-0.0839529 0 0.0102294)
(-0.0858976 0 0.0132715)
(-0.0878832 0 0.016818)
(-0.089896 0 0.0209415)
(-0.0919162 0 0.025725)
(-0.0939165 0 0.0312632)
(-0.0958632 0 0.0376623)
(-0.0976967 0 0.0450422)
(-0.0579981 0 -0.000385928)
(-0.058025 0 -0.000776594)
(-0.0580337 0 -0.00101382)
(-0.0580536 0 -0.00118439)
(-0.0580808 0 -0.00131812)
(-0.0581127 0 -0.0014308)
(-0.0581504 0 -0.00153035)
(-0.0581948 0 -0.00162222)
(-0.0582469 0 -0.00171049)
(-0.0583076 0 -0.00179809)
(-0.0583782 0 -0.00188696)
(-0.05846 0 -0.00197825)
(-0.0585546 0 -0.00207252)
(-0.0586634 0 -0.00216992)
(-0.0587883 0 -0.00227022)
(-0.0589312 0 -0.00237298)
(-0.0590942 0 -0.0024775)
(-0.0592796 0 -0.0025829)
(-0.05949 0 -0.00268813)
(-0.0597282 0 -0.0027919)
(-0.0599971 0 -0.00289272)
(-0.0603004 0 -0.0029888)
(-0.0606415 0 -0.00307799)
(-0.0610247 0 -0.00315773)
(-0.0614543 0 -0.00322487)
(-0.0619355 0 -0.00327553)
(-0.0624737 0 -0.00330483)
(-0.0630748 0 -0.00330656)
(-0.0637457 0 -0.00327256)
(-0.0644927 0 -0.00319113)
(-0.0653946 0 -0.00302961)
(-0.0664569 0 -0.00275396)
(-0.0675864 0 -0.00237078)
(-0.0687816 0 -0.00187088)
(-0.0700409 0 -0.00123971)
(-0.0713619 0 -0.000459231)
(-0.0727416 0 0.000491818)
(-0.0741764 0 0.00163789)
(-0.0756621 0 0.00300679)
(-0.0771941 0 0.00463001)
(-0.0787661 0 0.00654356)
(-0.0803702 0 0.00878892)
(-0.0819968 0 0.0114137)
(-0.0836344 0 0.0144719)
(-0.0852685 0 0.0180246)
(-0.086879 0 0.0221412)
(-0.0884394 0 0.0269002)
(-0.0899154 0 0.0323892)
(-0.0912656 0 0.0387054)
(-0.0924227 0 0.0459565)
(-0.0580246 0 -0.000364682)
(-0.0580524 0 -0.000733792)
(-0.0580608 0 -0.00095717)
(-0.0580807 0 -0.00111651)
(-0.0581079 0 -0.00123984)
(-0.0581396 0 -0.00134205)
(-0.058177 0 -0.00143064)
(-0.0582208 0 -0.00151083)
(-0.0582718 0 -0.00158657)
(-0.0583313 0 -0.00166069)
(-0.0584002 0 -0.0017351)
(-0.0584798 0 -0.00181092)
(-0.0585716 0 -0.00188874)
(-0.0586772 0 -0.00196867)
(-0.0587981 0 -0.00205052)
(-0.0589363 0 -0.00213382)
(-0.0590939 0 -0.00221788)
(-0.0592729 0 -0.00230182)
(-0.0594759 0 -0.00238454)
(-0.0597055 0 -0.00246477)
(-0.0599646 0 -0.00254096)
(-0.0602565 0 -0.0026113)
(-0.0605845 0 -0.00267362)
(-0.0609526 0 -0.0027253)
(-0.0613649 0 -0.00276317)
(-0.061826 0 -0.00278332)
(-0.0623409 0 -0.00278084)
(-0.0629149 0 -0.00274952)
(-0.0635543 0 -0.00268119)
(-0.0642644 0 -0.00256417)
(-0.0651191 0 -0.0023628)
(-0.066122 0 -0.00204437)
(-0.0671833 0 -0.00161989)
(-0.0683005 0 -0.00108038)
(-0.0694704 0 -0.000411572)
(-0.070689 0 0.000404296)
(-0.0719513 0 0.00138807)
(-0.0732517 0 0.00256363)
(-0.0745836 0 0.003958)
(-0.0759396 0 0.00560182)
(-0.0773102 0 0.00753017)
(-0.0786838 0 0.00978341)
(-0.0800467 0 0.0124076)
(-0.0813832 0 0.0154544)
(-0.0826736 0 0.0189823)
(-0.0838924 0 0.0230569)
(-0.0850077 0 0.027752)
(-0.0859791 0 0.0331481)
(-0.0867598 0 0.0393334)
(-0.0872781 0 0.0464048)
(-0.0580333 0 -0.000343139)
(-0.0580621 0 -0.000690484)
(-0.0580703 0 -0.000900036)
(-0.0580903 0 -0.00104832)
(-0.0581177 0 -0.00116158)
(-0.0581494 0 -0.00125374)
(-0.0581866 0 -0.0013319)
(-0.0582299 0 -0.00140101)
(-0.0582803 0 -0.00146487)
(-0.0583387 0 -0.00152622)
(-0.0584061 0 -0.00158691)
(-0.0584839 0 -0.00164805)
(-0.0585733 0 -0.00171021)
(-0.0586758 0 -0.00177352)
(-0.0587931 0 -0.00183778)
(-0.058927 0 -0.00190252)
(-0.0590793 0 -0.00196706)
(-0.0592522 0 -0.00203051)
(-0.0594481 0 -0.00209177)
(-0.0596694 0 -0.00214955)
(-0.059919 0 -0.00220232)
(-0.0601997 0 -0.00224822)
(-0.060515 0 -0.0022851)
(-0.0608683 0 -0.00231032)
(-0.0612635 0 -0.00232071)
(-0.0617047 0 -0.00231237)
(-0.0621966 0 -0.00228042)
(-0.0627439 0 -0.00221868)
(-0.063352 0 -0.00211902)
(-0.0640257 0 -0.00196987)
(-0.0648336 0 -0.00173299)
(-0.0657778 0 -0.00137719)
(-0.0667717 0 -0.000917535)
(-0.0678118 0 -0.000345429)
(-0.0688936 0 0.000352999)
(-0.0700113 0 0.00119505)
(-0.071158 0 0.00220099)
(-0.0723261 0 0.00339395)
(-0.073507 0 0.0048)
(-0.0746905 0 0.00644873)
(-0.075864 0 0.00837404)
(-0.0770122 0 0.0106149)
(-0.0781179 0 0.0132153)
(-0.0791615 0 0.0162246)
(-0.0801187 0 0.0196982)
(-0.0809591 0 0.0236982)
(-0.0816462 0 0.0282933)
(-0.0821357 0 0.0335573)
(-0.082376 0 0.0395698)
(-0.0822945 0 0.0464176)
(-0.0580236 0 -0.000321212)
(-0.0580535 0 -0.000646486)
(-0.0580615 0 -0.00084216)
(-0.0580817 0 -0.000979517)
(-0.0581094 0 -0.00108295)
(-0.0581412 0 -0.00116545)
(-0.0581783 0 -0.00123366)
(-0.0582215 0 -0.00129226)
(-0.0582713 0 -0.00134487)
(-0.0583289 0 -0.00139414)
(-0.0583951 0 -0.00144184)
(-0.0584712 0 -0.00148908)
(-0.0585585 0 -0.0015364)
(-0.0586583 0 -0.00158393)
(-0.0587723 0 -0.00163148)
(-0.058902 0 -0.00167858)
(-0.0590495 0 -0.00172456)
(-0.0592167 0 -0.00176852)
(-0.0594057 0 -0.00180939)
(-0.0596192 0 -0.00184587)
(-0.0598595 0 -0.00187642)
(-0.0601295 0 -0.00189922)
(-0.0604324 0 -0.0019121)
(-0.0607712 0 -0.00191247)
(-0.0611497 0 -0.00189717)
(-0.0615715 0 -0.00186235)
(-0.0620409 0 -0.00180319)
(-0.0625619 0 -0.00171361)
(-0.0631395 0 -0.0015856)
(-0.0637774 0 -0.00140773)
(-0.0645395 0 -0.00113966)
(-0.0654261 0 -0.000751792)
(-0.0663539 0 -0.000262995)
(-0.0673186 0 0.000334856)
(-0.0683142 0 0.00105509)
(-0.0693332 0 0.00191439)
(-0.0703672 0 0.00293229)
(-0.0714065 0 0.00413095)
(-0.0724405 0 0.00553534)
(-0.0734563 0 0.0071738)
(-0.0744383 0 0.00907888)
(-0.0753681 0 0.0112878)
(-0.0762252 0 0.0138424)
(-0.0769861 0 0.0167894)
(-0.0776226 0 0.0201812)
(-0.0780999 0 0.0240761)
(-0.0783781 0 0.0285381)
(-0.0784098 0 0.0336348)
(-0.0781402 0 0.0394379)
(-0.0774976 0 0.0460252)
(-0.0579951 0 -0.000298855)
(-0.0580262 0 -0.000601692)
(-0.058034 0 -0.000783388)
(-0.0580543 0 -0.000909891)
(-0.0580824 0 -0.00100372)
(-0.0581144 0 -0.00107689)
(-0.0581516 0 -0.00113557)
(-0.0581946 0 -0.00118417)
(-0.0582442 0 -0.00122613)
(-0.058301 0 -0.00126396)
(-0.0583663 0 -0.0012994)
(-0.058441 0 -0.00133349)
(-0.0585264 0 -0.00136676)
(-0.0586238 0 -0.00139936)
(-0.0587347 0 -0.00143108)
(-0.0588608 0 -0.00146146)
(-0.0590037 0 -0.00148984)
(-0.0591655 0 -0.00151535)
(-0.0593481 0 -0.0015369)
(-0.059554 0 -0.00155322)
(-0.0597855 0 -0.0015628)
(-0.0600453 0 -0.00156383)
(-0.0603361 0 -0.00155417)
(-0.0606611 0 -0.00153129)
(-0.0610233 0 -0.00149207)
(-0.0614263 0 -0.00143274)
(-0.0618738 0 -0.0013486)
(-0.0623694 0 -0.00123369)
(-0.0629172 0 -0.0010802)
(-0.0635202 0 -0.000876931)
(-0.0642378 0 -0.000581857)
(-0.0650684 0 -0.000167096)
(-0.0659321 0 0.000344971)
(-0.0668237 0 0.000961893)
(-0.0677357 0 0.00169635)
(-0.0686593 0 0.00256427)
(-0.0695843 0 0.0035843)
(-0.0704992 0 0.00477746)
(-0.0713915 0 0.00616742)
(-0.0722458 0 0.00778112)
(-0.0730436 0 0.00964955)
(-0.0737636 0 0.011808)
(-0.0743823 0 0.0142959)
(-0.0748728 0 0.0171572)
(-0.0752028 0 0.0204412)
(-0.0753342 0 0.0242028)
(-0.0752242 0 0.0285012)
(-0.0748232 0 0.0333987)
(-0.0740744 0 0.0389607)
(-0.0729082 0 0.045257)
(-0.0579474 0 -0.00027606)
(-0.0579797 0 -0.000556074)
(-0.0579873 0 -0.00072366)
(-0.0580079 0 -0.000839343)
(-0.0580363 0 -0.000923738)
(-0.0580686 0 -0.00098785)
(-0.058106 0 -0.00103739)
(-0.058149 0 -0.00107646)
(-0.0581983 0 -0.00110831)
(-0.0582547 0 -0.00113532)
(-0.0583191 0 -0.00115915)
(-0.0583926 0 -0.00118081)
(-0.0584764 0 -0.00120082)
(-0.0585716 0 -0.00121929)
(-0.0586798 0 -0.00123604)
(-0.0588024 0 -0.00125062)
(-0.0589412 0 -0.00126237)
(-0.0590979 0 -0.00127042)
(-0.0592746 0 -0.00127373)
(-0.0594733 0 -0.00127105)
(-0.0596965 0 -0.00126087)
(-0.0599465 0 -0.00124145)
(-0.0602259 0 -0.00121071)
(-0.0605374 0 -0.00116615)
(-0.0608841 0 -0.00110476)
(-0.061269 0 -0.00102286)
(-0.0616954 0 -0.00091591)
(-0.0621664 0 -0.00077813)
(-0.0626856 0 -0.000601943)
(-0.0632551 0 -0.000376485)
(-0.0639298 0 -5.84403e-05)
(-0.0647065 0 0.000378243)
(-0.0655085 0 0.000907963)
(-0.0663298 0 0.00153758)
(-0.0671617 0 0.00227901)
(-0.0679938 0 0.00314733)
(-0.0688144 0 0.00416009)
(-0.0696105 0 0.00533706)
(-0.0703675 0 0.00670045)
(-0.0710677 0 0.00827564)
(-0.07169 0 0.0100918)
(-0.0722104 0 0.0121822)
(-0.0726026 0 0.0145836)
(-0.0728364 0 0.0173373)
(-0.072876 0 0.0204894)
(-0.0726801 0 0.0240914)
(-0.0722037 0 0.0281982)
(-0.0713953 0 0.0328677)
(-0.0701971 0 0.0381606)
(-0.0685428 0 0.0441404)
(-0.0578806 0 -0.000252846)
(-0.0579141 0 -0.000509655)
(-0.0579215 0 -0.000662984)
(-0.0579422 0 -0.000767853)
(-0.057971 0 -0.00084294)
(-0.0580036 0 -0.000898235)
(-0.0580412 0 -0.000938957)
(-0.0580842 0 -0.000968918)
(-0.0581334 0 -0.00099114)
(-0.0581894 0 -0.00100789)
(-0.0582531 0 -0.00102074)
(-0.0583256 0 -0.00103065)
(-0.0584079 0 -0.00103813)
(-0.0585013 0 -0.00104327)
(-0.058607 0 -0.00104589)
(-0.0587265 0 -0.00104554)
(-0.0588615 0 -0.00104159)
(-0.0590135 0 -0.00103319)
(-0.0591846 0 -0.00101931)
(-0.0593767 0 -0.00099874)
(-0.059592 0 -0.000970023)
(-0.0598327 0 -0.000931459)
(-0.0601012 0 -0.000881032)
(-0.0604001 0 -0.000816335)
(-0.0607319 0 -0.000734464)
(-0.0610996 0 -0.000631883)
(-0.0615058 0 -0.000504217)
(-0.0619535 0 -0.000345927)
(-0.0624453 0 -0.000149729)
(-0.0629828 0 9.4847e-05)
(-0.0636166 0 0.000432007)
(-0.0643419 0 0.000885884)
(-0.0650852 0 0.00142793)
(-0.0658397 0 0.00206421)
(-0.0665954 0 0.00280579)
(-0.0673407 0 0.00366672)
(-0.0680624 0 0.00466336)
(-0.0687461 0 0.00581407)
(-0.0693753 0 0.00713946)
(-0.0699302 0 0.00866319)
(-0.070387 0 0.0104125)
(-0.0707193 0 0.0124183)
(-0.0708983 0 0.0147147)
(-0.0708907 0 0.0173402)
(-0.0706573 0 0.0203381)
(-0.0701543 0 0.023756)
(-0.0693341 0 0.0276451)
(-0.0681437 0 0.0320604)
(-0.0665248 0 0.0370586)
(-0.0644146 0 0.0426993)
(-0.0577946 0 -0.000229248)
(-0.0578295 0 -0.000462492)
(-0.0578365 0 -0.000601415)
(-0.0578575 0 -0.000695459)
(-0.0578866 0 -0.000761337)
(-0.0579195 0 -0.000808012)
(-0.0579572 0 -0.000840204)
(-0.0580003 0 -0.000861417)
(-0.0580494 0 -0.000874456)
(-0.0581051 0 -0.000881453)
(-0.0581683 0 -0.000883889)
(-0.0582399 0 -0.000882685)
(-0.058321 0 -0.000878308)
(-0.0584126 0 -0.000870857)
(-0.0585161 0 -0.000860139)
(-0.0586328 0 -0.000845724)
(-0.0587642 0 -0.000826977)
(-0.0589119 0 -0.000803084)
(-0.0590778 0 -0.000773047)
(-0.0592637 0 -0.000735681)
(-0.0594716 0 -0.000689591)
(-0.0597037 0 -0.000633141)
(-0.059962 0 -0.000564394)
(-0.0602489 0 -0.000481046)
(-0.0605668 0 -0.000380321)
(-0.0609181 0 -0.000258848)
(-0.0613053 0 -0.000112466)
(-0.0617308 0 6.40918e-05)
(-0.0621968 0 0.000277764)
(-0.0627041 0 0.000538556)
(-0.0632993 0 0.000891194)
(-0.0639761 0 0.00135781)
(-0.0646642 0 0.00190718)
(-0.0653559 0 0.00254448)
(-0.0660401 0 0.00327981)
(-0.066704 0 0.00412611)
(-0.0673332 0 0.00509838)
(-0.0679118 0 0.00621343)
(-0.0684217 0 0.00749018)
(-0.0688409 0 0.00895042)
(-0.0691434 0 0.0106193)
(-0.0693007 0 0.012525)
(-0.0692812 0 0.0146991)
(-0.0690488 0 0.0171773)
(-0.0685612 0 0.0199999)
(-0.0677722 0 0.023211)
(-0.0666315 0 0.0268585)
(-0.0650845 0 0.0309947)
(-0.0630725 0 0.0356747)
(-0.0605354 0 0.0409553)
(-0.0576898 0 -0.00020531)
(-0.0577259 0 -0.000414664)
(-0.0577327 0 -0.000539039)
(-0.0577538 0 -0.000622234)
(-0.0577832 0 -0.000678981)
(-0.0578164 0 -0.000717201)
(-0.0578543 0 -0.000741112)
(-0.0578974 0 -0.000753897)
(-0.0579464 0 -0.000758146)
(-0.0580019 0 -0.000755845)
(-0.0580646 0 -0.000748388)
(-0.0581355 0 -0.000736645)
(-0.0582154 0 -0.000721052)
(-0.0583055 0 -0.000701699)
(-0.058407 0 -0.000678391)
(-0.0585211 0 -0.000650705)
(-0.0586493 0 -0.000618024)
(-0.0587931 0 -0.000579554)
(-0.0589542 0 -0.000534333)
(-0.0591343 0 -0.00048122)
(-0.0593354 0 -0.000418879)
(-0.0595594 0 -0.000345745)
(-0.0598082 0 -0.000259977)
(-0.0600839 0 -0.000159386)
(-0.0603887 0 -4.13469e-05)
(-0.0607248 0 9.73208e-05)
(-0.0610943 0 0.000260537)
(-0.0614991 0 0.00045326)
(-0.0619409 0 0.000682033)
(-0.06242 0 0.000956337)
(-0.0629792 0 0.00132107)
(-0.0636109 0 0.0017963)
(-0.0642476 0 0.00234836)
(-0.0648809 0 0.00298147)
(-0.0654989 0 0.00370466)
(-0.0660875 0 0.00452964)
(-0.0666311 0 0.00546995)
(-0.0671129 0 0.00654072)
(-0.0675129 0 0.00775904)
(-0.0678072 0 0.00914471)
(-0.0679678 0 0.0107205)
(-0.0679641 0 0.012512)
(-0.0677622 0 0.0145479)
(-0.0673228 0 0.0168609)
(-0.0666012 0 0.0194886)
(-0.0655484 0 0.0224715)
(-0.0641114 0 0.0258546)
(-0.0622331 0 0.0296883)
(-0.0598545 0 0.0340269)
(-0.0569165 0 0.0389267)
(-0.0575666 0 -0.000181083)
(-0.0576039 0 -0.000366261)
(-0.0576103 0 -0.00047596)
(-0.0576315 0 -0.000548279)
(-0.0576612 0 -0.000595957)
(-0.0576946 0 -0.000625864)
(-0.0577326 0 -0.00064171)
(-0.0577759 0 -0.000646353)
(-0.0578248 0 -0.000642161)
(-0.0578801 0 -0.000630973)
(-0.0579423 0 -0.000614091)
(-0.0580125 0 -0.000592333)
(-0.0580914 0 -0.000566106)
(-0.0581801 0 -0.000535486)
(-0.0582797 0 -0.000500279)
(-0.0583915 0 -0.000460067)
(-0.0585167 0 -0.000414251)
(-0.058657 0 -0.000362064)
(-0.0588137 0 -0.000302576)
(-0.0589885 0 -0.000234698)
(-0.0591833 0 -0.000157155)
(-0.0593998 0 -6.84671e-05)
(-0.0596399 0 3.3105e-05)
(-0.0599053 0 0.000149618)
(-0.060198 0 0.00028353)
(-0.06052 0 0.000437812)
(-0.0608731 0 0.000616113)
(-0.0612588 0 0.000823053)
(-0.0616783 0 0.00106474)
(-0.0621313 0 0.00135007)
(-0.0626574 0 0.0017238)
(-0.0632477 0 0.00220387)
(-0.0638372 0 0.00275439)
(-0.0644172 0 0.00337858)
(-0.0649746 0 0.0040843)
(-0.0654945 0 0.00488191)
(-0.0659604 0 0.00578339)
(-0.0663542 0 0.00680206)
(-0.0666545 0 0.00795309)
(-0.0668357 0 0.00925414)
(-0.0668679 0 0.0107255)
(-0.0667186 0 0.0123898)
(-0.0663514 0 0.0142727)
(-0.0657244 0 0.0164042)
(-0.06479 0 0.0188185)
(-0.0634968 0 0.0215531)
(-0.0617885 0 0.0246501)
(-0.0596046 0 0.0281583)
(-0.0568853 0 0.0321319)
(-0.0535703 0 0.0366287)
(-0.0574252 0 -0.00015662)
(-0.0574638 0 -0.000317385)
(-0.0574698 0 -0.000412292)
(-0.057491 0 -0.000473709)
(-0.057521 0 -0.000512369)
(-0.0575545 0 -0.000534086)
(-0.0575927 0 -0.000542056)
(-0.057636 0 -0.000538811)
(-0.0576849 0 -0.00052649)
(-0.0577399 0 -0.000506783)
(-0.0578018 0 -0.000480898)
(-0.0578712 0 -0.000449599)
(-0.0579492 0 -0.000413264)
(-0.0580367 0 -0.000371955)
(-0.0581346 0 -0.000325476)
(-0.0582443 0 -0.000273421)
(-0.0583668 0 -0.000215205)
(-0.0585038 0 -0.000150087)
(-0.0586565 0 -7.71789e-05)
(-0.0588266 0 4.55961e-06)
(-0.0590156 0 9.63321e-05)
(-0.0592253 0 0.000199532)
(-0.0594574 0 0.000315784)
(-0.0597134 0 0.000447002)
(-0.0599951 0 0.000595463)
(-0.0603042 0 0.000763906)
(-0.0606423 0 0.000955694)
(-0.0610106 0 0.00117508)
(-0.0614098 0 0.00142769)
(-0.0618392 0 0.00172179)
(-0.0623353 0 0.00210173)
(-0.0628879 0 0.00258324)
(-0.063435 0 0.00312847)
(-0.0639669 0 0.00373952)
(-0.0644699 0 0.00442303)
(-0.0649283 0 0.00518791)
(-0.0653248 0 0.00604446)
(-0.0656402 0 0.00700412)
(-0.065852 0 0.00807999)
(-0.0659326 0 0.00928743)
(-0.0658508 0 0.0106441)
(-0.0655723 0 0.0121696)
(-0.0650584 0 0.0138864)
(-0.0642641 0 0.0158212)
(-0.0631396 0 0.018005)
(-0.0616307 0 0.0204721)
(-0.0596771 0 0.023262)
(-0.0572145 0 0.0264218)
(-0.0541803 0 0.0300058)
(-0.0505114 0 0.0340742)
(-0.0572662 0 -0.000131979)
(-0.057306 0 -0.000268136)
(-0.0573115 0 -0.000348154)
(-0.0573328 0 -0.000398643)
(-0.057363 0 -0.000428328)
(-0.0573967 0 -0.000441962)
(-0.0574349 0 -0.000442224)
(-0.0574782 0 -0.000431316)
(-0.057527 0 -0.000411145)
(-0.0575818 0 -0.000383248)
(-0.0576433 0 -0.000348737)
(-0.0577122 0 -0.000308321)
(-0.0577893 0 -0.000262348)
(-0.0578756 0 -0.000210869)
(-0.057972 0 -0.000153686)
(-0.0580797 0 -9.03995e-05)
(-0.0581999 0 -2.0445e-05)
(-0.0583339 0 5.68903e-05)
(-0.058483 0 0.000142455)
(-0.0586487 0 0.000237233)
(-0.0588326 0 0.000342356)
(-0.0590362 0 0.000459121)
(-0.0592611 0 0.000589035)
(-0.0595086 0 0.000733856)
(-0.0597804 0 0.000895668)
(-0.060078 0 0.00107697)
(-0.0604026 0 0.0012808)
(-0.0607553 0 0.00151104)
(-0.0611363 0 0.00177281)
(-0.0615446 0 0.0020737)
(-0.0620138 0 0.00245736)
(-0.0625331 0 0.00293735)
(-0.0630425 0 0.003474)
(-0.063532 0 0.00406827)
(-0.0639872 0 0.00472546)
(-0.0643917 0 0.00545297)
(-0.0647277 0 0.00625933)
(-0.064975 0 0.00715401)
(-0.0651098 0 0.00814789)
(-0.0651033 0 0.0092539)
(-0.0649229 0 0.0104868)
(-0.0645327 0 0.0118633)
(-0.0638917 0 0.0134022)
(-0.0629521 0 0.0151268)
(-0.0616615 0 0.0170644)
(-0.0599629 0 0.0192461)
(-0.0577916 0 0.0217087)
(-0.0550787 0 0.024497)
(-0.0517569 0 0.0276653)
(-0.0477573 0 0.0312762)
(-0.0570899 0 -0.000107211)
(-0.057131 0 -0.000218613)
(-0.057136 0 -0.000283661)
(-0.0571572 0 -0.000323199)
(-0.0571876 0 -0.000343944)
(-0.0572214 0 -0.000349587)
(-0.0572597 0 -0.000342289)
(-0.057303 0 -0.000323916)
(-0.0573517 0 -0.000296142)
(-0.0574063 0 -0.000260347)
(-0.0574674 0 -0.000217546)
(-0.0575357 0 -0.000168389)
(-0.057612 0 -0.000113198)
(-0.0576973 0 -5.20065e-05)
(-0.0577923 0 1.53813e-05)
(-0.0578983 0 8.93549e-05)
(-0.0580163 0 0.000170461)
(-0.0581476 0 0.000259382)
(-0.0582935 0 0.000356925)
(-0.0584554 0 0.000464014)
(-0.0586348 0 0.000581703)
(-0.058833 0 0.000711194)
(-0.0590514 0 0.000853863)
(-0.0592915 0 0.00101131)
(-0.0595545 0 0.00118541)
(-0.0598418 0 0.00137841)
(-0.0601546 0 0.00159303)
(-0.0604936 0 0.00183274)
(-0.0608586 0 0.00210212)
(-0.0612483 0 0.00240808)
(-0.0616942 0 0.00279337)
(-0.0621844 0 0.0032693)
(-0.0626612 0 0.00379459)
(-0.0631142 0 0.00436901)
(-0.0635285 0 0.00499646)
(-0.0638873 0 0.00568273)
(-0.064172 0 0.00643453)
(-0.0643619 0 0.00725924)
(-0.0644321 0 0.00816544)
(-0.0643526 0 0.00916342)
(-0.0640897 0 0.010265)
(-0.0636062 0 0.0114835)
(-0.0628588 0 0.0128344)
(-0.0617972 0 0.0143369)
(-0.0603663 0 0.0160141)
(-0.0585057 0 0.0178937)
(-0.0561463 0 0.0200093)
(-0.0532136 0 0.022403)
(-0.0496338 0 0.0251282)
(-0.0453295 0 0.028249)
(-0.0568969 0 -8.23677e-05)
(-0.0569392 0 -0.000168909)
(-0.0569435 0 -0.000218921)
(-0.0569647 0 -0.000247486)
(-0.0569952 0 -0.000259316)
(-0.0570291 0 -0.000257045)
(-0.0570674 0 -0.000242314)
(-0.0571107 0 -0.000216651)
(-0.0571593 0 -0.000181492)
(-0.0572137 0 -0.000138055)
(-0.0572744 0 -8.72574e-05)
(-0.0573423 0 -2.9691e-05)
(-0.0574179 0 3.43551e-05)
(-0.0575022 0 0.000104857)
(-0.057596 0 0.000182013)
(-0.0577005 0 0.000266201)
(-0.0578166 0 0.000357948)
(-0.0579456 0 0.000457905)
(-0.0580887 0 0.000566834)
(-0.0582472 0 0.000685599)
(-0.0584226 0 0.000815174)
(-0.058616 0 0.000956657)
(-0.0588289 0 0.00111129)
(-0.0590625 0 0.00128052)
(-0.0593179 0 0.00146599)
(-0.0595963 0 0.00166969)
(-0.0598989 0 0.00189402)
(-0.060226 0 0.00214201)
(-0.0605773 0 0.00241773)
(-0.0609512 0 0.00272732)
(-0.0613772 0 0.00311249)
(-0.0618429 0 0.00358231)
(-0.0622925 0 0.00409401)
(-0.0627152 0 0.00464612)
(-0.0630957 0 0.00524111)
(-0.063417 0 0.00588309)
(-0.0636601 0 0.00657685)
(-0.0638037 0 0.00732767)
(-0.0638222 0 0.0081417)
(-0.0636845 0 0.00902639)
(-0.0633561 0 0.00999038)
(-0.0627984 0 0.0110435)
(-0.0619664 0 0.0121978)
(-0.0608074 0 0.0134679)
(-0.0592635 0 0.0148724)
(-0.0572706 0 0.0164345)
(-0.0547549 0 0.0181846)
(-0.0516362 0 0.0201607)
(-0.0478317 0 0.0224142)
(-0.0432531 0 0.0250085)
(-0.0566874 0 -5.7496e-05)
(-0.0567309 0 -0.000119108)
(-0.0567346 0 -0.000154033)
(-0.0567557 0 -0.000171601)
(-0.0567864 0 -0.000174534)
(-0.0568203 0 -0.00016441)
(-0.0568586 0 -0.000142351)
(-0.0569018 0 -0.000109545)
(-0.0569503 0 -6.7186e-05)
(-0.0570045 0 -1.63298e-05)
(-0.057065 0 4.22108e-05)
(-0.0571323 0 0.000107903)
(-0.0572073 0 0.000180489)
(-0.0572908 0 0.000259958)
(-0.0573836 0 0.000346508)
(-0.0574867 0 0.000440506)
(-0.0576012 0 0.000542458)
(-0.0577282 0 0.000652982)
(-0.0578689 0 0.000772792)
(-0.0580245 0 0.000902691)
(-0.0581965 0 0.00104357)
(-0.0583859 0 0.00119642)
(-0.0585941 0 0.00136236)
(-0.0588221 0 0.00154264)
(-0.059071 0 0.00173872)
(-0.059342 0 0.0019523)
(-0.059636 0 0.00218544)
(-0.0599532 0 0.00244077)
(-0.0602931 0 0.00272178)
(-0.0606539 0 0.00303387)
(-0.0610637 0 0.00341756)
(-0.0615095 0 0.0038797)
(-0.0619372 0 0.00437613)
(-0.0623359 0 0.00490412)
(-0.0626901 0 0.00546465)
(-0.0629824 0 0.00606011)
(-0.0631938 0 0.00669334)
(-0.0633027 0 0.00736744)
(-0.0632827 0 0.00808605)
(-0.0631022 0 0.00885362)
(-0.0627258 0 0.00967537)
(-0.0621139 0 0.0105576)
(-0.0612201 0 0.0115083)
(-0.0599896 0 0.0125376)
(-0.0583617 0 0.0136587)
(-0.0562684 0 0.0148899)
(-0.0536313 0 0.016257)
(-0.0503637 0 0.0177932)
(-0.0463725 0 0.0195456)
(-0.0415565 0 0.0215744)
(-0.0564618 0 -3.26408e-05)
(-0.0565065 0 -6.9293e-05)
(-0.0565096 0 -8.90867e-05)
(-0.0565306 0 -9.56325e-05)
(-0.0565613 0 -8.96734e-05)
(-0.0565952 0 -7.17387e-05)
(-0.0566335 0 -4.24336e-05)
(-0.0566768 0 -2.60389e-06)
(-0.0567251 0 4.68001e-05)
(-0.0567792 0 0.000104891)
(-0.0568393 0 0.00017096)
(-0.0569063 0 0.000244538)
(-0.0569808 0 0.000325399)
(-0.0570636 0 0.000413547)
(-0.0571555 0 0.000509177)
(-0.0572575 0 0.000612646)
(-0.0573706 0 0.000724438)
(-0.0574959 0 0.000845137)
(-0.0576346 0 0.000975409)
(-0.0577878 0 0.00111599)
(-0.0579569 0 0.0012677)
(-0.0581431 0 0.00143141)
(-0.0583473 0 0.0016081)
(-0.0585708 0 0.00179886)
(-0.0588145 0 0.00200492)
(-0.0590794 0 0.00222773)
(-0.0593663 0 0.002469)
(-0.0596756 0 0.00273092)
(-0.0600065 0 0.00301645)
(-0.060357 0 0.00333022)
(-0.0607542 0 0.00371147)
(-0.0611848 0 0.00416484)
(-0.0615961 0 0.00464488)
(-0.0619771 0 0.0051476)
(-0.0623124 0 0.00567244)
(-0.0625845 0 0.00622003)
(-0.0627743 0 0.00679122)
(-0.0628601 0 0.00738688)
(-0.0628153 0 0.00800811)
(-0.0626077 0 0.00865623)
(-0.0622015 0 0.00933281)
(-0.0615562 0 0.0100403)
(-0.0606242 0 0.0107825)
(-0.0593493 0 0.0115646)
(-0.0576683 0 0.012394)
(-0.0555089 0 0.0132832)
(-0.0527883 0 0.0142518)
(-0.0494133 0 0.0153269)
(-0.0452794 0 0.0165495)
(-0.0402708 0 0.0179721)
(-0.0562206 0 -7.84514e-06)
(-0.0562664 0 -1.95399e-05)
(-0.0562689 0 -2.41704e-05)
(-0.0562897 0 -1.96635e-05)
(-0.0563204 0 -4.80282e-06)
(-0.0563543 0 2.09209e-05)
(-0.0563926 0 5.74162e-05)
(-0.0564358 0 0.000104179)