/*--------------------------------*- C++ -*----------------------------------*\
  =========                 |
  \\      /  F ield         | OpenFOAM: The Open Source CFD Toolbox
   \\    /   O peration     | Website:  https://openfoam.org
    \\  /    A nd           | Version:  9
     \\/     M anipulation  |
\*---------------------------------------------------------------------------*/
FoamFile
{
    format      ascii;
    class       surfaceScalarField;
    location    "0.01";
    object      alphaPhi0.water;
}
// * * * * * * * * * * * * * * * * * * * * * * * * * * * * * * * * * * * * * //

dimensions      [0 3 -1 0 0 0 0];

internalField   nonuniform List<scalar> 
9850
(
9.00411e-262
3.72563e-261
4.04817e-261
1.7566e-260
1.81091e-260
8.24058e-260
8.38162e-260
3.99972e-259
4.02154e-259
2.01245e-258
2.00112e-258
1.0501e-257
1.03305e-257
5.68447e-257
5.53444e-257
3.19336e-256
3.07798e-256
1.86224e-255
1.77755e-255
1.12766e-254
1.06625e-254
7.09234e-254
6.64477e-254
4.63423e-253
4.30316e-253
3.14659e-252
2.89649e-252
2.2206e-251
2.02684e-251
1.62911e-250
1.47471e-250
1.24267e-249
1.11585e-249
9.85749e-249
8.78192e-249
8.13293e-248
7.18994e-248
6.98017e-247
6.1246e-247
6.23286e-246
5.42887e-246
5.79127e-245
5.00817e-245
5.59993e-244
4.80885e-244
5.63596e-243
4.80663e-243
5.90436e-242
5.00159e-242
6.43914e-241
5.41819e-241
7.31043e-240
6.11026e-240
8.63968e-239
7.17241e-239
1.06275e-237
8.7611e-238
1.36029e-236
1.11323e-236
1.81109e-235
1.47413e-235
2.93127e-234
2.32184e-234
4.61059e-233
3.63881e-233
7.21588e-232
5.6666e-232
1.12217e-230
8.7608e-231
1.73257e-229
1.34341e-229
2.65319e-228
2.04107e-228
4.02567e-227
3.06899e-227
6.04503e-226
4.56116e-226
8.9724e-225
6.69122e-225
1.31455e-223
9.67489e-224
1.89831e-222
1.37659e-222
2.69767e-221
1.92414e-221
3.76614e-220
2.63716e-220
5.1557e-219
3.53699e-219
6.90713e-218
4.6323e-218
9.03632e-217
5.9103e-217
1.15176e-215
7.32787e-216
1.42663e-214
8.80464e-215
1.71261e-213
1.98656e-212
3.68907e-259
1.52706e-258
1.65743e-258
7.1949e-258
7.40897e-258
3.3728e-257
3.42665e-257
1.63584e-256
1.6429e-256
8.22451e-256
8.16893e-256
4.28829e-255
4.21387e-255
2.31959e-254
2.25579e-254
1.30206e-253
1.25358e-253
7.58712e-253
7.23373e-253
4.59063e-252
4.3356e-252
2.88491e-251
2.69972e-251
1.8835e-250
1.74691e-250
1.27782e-249
1.17488e-249
9.01021e-249
8.21439e-249
6.60461e-248
5.97165e-248
5.03367e-247
4.51465e-247
3.98952e-246
3.55005e-246
3.2887e-245
2.90399e-245
2.8201e-244
2.47155e-244
2.51597e-243
2.18889e-243
2.33566e-242
2.01751e-242
2.2565e-241
1.93553e-241
2.26903e-240
1.93296e-240
2.375e-239
2.00964e-239
2.58786e-238
2.17518e-238
2.9355e-237
2.45097e-237
3.46631e-236
2.87466e-236
4.2603e-235
3.50861e-235
5.44863e-234
4.45479e-234
7.24863e-233
5.89464e-233
1.17231e-231
9.27786e-232
1.84259e-230
1.45308e-230
2.88183e-229
2.26146e-229
4.47885e-228
3.4944e-228
6.9112e-227
5.35585e-227
1.05783e-225
8.13396e-226
1.60435e-224
1.22263e-224
2.40829e-223
1.81664e-223
3.5736e-222
2.6646e-222
5.23481e-221
3.85255e-221
7.55893e-220
5.48186e-220
1.07423e-218
7.66354e-219
1.49992e-217
1.05063e-217
2.05388e-216
1.4097e-216
2.7527e-215
1.84724e-215
3.60318e-214
2.3585e-214
4.5957e-213
2.92665e-213
5.69729e-212
3.52001e-212
6.84626e-211
7.95093e-210
1.33913e-256
5.54644e-256
6.01392e-256
2.61216e-255
2.68718e-255
1.224e-254
1.2423e-254
5.93397e-254
5.95364e-254
2.98215e-253
2.95904e-253
1.55424e-252
1.52574e-252
8.40343e-252
8.16411e-252
4.71506e-251
4.53494e-251
2.74625e-250
2.61572e-250
1.6609e-249
1.56705e-249
1.0433e-248
9.75344e-249
6.80837e-248
6.30829e-248
4.61687e-247
4.2407e-247
3.25397e-246
2.9636e-246
2.38409e-245
2.15346e-245
1.81617e-244
1.62729e-244
1.43876e-243
1.279e-243
1.18546e-242
1.04575e-242
1.01606e-241
8.89613e-242
9.06054e-241
7.87502e-241
8.40721e-240
7.25508e-240
8.11846e-239
6.95709e-239
8.15969e-238
6.94471e-238
8.53685e-237
7.21699e-237
9.29775e-236
7.80812e-236
1.05421e-234
8.79446e-235
1.24431e-233
1.03107e-233
1.52871e-232
1.25798e-232
1.95436e-231
1.59668e-231
2.59908e-230
2.11211e-230
4.2021e-229
3.32348e-229
6.60284e-228
5.20405e-228
1.03245e-226
8.09792e-227
1.60432e-225
1.25117e-225
2.47531e-224
1.91762e-224
3.78854e-223
2.91245e-223
5.74606e-222
4.37836e-222
8.62643e-221
6.50702e-221
1.28032e-219
9.54743e-220
1.87605e-218
1.38099e-218
2.71009e-217
1.9661e-217
3.85343e-216
2.7504e-216
5.38395e-215
3.77366e-215
7.37816e-214
5.0681e-214
9.89761e-213
6.64838e-213
1.29695e-211
8.49905e-212
1.65625e-210
1.05614e-210
2.05614e-209
1.27231e-209
2.47475e-208
2.87922e-207
4.84259e-254
2.00725e-253
2.17369e-253
9.44874e-253
9.70789e-253
4.4253e-252
4.48581e-252
2.14434e-251
2.14874e-251
1.07712e-250
1.06743e-250
5.61093e-250
5.50111e-250
3.03219e-249
2.94213e-249
1.70047e-248
1.63344e-248
9.89923e-248
9.41678e-248
5.98385e-247
5.63862e-247
3.75683e-246
3.5077e-246
2.45037e-245
2.26752e-245
1.66076e-244
1.52352e-244
1.16989e-243
1.06415e-243
8.56688e-243
7.72837e-243
6.52265e-242
5.83692e-242
5.16441e-241
4.5852e-241
4.25289e-240
3.74698e-240
3.64318e-239
3.18581e-239
3.24697e-238
2.81862e-238
3.0112e-237
2.59533e-237
2.90619e-236
2.4874e-236
2.91936e-235
2.48166e-235
3.05265e-234
2.57761e-234
3.32297e-233
2.7873e-233
3.76572e-232
3.13783e-232
4.4425e-231
3.67704e-231
5.45517e-230
4.4842e-230
6.97082e-229
5.68905e-229
9.26624e-228
7.5225e-228
1.4975e-226
1.18326e-226
2.35215e-225
1.85222e-225
3.67671e-224
2.88146e-224
5.71165e-223
4.45113e-223
8.81059e-222
6.82118e-222
1.34829e-220
1.03594e-220
2.04479e-219
1.5574e-219
3.06983e-218
2.31485e-218
4.55664e-217
3.39722e-217
6.67821e-216
4.91553e-216
9.65011e-215
7.00135e-215
1.37272e-213
9.79992e-214
1.919e-212
1.34554e-212
2.6316e-211
1.80864e-211
3.53318e-210
2.375e-210
4.63434e-209
3.03971e-209
5.92507e-208
3.78249e-208
7.36552e-207
4.5638e-207
8.87868e-206
1.03479e-204
1.75634e-251
7.28718e-251
7.87906e-251
3.42829e-250
3.51682e-250
1.6047e-249
1.6241e-249
7.77124e-249
7.77501e-249
3.90125e-248
3.86009e-248
2.03104e-247
1.98816e-247
1.09694e-246
1.06268e-246
6.14796e-246
5.89635e-246
3.57685e-245
3.39717e-245
2.1608e-244
2.03293e-244
1.35578e-243
1.26387e-243
8.83748e-243
8.16508e-243
5.98595e-242
5.48259e-242
4.214e-241
3.82705e-241
3.08388e-240
2.77762e-240
2.34649e-239
2.09648e-239
1.85667e-238
1.64583e-238
1.52797e-237
1.34408e-237
1.30805e-236
1.14203e-236
1.16503e-235
1.00973e-235
1.07971e-234
9.29129e-235
1.04136e-233
8.89898e-234
1.04538e-232
8.87255e-233
1.09237e-231
9.2095e-232
1.18831e-230
9.95219e-231
1.34574e-229
1.11965e-229
1.58656e-228
1.31122e-228
1.94696e-227
1.59806e-227
2.48633e-226
2.02623e-226
3.30303e-225
2.67771e-225
5.33484e-224
4.20969e-224
8.37489e-223
6.5864e-223
1.30843e-221
1.02418e-221
2.03167e-220
1.58149e-220
3.13272e-219
2.42281e-219
4.79241e-218
3.67864e-218
7.26617e-217
5.52949e-217
1.09067e-215
8.21826e-216
1.61876e-214
1.20613e-214
2.37247e-213
1.74544e-213
3.42866e-212
2.48674e-212
4.87839e-211
3.4821e-211
6.82226e-210
4.78354e-210
9.36036e-209
6.4343e-209
1.25754e-207
8.4563e-208
1.65081e-206
1.08341e-206
2.11268e-205
1.34979e-205
2.6294e-204
1.63092e-204
3.17396e-203
3.70512e-202
6.37794e-249
2.64945e-248
2.85935e-248
1.24564e-247
1.27546e-247
5.82685e-247
5.88642e-247
2.82001e-246
2.81617e-246
1.41476e-245
1.39725e-245
7.36063e-245
7.19187e-245
3.97275e-244
3.84154e-244
2.22512e-243
2.13008e-243
1.2937e-242
1.22642e-242
7.81004e-242
7.33411e-242
4.897e-241
4.55649e-241
3.18985e-240
2.94162e-240
2.1591e-239
1.97382e-239
1.5189e-238
1.37682e-238
1.11076e-237
9.98568e-238
8.44562e-237
7.53147e-237
6.67776e-236
5.90821e-236
5.49149e-235
4.82142e-235
4.69763e-234
4.09357e-234
4.18081e-233
3.61663e-233
3.8717e-232
3.32538e-232
3.73131e-231
3.18252e-231
3.74279e-230
3.17061e-230
3.90799e-229
3.28846e-229
4.24786e-228
3.55087e-228
4.80684e-227
3.99173e-227
5.66254e-226
4.67109e-226
6.94339e-225
5.68858e-225
8.86004e-224
7.20732e-224
1.17614e-222
9.51765e-223
1.8982e-221
1.49524e-221
2.97774e-220
2.33786e-220
4.649e-219
3.63308e-219
7.21413e-218
5.60686e-218
1.11172e-216
8.58523e-217
1.6998e-215
1.30296e-215
2.57603e-214
1.95782e-214
3.8652e-213
2.90907e-213
5.73503e-212
4.26872e-212
8.40369e-211
6.17707e-211
1.21438e-209
8.8011e-210
1.72792e-208
1.23263e-208
2.41682e-207
1.69391e-207
3.31697e-206
2.2796e-206
4.45829e-205
2.99797e-205
5.85621e-204
3.84423e-204
7.5007e-203
4.79443e-203
9.34455e-202
5.80031e-202
1.12936e-200
1.32026e-199
2.31403e-246
9.62634e-246
1.03671e-245
4.52273e-245
4.62135e-245
2.11423e-244
2.13138e-244
1.02254e-243
1.019e-243
5.12645e-243
5.05232e-243
2.66533e-242
2.59872e-242
1.43756e-241
1.38714e-241
8.0461e-241
7.68611e-241
4.67475e-240
4.42221e-240
2.82013e-239
2.64263e-239
1.76699e-238
1.6406e-238
1.15015e-237
1.05838e-237
7.77925e-237
7.09638e-237
5.4685e-236
4.94628e-236
3.99605e-235
3.58464e-235
3.03603e-234
2.70153e-234
2.39864e-233
2.11759e-233
1.97097e-232
1.72668e-232
1.68468e-231
1.46483e-231
1.49811e-230
1.29309e-230
1.38619e-229
1.18796e-229
1.3348e-228
1.13596e-228
1.33776e-227
1.13073e-227
1.39559e-226
1.17173e-226
1.51562e-225
1.26412e-225
1.71354e-224
1.4198e-224
2.01677e-223
1.65996e-223
2.47073e-222
2.01975e-222
3.14991e-221
2.55671e-221
4.17765e-220
3.37332e-220
6.73639e-219
5.295e-219
1.05583e-217
8.27209e-218
1.64702e-216
1.28449e-216
2.55372e-215
1.98086e-215
3.93237e-214
3.03102e-214
6.00827e-213
4.59726e-213
9.09961e-212
6.9041e-212
1.36457e-210
1.02539e-210
2.02371e-209
1.5041e-209
2.96425e-208
2.17598e-208
4.2823e-207
3.09995e-207
6.09217e-206
4.34164e-206
8.52077e-205
5.96727e-205
1.16956e-203
8.03302e-204
1.5724e-202
1.05696e-202
2.06633e-201
1.35623e-201
2.64821e-200
1.69294e-200
3.30192e-199
2.05038e-199
3.99475e-198
4.67597e-197
8.37217e-244
3.4885e-243
3.74813e-243
1.63782e-242
1.66966e-242
7.65107e-242
7.6952e-242
3.69784e-241
3.67645e-241
1.85261e-240
1.82154e-240
9.62522e-240
9.36267e-240
5.18774e-239
4.994e-239
2.90151e-238
2.76515e-238
1.68454e-237
1.58976e-237
1.01548e-236
9.49305e-237
6.35787e-236
5.88905e-236
4.1353e-235
3.7962e-235
2.79483e-234
2.54337e-234
1.96312e-233
1.77137e-233
1.4334e-232
1.2827e-232
1.08816e-231
9.65909e-232
8.59004e-231
7.56499e-231
7.05257e-230
6.16326e-230
6.02304e-229
5.22408e-229
5.35138e-228
4.60755e-228
4.94721e-227
4.22915e-227
4.75949e-226
4.04031e-226
4.76565e-225
4.01796e-225
4.967e-224
4.1597e-224
5.38904e-223
4.48335e-223
6.08684e-222
5.03057e-222
7.1569e-221
5.87567e-221
8.7591e-220
7.14206e-220
1.11557e-218
9.0318e-219
1.47805e-217
1.19046e-217
2.38091e-216
1.86678e-216
3.72796e-215
2.91356e-215
5.80966e-214
4.51993e-214
8.9993e-213
6.96411e-213
1.3845e-211
1.06471e-211
2.11353e-210
1.61362e-210
3.19836e-209
2.42158e-209
4.79267e-208
3.59423e-208
7.10299e-207
5.26939e-207
1.03982e-205
7.61993e-206
1.50147e-204
1.08521e-204
2.13528e-203
1.51963e-203
2.98583e-202
2.08855e-202
4.098e-201
2.81193e-201
5.50993e-200
3.70098e-200
7.24251e-199
4.75127e-199
9.28607e-198
5.9351e-198
1.15857e-196
7.19498e-197
1.40289e-195
1.64395e-194
3.01551e-241
1.25882e-240
1.349e-240
5.90566e-240
6.00509e-240
2.75689e-239
2.7657e-239
1.33149e-238
1.3204e-238
6.66597e-238
6.53734e-238
3.46081e-237
3.35773e-237
1.86393e-236
1.78968e-236
1.04173e-235
9.90197e-236
6.0435e-235
5.68864e-235
3.64042e-234
3.3943e-234
2.27751e-233
2.10404e-233
1.48019e-232
1.35524e-232
9.99592e-232
9.07253e-232
7.01563e-231
6.31356e-231
5.11837e-230
4.56806e-230
3.88236e-229
3.43696e-229
3.06218e-228
2.6895e-228
2.51193e-227
2.18923e-227
2.14334e-226
1.85395e-226
1.9026e-225
1.63364e-225
1.75727e-224
1.49806e-224
1.68899e-223
1.42978e-223
1.68953e-222
1.42046e-222
1.75916e-221
1.46908e-221
1.90668e-220
1.58174e-220
2.15132e-219
1.77293e-219
2.52683e-218
2.06854e-218
3.08916e-217
2.51163e-217
3.93004e-216
3.1727e-216
5.20125e-215
4.17719e-215
8.36895e-214
6.54308e-214
1.30891e-212
1.02008e-212
2.03754e-211
1.58081e-211
3.15274e-210
2.4331e-210
4.84517e-209
3.71615e-209
7.38892e-208
5.62668e-208
1.11706e-206
8.43659e-207
1.67237e-205
1.2512e-205
2.47647e-204
1.83304e-204
3.62262e-203
2.6491e-203
5.22755e-202
3.77095e-202
7.43029e-201
5.27859e-201
1.03857e-199
7.25329e-200
1.42504e-198
9.76507e-199
1.91582e-197
1.28542e-197
2.5184e-196
1.65075e-196
3.22983e-195
2.06319e-195
4.03156e-194
2.50311e-194
4.88511e-193
5.72995e-192
1.07875e-238
4.51254e-238
4.82209e-238
2.11538e-237
2.14502e-237
9.86796e-237
9.87191e-237
4.76248e-236
4.7096e-236
2.38255e-235
2.33003e-235
1.23605e-234
1.19587e-234
6.65217e-234
6.36921e-234
3.71504e-233
3.52129e-233
2.15361e-232
2.02141e-232
1.29627e-231
1.2052e-231
8.10331e-231
7.46477e-231
5.2623e-230
4.80429e-230
3.55084e-229
3.21355e-229
2.4901e-228
2.23444e-228
1.81518e-227
1.61531e-227
1.37566e-226
1.21428e-226
1.08409e-225
9.49355e-226
8.88494e-225
7.7206e-225
7.57426e-224
6.53208e-224
6.7172e-223
5.75033e-223
6.19813e-222
5.26787e-222
5.95138e-221
5.02268e-221
5.94721e-220
4.98472e-220
6.1858e-219
5.1498e-219
6.69733e-218
5.53861e-218
7.54826e-217
6.20104e-217
8.8557e-216
7.2266e-216
1.08138e-214
8.76421e-215
1.37411e-213
1.10576e-213
1.81637e-212
1.45407e-212
2.91896e-211
2.27483e-211
4.55961e-210
3.54218e-210
7.08895e-209
5.4826e-209
1.09554e-207
8.42851e-208
1.6816e-206
1.28582e-206
2.56141e-205
1.94472e-205
3.86794e-204
2.91281e-204
5.78441e-203
4.31561e-203
8.55685e-202
6.31676e-202
1.25053e-200
9.12158e-201
1.803e-199
1.29753e-199
2.56081e-198
1.81525e-198
3.57712e-197
2.49325e-197
4.90578e-196
3.35573e-196
6.59302e-195
4.41685e-195
8.66517e-194
5.67266e-194
1.1113e-192
7.09205e-193
1.38744e-191
8.60878e-192
1.6819e-190
1.97408e-189
3.45652e-236
1.4492e-235
1.54377e-235
6.78773e-235
6.86167e-235
3.16385e-234
3.15539e-234
1.52572e-233
1.50412e-233
7.62659e-233
7.43542e-233
3.95339e-232
3.813e-232
2.12587e-231
2.02912e-231
1.18624e-230
1.12087e-230
6.8708e-230
6.42885e-230
4.13201e-229
3.82962e-229
2.58076e-228
2.36988e-228
1.67445e-227
1.52385e-227
1.12884e-226
1.01834e-226
7.90884e-226
7.07396e-226
5.75969e-225
5.10886e-225
4.36078e-224
3.83662e-224
3.43306e-223
2.99644e-223
2.8107e-222
2.43422e-222
2.39349e-221
2.05718e-221
2.12027e-220
1.80887e-220
1.95414e-219
1.65508e-219
1.87405e-218
1.57603e-218
1.87033e-217
1.56202e-217
1.94275e-216
1.61146e-216
2.10041e-215
1.73052e-215
2.36371e-214
1.93442e-214
2.76871e-213
2.25053e-213
3.37518e-212
2.72447e-212
4.28107e-211
3.43081e-211
5.64803e-210
4.50221e-210
9.05777e-209
7.02792e-209
1.41173e-207
1.09174e-207
2.18962e-206
1.68551e-206
3.37524e-205
2.58413e-205
5.1666e-204
3.93074e-204
7.84658e-203
5.9263e-203
1.18114e-201
8.84641e-202
1.76033e-200
1.30589e-200
2.59442e-199
1.90387e-199
3.77638e-198
2.73742e-198
5.42109e-197
3.87573e-197
7.66312e-196
5.39445e-196
1.0649e-194
7.36779e-195
1.45216e-193
9.85539e-194
1.93942e-192
1.28835e-192
2.5314e-191
1.64215e-191
3.22166e-190
2.03575e-190
3.98789e-189
2.44779e-189
4.78806e-188
5.55937e-187
6.46575e-234
2.71763e-233
2.88421e-233
1.27131e-232
1.28043e-232
5.91866e-232
5.88105e-232
2.85073e-231
2.79997e-231
1.42325e-230
1.38241e-230
7.36853e-230
7.08029e-230
3.95732e-229
3.763e-229
2.20537e-228
2.07595e-228
1.2757e-227
1.18909e-227
7.66167e-227
7.07373e-227
4.77881e-226
4.37134e-226
3.09627e-225
2.8068e-225
2.08438e-224
1.87294e-224
1.45821e-223
1.29907e-223
1.06034e-222
9.36716e-223
8.0154e-222
7.02297e-222
6.29983e-221
5.47562e-221
5.14894e-220
4.44023e-220
4.37674e-219
3.74536e-219
3.86977e-218
3.28664e-218
3.55937e-217
3.00074e-217
3.40613e-216
2.85081e-216
3.39153e-215
2.81842e-215
3.51403e-214
2.89975e-214
3.7889e-213
3.1048e-213
4.25126e-212
3.45935e-212
4.96348e-211
4.01029e-211
6.02905e-210
4.83562e-210
7.61695e-209
6.06258e-209
1.00049e-207
7.91691e-208
1.59662e-206
1.22899e-206
2.47466e-205
1.8974e-205
3.81456e-204
2.90924e-204
5.83954e-203
4.42609e-203
8.8701e-202
6.67502e-202
1.33556e-200
9.96786e-201
1.99118e-199
1.47213e-199
2.93594e-198
2.14743e-198
4.27571e-197
3.08957e-197
6.14147e-196
4.37732e-196
8.68689e-195
6.097e-195
1.20796e-193
8.33345e-194
1.64832e-192
1.1155e-192
2.20275e-191
1.45919e-191
2.87668e-190
1.86093e-190
3.66266e-189
2.30785e-189
4.53492e-188
2.77545e-188
5.44499e-187
3.22677e-187
6.32041e-186
7.06882e-185
7.12577e-232
3.00313e-231
3.17378e-231
1.40272e-230
1.40685e-230
6.52059e-230
6.45181e-230
3.13584e-229
3.06694e-229
1.56316e-228
1.51183e-228
8.08009e-228
7.73071e-228
4.33251e-227
4.10198e-227
2.41051e-226
2.25918e-226
1.39204e-225
1.29185e-225
8.3462e-225
7.67166e-225
5.19671e-224
4.73239e-224
3.36103e-223
3.03305e-223
2.25846e-222
2.02008e-222
1.577e-221
1.39838e-221
1.14447e-220
1.00628e-220
8.6338e-220
7.5285e-220
6.77147e-219
5.85672e-219
5.52211e-218
4.73815e-218
4.68295e-217
3.98675e-217
4.13024e-216
3.48922e-216
3.7889e-215
3.17669e-215
3.61552e-214
3.00876e-214
3.58903e-213
2.96474e-213
3.70637e-212
3.0393e-212
3.98187e-211
3.24135e-211
4.4501e-210
3.5958e-210
5.17302e-209
4.14842e-209
6.25335e-208
4.97553e-208
7.85817e-207
6.201e-207
1.02605e-205
8.04407e-206
1.62654e-204
1.23938e-204
2.50214e-203
1.89748e-203
3.82468e-202
2.88233e-202
5.80053e-201
4.33981e-201
8.71953e-200
6.46963e-200
1.29775e-198
9.53775e-199
1.91004e-197
1.38866e-197
2.77631e-196
1.99391e-196
3.97967e-195
2.81901e-195
5.61694e-194
3.91769e-194
7.79272e-193
5.34203e-193
1.06076e-191
7.13277e-192
1.41389e-190
9.30562e-191
1.84139e-189
1.18344e-189
2.3377e-188
1.46334e-188
2.88558e-187
1.75443e-187
3.45356e-186
2.03324e-186
3.99547e-185
2.27012e-185
4.4533e-184
4.76443e-183
5.4955e-230
2.3228e-229
2.44379e-229
1.08322e-228
1.08157e-228
5.02751e-228
4.9522e-228
2.41396e-227
2.3503e-227
1.20138e-226
1.15667e-226
6.19986e-226
5.90475e-226
3.3188e-225
3.12779e-225
1.84337e-224
1.71966e-224
1.06268e-223
9.81594e-224
6.36012e-223
5.81857e-223
3.95288e-222
3.58255e-222
2.55177e-221
2.29166e-221
1.71136e-220
1.52324e-220
1.19259e-219
1.05225e-219
8.63689e-219
7.55558e-219
6.50142e-218
5.63984e-218
5.08742e-217
4.37691e-217
4.13879e-216
3.53194e-216
3.50091e-215
2.96375e-215
3.07931e-214
2.58633e-214
2.8166e-213
2.34727e-213
2.67926e-212
2.2156e-212
2.65055e-211
2.17506e-211
2.72702e-210
2.22065e-210
2.91775e-209
2.35763e-209
3.24618e-208
2.60242e-208
3.75474e-207
2.98581e-207
4.5138e-206
3.55912e-206
5.63733e-205
4.40536e-205
7.31026e-204
5.671e-204
1.14998e-202
8.66178e-203
1.75368e-201
1.31332e-201
2.65472e-200
1.97356e-200
3.98286e-199
2.93605e-199
5.91558e-198
4.31901e-198
8.68752e-197
6.27385e-197
1.25984e-195
8.98643e-196
1.80147e-194
1.26725e-194
2.53599e-193
1.75637e-193
3.50867e-192
2.3881e-192
4.76222e-191
3.17911e-191
6.32823e-190
4.13462e-190
8.21532e-189
5.24114e-189
1.03949e-187
6.45909e-188
1.27869e-186
7.71744e-187
1.52497e-185
8.91295e-186
1.75792e-184
9.91714e-185
1.95234e-183
1.05925e-183
2.08141e-182
2.12173e-181
3.3552e-228
1.42257e-227
1.48974e-227
6.62392e-227
6.58346e-227
3.06974e-226
3.00983e-226
1.47171e-225
1.42626e-225
7.31318e-225
7.00823e-225
3.76817e-224
3.572e-224
2.0139e-223
1.88904e-223
1.11677e-222
1.03687e-222
6.42735e-222
5.90848e-222
3.84022e-221
3.49622e-221
2.38256e-220
2.14877e-220
1.53528e-219
1.37194e-219
1.02771e-218
9.10137e-219
7.14781e-218
6.27442e-218
5.16603e-217
4.49565e-217
3.88043e-216
3.3482e-216
3.02963e-215
2.59222e-215
2.45881e-214
2.08645e-214
2.07454e-213
1.746e-213
1.81972e-212
1.51915e-212
1.65954e-211
1.37429e-211
1.57354e-210
1.29264e-210
1.5512e-209
1.26408e-209
1.58979e-208
1.28507e-208
1.69372e-207
1.35789e-207
1.87546e-206
1.491e-206
2.15788e-205
1.70065e-205
2.57893e-204
2.01396e-204
3.19982e-203
2.47463e-203
4.11911e-202
3.15957e-202
6.42686e-201
4.78122e-201
9.70993e-200
7.17474e-200
1.45473e-198
1.06582e-198
2.1575e-197
1.56547e-197
3.16364e-196
2.27041e-196
4.58051e-195
3.24667e-195
6.53885e-194
4.57047e-194
9.18895e-193
6.32315e-193
1.26901e-191
8.58131e-192
1.7191e-190
1.14013e-190
2.27983e-189
1.47977e-189
2.95346e-188
1.8718e-188
3.72882e-187
2.30168e-187
4.57636e-186
2.7438e-186
5.44478e-185
3.16138e-185
6.26105e-184
3.5091e-184
6.93584e-183
3.73896e-183
7.37532e-182
3.80926e-182
7.49879e-181
7.25879e-180
2.04976e-226
8.71959e-226
9.0925e-226
4.05627e-225
4.01482e-225
1.87824e-224
1.83397e-224
8.99725e-224
8.68324e-224
4.4671e-223
4.26302e-223
2.29973e-222
2.1709e-222
1.22801e-221
1.14704e-221
6.8036e-221
6.29015e-221
3.91205e-220
3.58093e-220
2.33514e-219
2.11683e-219
1.44733e-218
1.29964e-218
9.3166e-218
8.2888e-218
6.22967e-217
5.49235e-217
4.32774e-216
3.78168e-216
3.12395e-215
2.70596e-215
2.34339e-214
2.01238e-214
1.82694e-213
1.55554e-213
1.48038e-212
1.24985e-212
1.24684e-211
1.04389e-211
1.09157e-210
9.06297e-211
9.93338e-210
8.17894e-210
9.39583e-209
7.67199e-209
9.23717e-208
7.47927e-208
9.43763e-207
7.57672e-207
1.00193e-205
7.97398e-206
1.10499e-204
8.71567e-205
1.26558e-203
9.88927e-204
1.50463e-202
1.16415e-202
1.85577e-201
1.42072e-201
2.37268e-200
1.79987e-200
3.67322e-199
2.69922e-199
5.49983e-198
4.0093e-198
8.1559e-197
5.88732e-197
1.19565e-195
8.53473e-196
1.73039e-194
1.21964e-194
2.46855e-193
1.7153e-193
3.46567e-192
2.36995e-192
4.77979e-191
3.21066e-191
6.46355e-190
4.25599e-190
8.55197e-189
5.50775e-189
1.10462e-187
6.94142e-188
1.38944e-186
8.49703e-187
1.69745e-185
1.00733e-185
2.00827e-184
1.15292e-184
2.29377e-183
1.26958e-183
2.52057e-182
1.3401e-182
2.6549e-181
1.35045e-181
2.6696e-180
1.29353e-180
2.55148e-179
2.30694e-178
2.24272e-224
9.57402e-224
9.95142e-224
4.45507e-223
4.3965e-223
2.06404e-222
2.00948e-222
9.893e-222
9.51982e-222
4.91472e-221
4.67649e-221
2.53166e-220
2.38286e-220
1.35266e-219
1.25977e-219
7.49852e-219
6.91222e-219
4.31407e-218
3.93721e-218
2.57651e-217
2.32864e-217
1.59775e-216
1.43035e-216
1.02897e-215
9.12616e-216
6.88317e-215
6.04923e-215
4.78333e-214
4.16612e-214
3.45365e-213
2.98142e-213
2.59104e-212
2.21718e-212
2.01996e-211
1.7135e-211
1.63645e-210
1.37618e-210
1.37771e-209
1.1486e-209
1.2053e-208
9.96182e-209
1.09571e-207
8.97729e-208
1.03494e-206
8.4048e-207
1.01553e-205
8.17336e-206
1.035e-204
8.25368e-205
1.09531e-203
8.65196e-204
1.20319e-202
9.41021e-203
1.37128e-201
1.06131e-201
1.62048e-200
1.24022e-200
1.98405e-199
1.50025e-199
2.51439e-198
1.88061e-198
3.85159e-197
2.78454e-197
5.6937e-196
4.07429e-196
8.3173e-195
5.87831e-195
1.198e-193
8.34871e-194
1.69858e-192
1.16507e-192
2.36624e-191
1.59431e-191
3.23225e-190
2.1347e-190
4.31991e-189
2.79006e-189
5.63555e-188
3.55047e-188
7.15767e-187
4.38674e-187
8.8261e-186
5.24645e-186
1.05345e-184
6.05386e-185
1.21304e-183
6.71578e-184
1.3428e-182
7.13488e-183
1.42349e-181
7.22944e-182
1.43913e-180
6.95549e-181
1.38143e-179
6.32457e-180
1.2532e-178
5.40913e-179
1.06926e-177
8.5399e-177
5.19385e-222
2.22547e-221
2.30412e-221
1.03535e-220
1.01793e-220
4.79671e-220
4.6525e-220
2.29903e-219
2.20401e-219
1.14208e-218
1.08261e-218
5.88264e-218
5.5157e-218
3.14272e-217
2.91556e-217
1.74189e-216
1.59937e-216
1.00192e-215
9.10715e-216
5.98193e-215
5.38411e-215
3.70797e-214
3.30537e-214
2.38668e-213
2.10747e-213
1.59543e-212
1.39569e-212
1.10773e-211
9.60141e-212
7.98914e-211
6.86152e-211
5.98536e-210
5.09387e-210
4.6581e-209
3.92829e-209
3.76568e-208
3.14672e-208
3.16199e-207
2.61795e-207
2.75748e-206
2.26173e-206
2.49702e-205
2.02863e-205
2.34745e-204
1.88851e-204
2.29039e-203
1.82403e-203
2.31845e-202
1.82703e-202
2.43369e-201
1.89677e-201
2.64769e-200
2.03957e-200
2.9833e-199
2.26958e-199
3.47843e-198
2.61085e-198
4.19246e-197
3.10099e-197
5.21681e-196
3.80552e-196
7.82331e-195
5.49594e-195
1.12802e-193
7.81532e-194
1.60143e-192
1.09147e-192
2.23276e-191
1.49392e-191
3.05076e-190
1.99941e-190
4.07581e-189
2.61011e-189
5.31105e-188
3.31456e-188
6.73186e-187
4.08252e-187
8.27563e-186
4.86161e-186
9.83534e-185
5.57783e-185
1.12612e-183
6.14234e-184
1.23747e-182
6.46525e-183
1.2997e-181
6.47534e-182
1.29881e-180
6.14115e-181
1.22893e-179
5.48637e-180
1.09529e-178
4.59202e-179
9.14504e-178
3.58123e-178
7.11417e-177
2.58917e-177
5.13022e-176
3.41572e-175
1.55993e-219
6.71029e-219
6.91326e-219
3.11866e-218
3.05145e-218
1.44355e-217
1.39337e-217
6.91239e-217
6.59421e-217
3.43043e-216
3.23563e-216
1.76507e-215
1.64659e-215
9.41874e-215
8.69274e-215
5.21387e-214
4.76188e-214
2.9948e-213
2.70732e-213
1.78527e-212
1.59777e-212
1.1047e-211
9.78964e-212
7.09656e-211
6.22782e-211
4.73325e-210
4.11385e-210
3.27796e-209
2.82171e-209
2.35714e-208
2.00961e-208
1.75991e-207
1.48599e-207
1.36423e-206
1.14068e-206
1.09778e-205
9.08819e-206
9.16838e-205
7.51355e-205
7.9453e-204
6.44363e-204
7.14215e-203
5.7301e-203
6.65696e-202
5.28117e-202
6.43045e-201
5.04179e-201
6.43389e-200
4.98226e-200
6.66304e-199
5.09217e-199
7.13645e-198
5.37768e-198
7.89738e-197
5.86151e-197
9.01944e-196
6.58505e-196
1.06165e-194
7.61297e-195
1.28586e-193
9.0601e-194
1.87002e-192
1.26295e-192
2.60254e-191
1.72588e-191
3.55061e-190
2.30515e-190
4.73431e-189
3.00163e-189
6.15401e-188
3.80004e-188
7.77697e-187
4.66328e-187
9.526e-186
5.52903e-186
1.12729e-184
6.31113e-185
1.28421e-183
6.90824e-184
1.40283e-182
7.2205e-183
1.46314e-181
7.17248e-182
1.45021e-180
6.73669e-181
1.359e-179
5.94961e-180
1.19739e-178
4.9116e-179
9.86072e-178
3.7669e-178
7.54347e-177
2.66779e-177
5.3285e-176
1.73551e-176
3.45708e-175
1.03341e-175
2.05281e-174
1.11532e-173
4.87361e-217
2.10511e-216
2.15702e-216
9.77077e-216
9.50898e-216
4.51701e-215
4.33631e-215
2.16009e-214
2.04926e-214
1.07047e-213
1.00398e-213
5.49942e-213
5.10054e-213
2.92965e-212
2.6877e-212
1.61874e-211
1.46928e-211
9.27867e-211
8.3341e-211
5.51844e-210
4.9057e-210
3.40583e-209
2.99685e-209
2.18143e-208
1.90005e-208
1.45006e-207
1.25025e-207
1.00034e-206
8.53733e-207
7.16133e-206
6.04906e-206
5.31945e-205
4.44638e-205
4.09902e-204
3.38972e-204
3.2758e-203
2.67923e-203
2.71413e-202
2.19463e-202
2.33042e-201
1.86208e-201
2.07256e-200
1.63553e-200
1.90803e-199
1.48604e-199
1.81701e-198
1.39559e-198
1.7884e-197
1.35339e-197
1.81756e-196
1.35379e-196
1.90527e-195
1.39508e-195
2.05738e-194
1.47888e-194
2.28525e-193
1.60999e-193
2.60663e-192
1.79649e-192
3.0472e-191
2.05439e-191
4.25829e-190
2.73618e-190
5.66232e-189
3.55411e-189
7.34279e-188
4.48664e-188
9.25363e-187
5.48787e-187
1.12988e-185
6.48259e-186
1.33226e-184
7.36867e-185
1.51152e-183
8.02812e-184
1.64357e-182
8.34724e-183
1.70544e-181
8.24361e-182
1.68072e-180
7.69282e-181
1.56498e-179
6.7453e-180
1.36909e-178
5.52389e-179
1.11851e-177
4.19834e-178
8.47998e-177
2.94287e-177
5.9288e-176
1.89165e-176
3.80077e-175
1.1103e-175
2.22465e-174
5.94179e-175
1.18708e-173
2.90665e-174
5.78969e-173
2.60016e-172
1.51436e-214
6.5695e-214
6.69183e-214
3.04438e-213
2.94543e-213
1.40522e-212
1.34092e-212
6.70863e-212
6.32532e-212
3.31848e-211
3.09262e-211
1.70138e-210
1.56762e-210
9.0432e-210
8.23968e-210
4.98411e-209
4.49159e-209
2.84881e-208
2.53955e-208
1.68888e-207
1.48939e-207
1.03852e-206
9.06052e-207
6.62392e-206
5.71698e-206
4.38201e-205
3.74108e-205
3.00633e-204
2.53839e-204
2.13855e-203
1.7854e-203
1.57691e-202
1.3013e-202
1.20488e-201
9.82412e-202
9.53548e-201
7.6781e-201
7.81217e-200
6.20848e-200
6.62152e-199
5.19003e-199
5.80203e-198
4.48164e-198
5.25133e-197
3.9936e-197
4.90457e-196
3.66836e-196
4.72164e-195
3.46911e-195
4.67953e-194
3.37279e-194
4.76776e-193
3.36587e-193
4.98585e-192
3.44164e-192
5.34191e-191
3.59836e-191
5.85187e-190
3.83791e-190
6.53895e-189
4.17316e-189
8.68877e-188
5.2488e-188
1.09107e-186
6.39942e-187
1.32805e-185
7.53227e-186
1.56048e-184
8.52795e-185
1.76364e-183
9.25081e-184
1.90962e-182
9.573e-183
1.97236e-181
9.40563e-182
1.93403e-180
8.72865e-181
1.79109e-179
7.6082e-180
1.55779e-178
6.19128e-179
1.2648e-177
4.6743e-178
9.5263e-177
3.25372e-177
6.61466e-176
2.07639e-176
4.21022e-175
1.20964e-175
2.44607e-174
6.4224e-175
1.29501e-173
3.11397e-174
6.26036e-173
1.38718e-173
2.78018e-172
5.72843e-173
1.1444e-171
4.41307e-171
4.63148e-212
2.01832e-211
2.04263e-211
9.33491e-211
8.97268e-211
4.30016e-210
4.07587e-210
2.04841e-209
1.91794e-209
1.01078e-208
9.35166e-209
5.16809e-208
4.72566e-208
2.73849e-207
2.47523e-207
1.50405e-206
1.34394e-206
8.56279e-206
7.56437e-206
5.05341e-205
4.41341e-205
3.09139e-204
2.66896e-204
1.9601e-203
1.67262e-203
1.28789e-202
1.086e-202
8.76687e-202
7.30277e-202
6.18055e-201
5.08376e-201
4.51062e-200
3.66176e-200
3.40596e-199
2.72725e-199
2.65925e-198
2.09877e-198
2.14522e-197
1.66738e-197
1.78649e-196
1.36617e-196
1.53431e-195
1.15316e-195
1.35744e-194
1.00147e-194
1.2356e-193
8.93583e-194
1.15548e-192
8.179e-193
1.1084e-191
7.66605e-192
1.08872e-190
7.34349e-191
1.09287e-189
7.17378e-190
1.11869e-188
7.12919e-189
1.16484e-187
7.18714e-188
1.2303e-186
7.34125e-187
1.53571e-185
8.60237e-186
1.79664e-184
9.70144e-185
2.02284e-183
1.0479e-183
2.18124e-182
1.07941e-182
2.24284e-181
1.0553e-181
2.18869e-180
9.74204e-181
2.01659e-179
8.44456e-180
1.74447e-178
6.83235e-179
1.40842e-177
5.12795e-178
1.05472e-176
3.54849e-177
7.28144e-176
2.25155e-176
4.60874e-175
1.30467e-175
2.66362e-174
6.89362e-175
1.40357e-173
3.32825e-174
6.75699e-173
1.47665e-173
2.98887e-172
6.06917e-173
1.22457e-171
2.33163e-172
4.68896e-171
8.46177e-172
1.69581e-170
5.8724e-170
1.3861e-209
6.06907e-209
6.09782e-209
2.79996e-208
2.67142e-208
1.28636e-207
1.20987e-207
6.10932e-207
5.67402e-207
3.00449e-206
2.75608e-206
1.53035e-205
1.38673e-205
8.07419e-205
7.22791e-205
4.41283e-204
3.90254e-204
2.49828e-203
2.18254e-203
1.46499e-202
1.26412e-202
8.8967e-202
7.58095e-202
5.59399e-201
4.70572e-201
3.64059e-200
3.02212e-200
2.45129e-199
2.00704e-199
1.70672e-198
1.37747e-198
1.22802e-197
9.76273e-198
9.12418e-197
7.13912e-197
6.99449e-196
5.38112e-196
5.52662e-195
4.17606e-195
4.49589e-194
3.33254e-194
3.76072e-193
2.73076e-193
3.23005e-192
2.29406e-192
2.84409e-191
1.97233e-191
2.56278e-190
1.73207e-190
2.3587e-189
1.55036e-189
2.21255e-188
1.41109e-188
2.11031e-187
1.30256e-187
2.04121e-186
1.21584e-186
1.99635e-185
1.14375e-185
1.96756e-184
1.08226e-184
2.2752e-183
1.16315e-183
2.44138e-182
1.19299e-182
2.4999e-181
1.16102e-181
2.42876e-180
1.06661e-180
2.22729e-179
9.1987e-180
1.91729e-178
7.40354e-179
1.5401e-177
5.52715e-178
1.14741e-176
3.8047e-177
7.88121e-176
2.40211e-176
4.96442e-175
1.38569e-175
2.85686e-174
7.29459e-175
1.50007e-173
3.51202e-174
7.20264e-173
1.5552e-173
3.18037e-172
6.38336e-173
1.30145e-171
2.44913e-172
4.97741e-171
8.86889e-172
1.7964e-170
3.06671e-171
6.18972e-170
1.02583e-170
2.06284e-169
6.76454e-169
4.04016e-207