/*--------------------------------*- C++ -*----------------------------------*\
  =========                 |
  \\      /  F ield         | OpenFOAM: The Open Source CFD Toolbox
   \\    /   O peration     | Website:  https://openfoam.org
    \\  /    A nd           | Version:  9
     \\/     M anipulation  |
\*---------------------------------------------------------------------------*/
FoamFile
{
    format      ascii;
    class       volScalarField;
    location    "0.01";
    object      alpha.water;
}
// * * * * * * * * * * * * * * * * * * * * * * * * * * * * * * * * * * * * * //

dimensions      [0 0 0 0 0 0 0];

internalField   nonuniform List<scalar> 
5000
(
2.40181e-255
1.07982e-254
4.83044e-254
2.23572e-253
1.0727e-252
5.33776e-252
2.75552e-251
1.47624e-250
8.21008e-250
4.74135e-249
2.84405e-248
1.77238e-247
1.14779e-246
7.72587e-246
5.4062e-245
3.93348e-244
2.97629e-243
2.34238e-242
1.91775e-241
1.63358e-240
1.44801e-239
1.33579e-238
1.28262e-237
1.28202e-236
1.33401e-235
1.44512e-234
1.62969e-233
1.91297e-232
2.33667e-231
2.96907e-230
3.93157e-229
6.19242e-228
9.70472e-227
1.51127e-225
2.33646e-224
3.58278e-223
5.44336e-222
8.18466e-221
1.2164e-219
1.78445e-218
2.58013e-217
3.67113e-216
5.13132e-215
7.03279e-214
9.43248e-213
1.23535e-211
1.57617e-210
1.95422e-209
2.34806e-208
2.72592e-207
9.84462e-253
4.42289e-252
1.97707e-251
9.14384e-251
4.38394e-250
2.17979e-249
1.12441e-248
6.01922e-248
3.34495e-247
1.93018e-246
1.15686e-245
7.20354e-245
4.66115e-244
3.13482e-243
2.19175e-242
1.59333e-241
1.20456e-240
9.47186e-240
7.74801e-239
6.59417e-238
5.83993e-237
5.38261e-236
5.16381e-235
5.15687e-234
5.36134e-233
5.80286e-232
6.53847e-231
7.66862e-230
9.35955e-229
1.18833e-227
1.57237e-226
2.47476e-225
3.87581e-224
6.03184e-223
9.32013e-222
1.42845e-220
2.16934e-219
3.26071e-218
4.84478e-217
7.10604e-216
1.02739e-214
1.46186e-213
2.04363e-212
2.80167e-211
3.75913e-210
4.92587e-209
6.28918e-208
7.80423e-207
9.38654e-206
1.09101e-204
3.5757e-250
1.60577e-249
7.17487e-249
3.31692e-248
1.58959e-247
7.90039e-247
4.07354e-246
2.1797e-245
1.21075e-244
6.98342e-244
4.18366e-243
2.6039e-242
1.68412e-241
1.13212e-240
7.91165e-240
5.74881e-239
4.34408e-238
3.41427e-237
2.79156e-236
2.3747e-235
2.10209e-234
1.93656e-233
1.85697e-232
1.85362e-231
1.92624e-230
2.08396e-229
2.34713e-228
2.75171e-227
3.35718e-226
4.26091e-225
5.63611e-224
8.8682e-223
1.38856e-221
2.1606e-220
3.3381e-219
5.11593e-218
7.76964e-217
1.16798e-215
1.73575e-214
2.54667e-213
3.68348e-212
5.24396e-211
7.33559e-210
1.00644e-208
1.35164e-207
1.77305e-206
2.26656e-205
2.81653e-204
3.39299e-203
3.95082e-202
1.29405e-247
5.80846e-247
2.59405e-246
1.19863e-245
5.74144e-245
2.85212e-244
1.46985e-243
7.86101e-243
4.36431e-242
2.51598e-241
1.50651e-240
9.37159e-240
6.05806e-239
4.07028e-238
2.84294e-237
2.06465e-236
1.55931e-235
1.22489e-234
1.00094e-233
8.51011e-233
7.52904e-232
6.93238e-231
6.64387e-230
6.6283e-229
6.88431e-228
7.44407e-227
8.37988e-226
9.81946e-225
1.19744e-223
1.5191e-222
2.00854e-221
3.15916e-220
4.94488e-219
7.69213e-218
1.18816e-216
1.82069e-215
2.76491e-214
4.15642e-213
6.17754e-212
9.06544e-211
1.31162e-209
1.86808e-208
2.61463e-207
3.58974e-206
4.82498e-205
6.33558e-204
8.10843e-203
1.00894e-201
1.21731e-200
1.41992e-199
4.69797e-245
2.1075e-244
9.40658e-244
4.34394e-243
2.07952e-242
1.03241e-241
5.31739e-241
2.84212e-240
1.57694e-239
9.08538e-239
5.43675e-238
3.37996e-237
2.18354e-236
1.46614e-235
1.0234e-234
7.4275e-234
5.60592e-233
4.40077e-232
3.59381e-231
3.05347e-230
2.69965e-229
2.48405e-228
2.37907e-227
2.37191e-226
2.46187e-225
2.66028e-224
2.99274e-223
3.50459e-222
4.271e-221
5.41499e-220
7.15545e-219
1.12483e-217
1.75974e-216
2.73615e-215
4.22469e-214
6.47156e-213
9.82515e-212
1.47672e-210
2.1946e-209
3.22057e-208
4.66019e-207
6.63883e-206
9.29535e-205
1.27684e-203
1.71733e-202
2.25683e-201
2.8912e-200
3.6018e-199
4.35167e-198
5.08412e-197
1.70808e-242
7.65746e-242
3.41565e-241
1.57633e-240
7.54128e-240
3.74154e-239
1.9258e-238
1.02865e-237
5.7036e-237
3.28384e-236
1.96373e-235
1.21999e-234
7.87592e-234
5.28459e-233
3.68613e-232
2.67335e-231
2.01625e-230
1.58164e-229
1.29065e-228
1.09577e-227
9.68065e-227
8.90067e-226
8.51789e-225
8.48559e-224
8.8005e-223
9.50224e-222
1.06813e-220
1.24984e-219
1.52198e-218
1.92817e-217
2.54601e-216
3.99941e-215
6.2526e-214
9.71567e-213
1.49924e-211
2.29539e-210
3.48327e-209
5.23337e-208
7.77519e-207
1.14078e-205
1.65058e-204
2.35147e-203
3.29295e-202
4.52468e-201
6.08841e-200
8.00607e-199
1.02648e-197
1.28004e-196
1.54842e-195
1.81165e-194
6.20604e-240
2.78032e-239
1.23935e-238
5.7158e-238
2.73262e-237
1.35484e-236
6.96864e-236
3.71963e-235
2.06099e-234
1.18577e-233
7.08576e-233
4.39889e-232
2.83771e-231
1.90262e-230
1.32611e-229
9.61021e-229
7.24238e-228
5.67673e-227
4.62861e-226
3.92651e-225
3.466e-224
3.18405e-223
3.0445e-222
3.03032e-221
3.14001e-220
3.38737e-219
3.80428e-218
4.44744e-217
5.41096e-216
6.84891e-215
9.0354e-214
1.41809e-212
2.21515e-211
3.43926e-210
5.30313e-209
8.11354e-208
1.23044e-206
1.8476e-205
2.74364e-204
4.02394e-203
5.82052e-202
8.29073e-201
1.16097e-199
1.59541e-198
2.14735e-197
2.82492e-196
3.62414e-195
4.52311e-194
5.4771e-193
6.4164e-192
2.24902e-237
1.00684e-236
4.48504e-236
2.06704e-235
9.87526e-235
4.89271e-234
2.51478e-233
1.34135e-232
7.42678e-232
4.26977e-231
2.54957e-230
1.58159e-229
1.0195e-228
6.83019e-228
4.75683e-227
3.44445e-226
2.59366e-225
2.03127e-224
1.65482e-223
1.40258e-222
1.23699e-221
1.13534e-220
1.08458e-219
1.07852e-218
1.11649e-217
1.20327e-216
1.35003e-215
1.57669e-214
1.91634e-213
2.42316e-212
3.19349e-211
5.00711e-210
7.81371e-209
1.212e-207
1.86712e-206
2.85412e-205
4.32484e-204
6.48923e-203
9.62994e-202
1.41155e-200
2.04082e-199
2.9059e-198
4.0683e-197
5.59019e-196
7.5247e-195
9.9015e-194
1.27083e-192
1.58708e-191
1.92349e-190
2.25587e-189
8.11559e-235
3.63049e-234
1.61609e-233
7.44287e-233
3.55329e-232
1.75921e-231
9.03552e-231
4.81585e-230
2.66446e-229
1.53069e-228
9.13306e-228
5.66118e-227
3.64633e-226
2.44093e-225
1.69858e-224
1.22893e-223
9.24593e-223
7.23483e-222
5.88881e-221
4.98669e-220
4.39388e-219
4.02897e-218
3.84511e-217
3.81979e-216
3.95024e-215
4.25284e-214
4.76647e-213
5.5607e-212
6.75116e-211
8.52713e-210
1.12253e-208
1.75804e-207
2.74041e-206
4.24607e-205
6.53423e-204
9.97813e-203
1.51051e-201
2.2644e-200
3.35753e-199
4.91777e-198
7.10547e-197
1.0112e-195
1.41511e-194
1.94397e-193
2.6164e-192
3.44306e-191
4.42021e-190
5.52277e-189
6.69806e-188
7.86294e-187
2.90923e-232
1.30043e-231
5.78462e-231
2.66218e-230
1.27002e-229
6.28316e-229
3.2247e-228
1.71745e-227
9.49487e-227
5.45042e-226
3.24953e-225
2.01265e-224
1.29529e-223
8.66378e-223
6.02385e-222
4.35455e-221
3.27332e-220
2.55905e-219
2.08103e-218
1.76058e-217
1.54979e-216
1.41967e-215
1.3535e-214
1.34318e-213
1.38755e-212
1.49219e-211
1.6705e-210
1.94658e-209
2.3605e-208
2.97784e-207
3.91524e-206
6.12421e-205
9.53445e-204
1.47547e-202
2.26783e-201
3.45901e-200
5.23035e-199
7.83222e-198
1.16013e-196
1.69763e-195
2.45074e-194
3.48509e-193
4.8741e-192
6.69232e-191
9.00414e-190
1.18469e-188
1.52091e-187
1.90067e-186
2.30613e-185
2.709e-184
9.34301e-230
4.17276e-229
1.85466e-228
8.52863e-228
4.06538e-227
2.00962e-226
1.03054e-225
5.48397e-225
3.02923e-224
1.73739e-223
1.03492e-222
6.40422e-222
4.11783e-221
2.75172e-220
1.91142e-219
1.38038e-218
1.03659e-217
8.09545e-217
6.57616e-216
5.55727e-215
4.88618e-214
4.47047e-213
4.25664e-212
4.21848e-211
4.35164e-210
4.67276e-209
5.22281e-208
6.07566e-207
7.35427e-206
9.25974e-205
1.21494e-203
1.89617e-202
2.945e-201
4.54581e-200
6.96785e-199
1.05964e-197
1.5972e-196
2.38355e-195
3.51754e-194
5.12665e-193
7.36876e-192
1.04292e-190
1.45104e-189
1.98103e-188
2.64874e-187
3.46096e-186
4.40924e-185
5.46321e-184
6.56533e-183
7.62928e-182
1.75206e-227
7.81541e-227
3.46956e-226
1.59354e-225
7.58671e-225
3.74565e-224
1.91836e-223
1.01954e-222
5.62437e-222
3.22153e-221
1.91638e-220
1.18423e-219
7.60355e-219
5.07356e-218
3.51887e-217
2.53724e-216
1.90219e-215
1.48302e-214
1.20253e-213
1.01428e-212
8.89998e-212
8.12526e-211
7.71873e-210
7.63042e-209
7.84994e-208
8.40425e-207
9.36302e-206
1.0853e-204
1.30849e-203
1.64028e-202
2.1416e-201
3.32389e-200
5.13058e-199
7.86485e-198
1.19627e-196
1.80363e-195
2.69261e-194
3.97545e-193
5.79715e-192
8.33754e-191
1.18081e-189
1.64402e-188
2.24605e-187
3.00507e-186
3.92889e-185
5.00779e-184
6.20678e-183
7.4596e-182
8.66676e-181
9.70109e-180
1.93612e-225
8.62329e-225
3.82242e-224
1.75292e-223
8.33253e-223
4.10738e-222
2.10025e-221
1.11438e-220
6.13734e-220
3.50937e-219
2.08398e-218
1.28549e-217
8.23861e-217
5.48691e-216
3.79811e-215
2.73301e-214
2.04461e-213
1.59051e-212
1.28667e-211
1.08256e-210
9.47398e-210
8.62481e-209
8.16828e-208
8.04812e-207
8.24978e-206
8.7974e-205
9.75838e-204
1.12568e-202
1.34994e-201
1.68219e-200
2.18176e-199
3.36083e-198
5.14425e-197
7.8124e-196
1.17597e-194
1.7526e-193
2.58292e-192
3.75936e-191
5.39587e-190
7.62561e-189
1.05929e-187
1.44372e-186
1.92667e-185
2.51216e-184
3.19287e-183
3.94545e-182
4.72693e-181
5.47398e-180
6.10677e-179
6.53889e-178
1.49751e-223
6.65919e-223
2.94718e-222
1.3494e-221
6.40407e-221
3.15161e-220
1.60885e-219
8.52194e-219
4.68523e-218
2.67429e-217
1.58518e-216
9.75982e-216
6.24287e-215
4.14942e-214
2.8663e-213
2.05802e-212
1.53613e-211
1.19208e-210
9.61897e-210
8.07108e-209
7.04281e-208
6.39139e-207
6.03243e-206
5.92156e-205
6.04515e-204
6.41742e-203
7.08298e-202
8.12546e-201
9.68437e-200
1.19852e-198
1.54254e-197
2.35554e-196
3.57068e-195
5.36436e-194
7.97826e-193
1.17325e-191
1.7037e-190
2.43938e-189
3.43852e-188
4.76352e-187
6.4736e-186
8.6131e-185
1.11951e-183
1.41819e-182
1.74652e-181
2.08517e-180
2.40619e-179
2.67491e-178
2.85436e-177
2.9121e-176
9.17135e-222
4.0721e-221
1.79952e-220
8.22689e-220
3.89838e-219
1.9155e-218
9.76279e-218
5.16289e-217
2.83377e-216
1.61474e-215
9.55457e-215
5.87203e-214
3.74901e-213
2.48698e-212
1.71444e-211
1.22835e-210
9.14791e-210
7.08208e-209
5.69998e-208
4.76963e-207
4.14965e-206
3.75371e-205
3.53043e-204
3.45215e-203
3.50916e-202
3.70765e-201
4.07067e-200
4.64247e-199
5.49701e-198
6.75337e-197
8.62082e-196
1.30425e-194
1.95668e-193
2.90589e-192
4.26682e-191
6.18611e-190
8.84275e-189
1.24431e-187
1.72068e-186
2.33398e-185
3.09921e-184
4.01996e-183
5.08148e-182
6.24384e-181
7.43715e-180
8.56145e-179
9.49403e-178
1.01055e-176
1.02841e-175
9.96335e-175
5.62156e-220
2.49363e-219
1.10105e-218
5.02949e-218
2.38125e-217
1.16904e-216
5.95307e-216
3.14535e-215
1.7248e-214
9.81884e-214
5.80413e-213
3.56337e-212
2.27255e-211
1.50579e-210
1.03675e-209
7.41807e-209
5.51644e-208
4.26392e-207
3.42581e-206
2.86111e-205
2.48384e-204
2.24141e-203
2.10233e-202
2.04935e-201
2.07588e-200
2.18451e-199
2.38744e-198
2.70859e-197
3.18807e-196
3.8901e-195
4.92721e-194
7.38752e-193
1.09702e-191
1.61041e-190
2.33382e-189
3.3339e-188
4.68685e-187
6.47264e-186
8.76426e-185
1.16111e-183
1.50167e-182
1.89124e-181
2.3133e-180
2.74013e-179
3.13326e-178
3.44683e-177
3.63433e-176
3.65805e-175
3.49941e-174
3.16671e-173
6.17243e-218
2.7388e-217
1.20997e-216
5.53024e-216
2.61987e-215
1.28695e-214
6.55733e-214
3.46664e-213
1.90206e-212
1.08338e-211
6.40738e-211
3.93557e-210
2.51095e-209
1.66431e-208
1.14617e-207
8.20203e-207
6.0993e-206
4.71349e-205
3.78541e-204
3.15923e-203
2.73984e-202
2.4689e-201
2.3113e-200
2.24747e-199
2.26937e-198
2.37865e-197
2.58685e-196
2.91716e-195
3.40848e-194
4.12247e-193
5.16653e-192
7.64803e-191
1.11874e-189
1.61361e-188
2.29096e-187
3.19579e-186
4.37129e-185
5.85003e-184
7.64174e-183
9.71837e-182
1.1999e-180
1.43395e-179
1.65321e-178
1.83224e-177
1.94456e-176
1.9681e-175
1.89118e-174
1.71733e-173
1.46662e-172
1.17235e-171
1.43478e-215
6.36496e-215
2.81192e-214
1.28517e-213
6.08808e-213
2.9904e-212
1.52352e-211
8.05297e-211
4.41744e-210
2.51532e-209
1.487e-208
9.12856e-208
5.82009e-207
3.85426e-206
2.65138e-205
1.8947e-204
1.40653e-203
1.08464e-202
8.68797e-202
7.22767e-201
6.24387e-200
5.6e-199
5.21285e-198
5.03451e-197
5.04238e-196
5.23439e-195
5.62789e-194
6.26186e-193
7.20247e-192
8.5533e-191
1.04943e-189
1.51523e-188
2.15408e-187
3.00739e-186
4.11479e-185
5.50481e-184
7.18281e-183
9.11653e-182
1.1222e-180
1.33544e-179
1.53101e-178
1.68452e-177
1.7714e-176
1.7723e-175
1.67888e-174
1.49797e-173
1.25204e-172
9.74967e-172
7.03731e-171
4.6895e-170
4.32617e-213
1.91724e-212
8.4624e-212
3.86409e-211
1.82866e-210
8.97264e-210
4.566e-209
2.41044e-208
1.3204e-207
7.50682e-207
4.43016e-206
2.7143e-205
1.72668e-204
1.14054e-203
7.82274e-203
5.57112e-202
4.11935e-201
3.16198e-200
2.51914e-199
2.08257e-198
1.78592e-197
1.58807e-196
1.46356e-195
1.39712e-194
1.38053e-193
1.41086e-192
1.48982e-191
1.62369e-190
1.82388e-189
2.10827e-188
2.5085e-187
3.49593e-186
4.77599e-185
6.37693e-184
8.30052e-183
1.05038e-181
1.28835e-180
1.52667e-179
1.74148e-178
1.90484e-177
1.98928e-176
1.97421e-175
1.85232e-174
1.63401e-173
1.34719e-172
1.03175e-171
7.29577e-171
4.73819e-170
2.81617e-169
1.5314e-168
1.35719e-210
6.00673e-210
2.64797e-209
1.20751e-208
5.70638e-208
2.79562e-207
1.42024e-206
7.48367e-206
4.09098e-205
2.32044e-204
1.36584e-203
8.34359e-203
5.28982e-202
3.48062e-201
2.37667e-200
1.68392e-199
1.23772e-198
9.43546e-198
7.45747e-197
6.10836e-196
5.18253e-195
4.55175e-194
4.13549e-193
3.88353e-192
3.76586e-191
3.7667e-190
3.88123e-189
4.11395e-188
4.47815e-187
4.99616e-186
5.71225e-185
7.60614e-184
9.87705e-183
1.24645e-181
1.52401e-180
1.79943e-179
2.04432e-178
2.22592e-177
2.31279e-176
2.28226e-175
2.12785e-174
1.86386e-173
1.52462e-172
1.15728e-171
8.10063e-171
5.19889e-170
3.04625e-169
1.62714e-168
7.94349e-168
3.57056e-167
4.23542e-208
1.87158e-207
8.23771e-207
3.75021e-206
1.76899e-205
8.64894e-205
4.38398e-204
2.30424e-203
1.25605e-202
7.10156e-202
4.1648e-201
2.53354e-200
1.59856e-199
1.04604e-198
7.09736e-198
4.99184e-197
3.63822e-196
2.74656e-195
2.14652e-194
1.7356e-193
1.45083e-192
1.25275e-191
1.11628e-190
1.02532e-189
9.69568e-189
9.42585e-188
9.4058e-187
9.61666e-186
1.00535e-184
1.07213e-183
1.16556e-182
1.46564e-181
1.78643e-180
2.10197e-179
2.37888e-178
2.57932e-177
2.66768e-176
2.61936e-175
2.42903e-174
2.11542e-173
1.71978e-172
1.29697e-171
9.01686e-171
5.74619e-170
3.34236e-169
1.77153e-168
8.57322e-168
3.81119e-167
1.5703e-166
6.06082e-166
1.30123e-205
5.7388e-205
2.52086e-204
1.14509e-203
5.38825e-203
2.62721e-202
1.32758e-201
6.95349e-201
3.77537e-200
2.12492e-199
1.23975e-198
7.49706e-198
4.69825e-197
3.0504e-196
2.05119e-195
1.42788e-194
1.02845e-193
7.65963e-193
5.89435e-192
4.68266e-191
3.83663e-190
3.23831e-189
2.81222e-188
2.50917e-187
2.29655e-186
2.15241e-185
2.06171e-184
2.0139e-183
2.0012e-182
2.01722e-181
2.0601e-180
2.41346e-179
2.72107e-178
2.93818e-177
3.02531e-176
2.95632e-175
2.72757e-174
2.36271e-173
1.91013e-172
1.43233e-171
9.90128e-171
6.275e-170
3.63118e-169
1.91576e-168
9.23368e-168
4.08905e-167
1.67716e-166
6.42857e-166
2.32721e-165
8.06612e-165
3.9128e-203
1.72133e-202
7.54094e-202
3.41521e-201
1.60163e-200
7.77957e-200
3.91425e-199
2.04014e-198
1.10151e-197
6.16017e-197
3.56788e-196
2.13962e-195
1.3281e-194
8.52919e-194
5.66425e-193
3.88742e-192
2.75512e-191
2.01468e-190
1.51853e-189
1.17845e-188
9.40392e-188
7.70561e-187
6.47318e-186
5.56518e-185
4.8871e-184
4.37424e-183
3.98112e-182
3.67468e-181
3.42976e-180
3.22607e-179
3.05213e-178
3.27958e-177
3.36284e-176
3.27165e-175
3.0044e-174
2.58979e-173
2.08315e-172
1.5541e-171
1.06891e-170
6.7421e-170
3.88496e-169
2.04254e-168
9.81972e-168
4.3413e-167
1.77864e-166
6.81025e-166
2.46059e-165
8.48716e-165
2.83128e-164
9.2929e-164
1.14614e-200
5.02539e-200
2.1935e-199
9.89307e-199
4.61787e-198
2.23115e-197
1.11583e-196
5.77595e-196
3.09419e-195
1.71505e-194
9.83283e-194
5.82882e-193
3.57079e-192
2.25926e-191
1.47527e-190
9.93363e-190
6.89057e-189
4.91846e-188
3.60814e-187
2.71647e-186
2.09562e-185
1.65366e-184
1.3322e-183
1.09334e-182
9.11964e-182
7.71112e-181
6.5907e-180
5.67606e-179
4.9083e-178
4.24462e-177
3.6607e-176
3.54279e-175
3.23971e-174
2.7805e-173
2.22667e-172
1.65385e-171
1.13268e-170
7.11647e-170
4.08699e-169
2.14326e-168
1.02871e-167
4.54464e-167
1.86199e-166
7.13386e-166
2.5801e-165
8.90677e-165
2.97014e-164
9.71216e-164
3.16271e-163
1.04278e-162
3.25634e-198
1.42141e-197
6.17286e-197
2.76814e-196
1.28373e-195
6.15678e-195
3.05339e-194
1.56558e-193
8.29675e-193
4.54278e-192
2.56866e-191
1.49904e-190
9.02263e-190
5.59645e-189
3.57388e-188
2.34716e-187
1.58339e-186
1.09565e-185
7.76477e-185
5.62609e-184
4.15986e-183
3.13203e-182
2.39573e-181
1.85692e-180
1.45433e-179
1.14732e-178
9.08582e-178
7.19535e-177
5.67437e-176
4.43501e-175
3.42284e-174
2.92214e-173
2.33118e-172
1.72505e-171
1.17733e-170
7.37409e-170
4.22436e-169
2.21151e-168
1.0606e-167
4.68564e-167
1.92123e-166
7.37119e-166
2.67124e-165
9.24339e-165
3.09031e-164
1.01272e-163
3.30017e-163
1.08539e-162
3.64722e-162
1.26323e-161
8.92985e-196
3.8744e-195
1.67088e-194
7.43394e-194
3.41684e-193
1.62224e-192
7.95393e-192
4.02595e-191
2.10272e-190
1.1326e-189
6.28731e-189
3.59421e-188
2.11395e-187
1.27786e-186
7.92958e-186
5.04444e-185
3.28486e-184
2.18593e-183
1.48374e-182
1.02514e-181
7.19316e-181
5.11291e-180
3.67122e-179
2.65464e-178
1.92649e-177
1.39785e-176
1.00993e-175
7.23241e-175
5.10845e-174
3.53945e-173
2.39497e-172
1.76356e-171
1.20031e-170
7.50086e-170
4.28978e-169
2.24368e-168
1.07591e-167
4.75648e-167
1.95284e-166
7.50675e-166
2.72704e-165
9.46392e-165
3.17462e-164
1.04408e-163
3.41412e-163
1.12607e-162
3.78914e-162
1.3113e-161
4.68414e-161
1.72398e-160
2.35156e-193
1.012e-192
4.32327e-192
1.903e-191
8.64187e-191
4.04766e-190
1.95453e-189
9.72504e-189
4.98279e-188
2.62698e-187
1.42384e-186
7.92582e-186
4.52592e-185
2.64779e-184
1.58468e-183
9.6867e-183
6.03665e-182
3.82764e-181
2.46385e-180
1.6061e-179
1.05736e-178
7.00895e-178
4.66242e-177
3.10094e-176
2.05366e-175
1.34825e-174
8.73165e-174
5.54914e-173
3.4415e-172
2.07091e-171
1.20384e-170
7.49272e-170
4.28112e-169
2.23876e-168
1.07417e-167
4.75467e-167
1.95561e-166
7.53455e-166
2.74458e-165
9.55412e-165
3.21592e-164
1.06159e-163
3.48476e-163
1.15371e-162
3.89486e-162
1.35126e-161
4.83311e-161
1.77873e-160
6.69974e-160
2.5654e-159
5.90168e-191
2.5125e-190
1.05988e-189
4.59951e-189
2.05572e-188
9.4585e-188
4.47733e-187
2.1789e-186
1.0892e-185
5.58727e-185
2.93787e-184
1.58146e-183
8.7029e-183
4.88833e-182
2.7976e-181
1.62813e-180
9.61465e-180
5.74749e-179
3.46875e-178
2.10739e-177
1.28467e-176
7.82987e-176
4.75253e-175
2.86035e-174
1.69894e-173
9.90774e-173
5.64225e-172
3.12026e-171
1.66668e-170
8.55808e-170
4.2149e-169
2.19798e-168
1.05585e-167
4.68204e-167
1.93009e-166
7.45571e-166
2.72379e-165
9.51144e-165
3.2122e-164
1.06399e-163
3.50474e-163
1.16432e-162
3.94339e-162
1.37207e-161
4.91858e-161
1.81301e-160
6.83454e-160
2.61721e-159
1.0101e-158
3.90106e-158
1.39918e-188
5.87319e-188
2.43699e-187
1.0382e-186
4.54562e-186
2.04417e-185
9.43394e-185
4.46385e-184
2.16319e-183
1.0723e-182
5.42967e-182
2.80415e-181
1.47453e-180
7.87957e-180
4.27005e-179
2.34116e-178
1.29532e-177
7.21162e-177
4.02749e-176
2.24842e-175
1.25001e-174
6.89177e-174
3.75118e-173
2.00592e-172
1.04843e-171
5.32801e-171
2.61924e-170
1.23995e-169
5.63411e-169
2.45391e-168
1.02685e-167
4.54399e-167
1.87808e-166
7.27647e-166
2.66665e-165
9.34147e-165
3.16479e-164
1.05145e-163
3.47328e-163
1.15689e-162
3.9277e-162
1.3697e-161
4.91998e-161
1.81677e-160
6.85852e-160
2.62882e-159
1.01486e-158
3.9171e-158
1.50517e-157
5.74257e-157
3.09901e-186
1.27756e-185
5.19019e-185
2.1597e-184
9.21303e-184
4.02571e-183
1.79994e-182
8.2249e-182
3.83597e-181
1.82322e-180
8.81643e-180
4.32942e-179
2.15453e-178
1.08409e-177
5.50148e-177
2.80787e-176
1.43691e-175
7.34798e-175
3.741e-174
1.8886e-173
9.41318e-173
4.61067e-172
2.20866e-171
1.02974e-170
4.65125e-170
2.02744e-169
8.50504e-169
3.4301e-168
1.33129e-167
4.98708e-167
1.81318e-166
7.00842e-166
2.57651e-165
9.05509e-165
3.0771e-164
1.02504e-163
3.39363e-163
1.13238e-162
3.84992e-162
1.34418e-161
4.83353e-161
1.78692e-160
6.75448e-160
2.59241e-159
1.002e-158
3.8709e-158
1.48791e-157
5.67291e-157
2.13923e-156
8.03171e-156
6.29489e-184
2.53516e-183
1.00216e-182
4.04595e-182
1.66955e-181
7.03417e-181
3.02199e-180
1.32192e-179
5.87813e-179
2.65223e-178
1.21185e-177
5.59482e-177
2.60353e-176
1.21789e-175
5.70994e-175
2.6744e-174
1.24696e-173
5.7656e-173
2.63275e-172
1.18211e-171
5.19561e-171
2.22537e-170
9.24981e-170
3.71786e-169
1.44154e-168
5.38715e-168
1.94227e-167
6.77449e-167
2.29554e-166
7.59795e-166
2.47555e-165
8.66974e-165
2.95391e-164
9.86335e-164
3.27109e-163
1.0926e-162
3.71648e-162
1.29782e-161
4.66728e-161
1.72586e-160
6.52678e-160
2.50693e-159
9.7001e-159
3.75252e-158
1.4444e-157
5.5116e-157
2.07688e-156
7.75617e-156
2.9384e-155
1.1957e-154
1.14557e-181
4.47755e-181
1.70907e-180
6.639e-180
2.62659e-179
1.05695e-178
4.31922e-178
1.78927e-177
7.49924e-177
3.1732e-176
1.35234e-175
5.78975e-175
2.48303e-174
1.06345e-173
4.53325e-173
1.91652e-172
8.00545e-172
3.29098e-171
1.32622e-170
5.21913e-170
1.99878e-169
7.42814e-169
2.67357e-168
9.31138e-168
3.13875e-167
1.02549e-166
3.25641e-166
1.00979e-165
3.07903e-165
9.3122e-165
2.82379e-164
9.37686e-164
3.11253e-163
1.04004e-162
3.53644e-162
1.23392e-161
4.43321e-161
1.63815e-160
6.19327e-160
2.37898e-159
9.20864e-159
3.56518e-158
1.37382e-157
5.24958e-157
1.98024e-156
7.37983e-156
2.75921e-155
1.08083e-154
4.73842e-154
2.33285e-153
1.82104e-179
6.85522e-179
2.50386e-178
9.26832e-178
3.47953e-177
1.32275e-176
5.08222e-176
1.96942e-175
7.67961e-175
3.00587e-174
1.17775e-173
4.60595e-173
1.79229e-172
6.91656e-172
2.63803e-171
9.91006e-171
3.65445e-170
1.31879e-169
4.64508e-169
1.59381e-168
5.32125e-168
1.72819e-167
5.46165e-167
1.68105e-166
5.04646e-166
1.48127e-165
4.26965e-165
1.21694e-164
3.46519e-164
9.98336e-164
2.95012e-163
9.77972e-163
3.32102e-162
1.15695e-161
4.1491e-161
1.5305e-160
5.7784e-160
2.2177e-159
8.58171e-159
3.32285e-158
1.28086e-157
4.89721e-157
1.84888e-156
6.8882e-156
2.55825e-155
9.77914e-155
4.06965e-154
1.89358e-153
8.76996e-153
3.20766e-152
2.44034e-177
8.76766e-177
3.03139e-176
1.05694e-175
3.71956e-175
1.31877e-174
4.7004e-174
1.68018e-173
6.00787e-173
2.14312e-172
7.60482e-172
2.67644e-171
9.31427e-171
3.19584e-170
1.07814e-169
3.56759e-169
1.15575e-168
3.66104e-168
1.13331e-167
3.42879e-167
1.01448e-166
2.93847e-166
8.34541e-166
2.3288e-165
6.40316e-165
1.74197e-164
4.72046e-164
1.28708e-163
3.57872e-163
1.0296e-162
3.10339e-162
1.07073e-161
3.82883e-161
1.40887e-160
5.30784e-160
2.0337e-159
7.86138e-159
3.04232e-158
1.17245e-157
4.48271e-157
1.69282e-156
6.30506e-156
2.33223e-155
8.76958e-155
3.50725e-154
1.54961e-153
7.01997e-153
2.66559e-152
7.65744e-152
2.2456e-151
2.6527e-175
9.00459e-175
2.91135e-174
9.43793e-174
3.07166e-173
1.00165e-172
3.26501e-172
1.06122e-171
3.43056e-171
1.10014e-170
3.49115e-170
1.09371e-169
3.37561e-169
1.02468e-168
3.05554e-168
8.94459e-168
2.56993e-167
7.24887e-167
2.00852e-166
5.47268e-166
1.46876e-165
3.89133e-165
1.02071e-164
2.66079e-164
6.92693e-164
1.81257e-163
4.81089e-163
1.311e-162
3.7176e-162
1.10957e-161
3.50771e-161
1.27813e-160
4.80094e-160
1.83558e-159
7.08468e-159
2.73895e-158
1.0549e-157
4.03269e-157
1.52322e-156
5.67214e-156
2.09183e-155
7.77552e-155
3.02095e-154
1.27825e-153
5.65322e-153
2.20896e-152
6.62146e-152
1.95791e-151
5.27364e-151
1.55164e-150
2.23147e-173
7.08262e-173
2.11432e-172
6.28882e-172
1.86792e-171
5.53019e-171
1.62846e-170
4.75934e-170
1.37781e-169
3.94408e-169
1.11479e-168
3.10797e-168
8.54134e-168
2.31331e-167
6.17514e-167
1.62531e-166
4.22086e-166
1.0827e-165
2.74733e-165
6.91079e-165
1.72832e-164
4.314e-164
1.07982e-163
2.72544e-163
6.98066e-163
1.8278e-162
4.938e-162
1.39179e-161
4.13196e-161
1.29727e-160
4.29865e-160
1.63033e-159
6.28141e-159
2.42588e-158
9.33536e-158
3.56737e-157
1.34782e-156
5.0198e-156
1.84741e-155
6.81117e-155
2.59089e-154
1.05869e-153
4.57239e-153
1.82165e-152
5.6877e-152
1.68812e-151
4.70664e-151
1.3642e-150
8.00399e-150
1.15656e-148
1.38124e-171
4.06244e-171
1.10731e-170
2.98909e-170
8.024e-170
2.13972e-169
5.66036e-169
1.48369e-168
3.85005e-168
9.88477e-168
2.51023e-167
6.30517e-167
1.5668e-166
3.85372e-166
9.38984e-166
2.26916e-165
5.44748e-165
1.30189e-164
3.10622e-164
7.42623e-164
1.78722e-163
4.35319e-163
1.07932e-162
2.7389e-162
7.15016e-162
1.93043e-161
5.42483e-161
1.5986e-160
4.96242e-160
1.61877e-159
5.50632e-159
2.11456e-158
8.13334e-158
3.10751e-157
1.17441e-156
4.3753e-156
1.60789e-155
5.8937e-155
2.20856e-154
8.77855e-154
3.69793e-153
1.48583e-152
4.84174e-152
1.43846e-151
4.13363e-151
1.15913e-150
5.74609e-150
8.5557e-149
1.37281e-147
2.15188e-146
6.00786e-170
1.63124e-169
4.04084e-169
9.86833e-169
2.39303e-168
5.76328e-168
1.37796e-167
3.26982e-167
7.70005e-167
1.79963e-166
4.17567e-166
9.62419e-166
2.20529e-165
5.02992e-165
1.14388e-164
2.59958e-164
5.92105e-164
1.3565e-163
3.13932e-163
7.37587e-163
1.76887e-162
4.35319e-162
1.10438e-161
2.89621e-161
7.85844e-161
2.20672e-160
6.42829e-160
1.95327e-159
6.21062e-159
2.05488e-158
7.00356e-158
2.66608e-157
1.00812e-156
3.75714e-156
1.37982e-155
5.03551e-155
1.86352e-154
7.23624e-154
2.97749e-153
1.20048e-152
4.07771e-152
1.21485e-151
3.59104e-151
9.98843e-151
4.19337e-150
5.67643e-149
9.17732e-148
1.52295e-146
2.47638e-145
3.90527e-144
1.80406e-168
4.54505e-168
1.0292e-167
2.2915e-167
5.071e-167
1.11687e-166
2.44867e-166
5.34526e-166
1.16221e-165
2.51847e-165
5.44396e-165
1.17534e-164
2.53878e-164
5.49882e-164
1.19765e-163
2.63222e-163
5.86164e-163
1.32854e-162
3.07925e-162
7.33374e-162
1.80274e-161
4.58881e-161
1.21103e-160
3.30772e-160
9.30977e-160
2.68786e-159
7.95655e-159
2.43021e-158
7.71632e-158
2.53808e-157
8.53544e-157
3.17457e-156
1.16677e-155
4.2472e-155
1.55707e-154
5.92948e-154
2.38617e-153
9.60233e-153
3.38097e-152
1.02133e-151
3.07553e-151
8.51374e-151
3.17306e-150
3.79149e-149
5.9838e-148
9.6733e-147
1.59478e-145
2.65239e-144
4.31843e-143
6.83366e-142
3.82636e-167
9.05519e-167
1.9006e-166
3.91474e-166
8.02903e-166
1.64384e-165
3.36225e-165
6.87528e-165
1.40689e-164
2.88476e-164
5.93736e-164
1.22933e-163
2.56749e-163
5.42647e-163
1.16486e-162
2.54973e-162
5.71449e-162
1.31664e-161
3.12996e-161
7.69961e-161
1.96361e-160
5.19279e-160
1.42093e-159
4.00103e-159
1.14933e-158
3.3406e-158
9.8168e-158
2.94944e-157
9.18976e-157
2.96207e-156
9.71748e-156
3.52595e-155
1.28624e-154
4.8186e-154
1.89655e-153
7.59462e-153
2.75615e-152
8.53196e-152
2.60352e-151
7.12541e-151
2.40257e-150
2.42616e-149
3.80783e-148
6.17819e-147
9.99743e-146
1.61927e-144
2.6708e-143
4.44887e-142
7.26032e-141
1.15202e-139
6.03679e-166
1.36052e-165
2.68959e-165
5.2105e-165
1.00754e-164
1.95224e-164
3.79649e-164
7.42072e-164
1.46044e-163
2.9002e-163
5.82608e-163
1.18738e-162
2.46293e-162
5.21703e-162
1.13235e-161
2.52652e-161
5.8111e-161
1.38064e-160
3.39239e-160
8.6243e-160
2.26758e-159
6.15591e-159
1.71904e-158
4.90461e-158
1.4152e-157
4.08288e-157
1.17261e-156
3.39905e-156
1.02224e-155
3.21986e-155
1.04682e-154
3.8698e-154
1.49885e-153
5.97429e-153
2.22584e-152
7.04968e-152
2.17348e-151
6.02329e-151
1.90952e-150
1.51321e-149
2.33488e-148
3.76495e-147
6.11658e-146
9.95105e-145
1.61098e-143
2.61073e-142
4.30946e-141
7.18261e-140
1.17363e-138
1.87157e-137
7.52847e-165
1.63732e-164
3.09945e-164
5.74935e-164
1.0682e-163
1.99873e-163
3.77574e-163
7.21658e-163
1.39879e-162
2.75659e-162
5.53824e-162
1.13754e-161
2.39518e-161
5.18248e-161
1.15452e-160
2.65144e-160
6.28097e-160
1.53451e-159
3.86322e-159
1.00098e-158
2.66627e-158
7.29554e-158
2.0475e-157
5.86136e-157
1.68972e-156
4.81445e-156
1.33831e-155
3.68732e-155
1.06631e-154
3.39935e-154
1.17063e-153
4.64561e-153
1.7624e-152
5.74056e-152
1.7732e-151
5.02303e-151
1.50126e-150
9.2595e-150
1.39527e-148
2.23192e-147
3.60438e-146
5.83573e-145
9.48301e-144
1.54293e-142
2.49898e-141
4.05292e-140
6.69442e-139
1.11634e-137
1.82604e-136
2.92363e-135
7.91967e-164
1.68427e-163
3.10717e-163
5.62797e-163
1.02582e-162
1.89406e-162
3.55328e-162
6.78894e-162
1.32404e-161
2.64177e-161
5.40354e-161
1.13506e-160
2.45174e-160
5.4494e-160
1.24636e-159
2.93129e-159
7.07982e-159
1.75317e-158
4.44493e-158
1.15325e-157
3.06371e-157
8.34493e-157
2.33241e-156
6.66773e-156
1.92531e-155
5.48206e-155
1.50112e-154
4.00013e-154
1.14701e-153
3.88587e-153
1.35804e-152
4.58642e-152
1.41362e-151
4.13818e-151
1.17772e-150
5.66729e-150
8.10715e-149
1.28372e-147
2.06556e-146
3.33072e-145
5.3789e-144
8.7071e-143
1.41482e-141
2.302e-140
3.72941e-139
6.05298e-138
1.00075e-136
1.67023e-135
2.73453e-134
4.39042e-133
7.53815e-163
1.58825e-162
2.90609e-162
5.24004e-162
9.5552e-162
1.77446e-161
3.36563e-161
6.53235e-161
1.29933e-160
2.65157e-160
5.55561e-160
1.19543e-159
2.64101e-159
5.98521e-159
1.38936e-158
3.29785e-158
7.99212e-158
1.97517e-157
4.97393e-157
1.276e-156
3.33892e-156
8.9477e-156
2.47329e-155
7.09388e-155
2.09793e-154
6.22181e-154
1.77761e-153
4.84039e-153
1.34599e-152
3.98833e-152
1.10501e-151
3.34374e-151
9.41126e-151
3.67572e-150
4.58012e-149
7.1698e-148
1.14847e-146
1.84475e-145
2.96821e-144
4.7836e-143
7.72185e-142
1.24969e-140
2.03034e-139
3.30318e-138
5.35314e-137
8.696e-136
1.43872e-134
2.40285e-133
3.93998e-132
6.3378e-131
6.94946e-162
1.46664e-161
2.70037e-161
4.92055e-161
9.10234e-161
1.72034e-160
3.32884e-160
6.60048e-160
1.34154e-159
2.79465e-159
5.96335e-159
1.30219e-158
2.90631e-158
6.6209e-158
1.53748e-157
3.63436e-157
8.7344e-157
2.13197e-156
5.28225e-156
1.32923e-155
3.40783e-155
8.97281e-155
2.46629e-154
7.23138e-154
2.26339e-153
7.14673e-153
2.04523e-152
4.90553e-152
1.11024e-151
2.97636e-151
7.29317e-151
2.48059e-150
2.50059e-149
3.90316e-148
6.20283e-147
9.92358e-146
1.58991e-144
2.55077e-143
4.10052e-142
6.60506e-141
1.06586e-139
1.7245e-138
2.80108e-137
4.55598e-136
7.38583e-135
1.20108e-133
1.98853e-132
3.32251e-131
5.45592e-130
8.79293e-129
6.53713e-161
1.39127e-160
2.5984e-160
4.81776e-160
9.08101e-160
1.74916e-159
3.44651e-159
6.9457e-159
1.43065e-158
3.00893e-158
6.45508e-158
1.41115e-157
3.14038e-157
7.10592e-157
1.63268e-156
3.80444e-156
8.98653e-156
2.15413e-155
5.25537e-155
1.31139e-154
3.37511e-154
9.08339e-154
2.60001e-153
7.97032e-153