/*--------------------------------*- C++ -*----------------------------------*\
  =========                 |
  \\      /  F ield         | OpenFOAM: The Open Source CFD Toolbox
   \\    /   O peration     | Website:  https://openfoam.org
    \\  /    A nd           | Version:  9
     \\/     M anipulation  |
\*---------------------------------------------------------------------------*/
FoamFile
{
    format      ascii;
    class       volScalarField;
    location    "0.01";
    object      p;
}
// * * * * * * * * * * * * * * * * * * * * * * * * * * * * * * * * * * * * * //

dimensions      [1 -1 -2 0 0 0 0];

internalField   nonuniform List<scalar> 
5000
(
0.493003
0.493003
0.493006
0.49301
0.493014
0.493019
0.493024
0.49303
0.493036
0.493042
0.493048
0.493055
0.493062
0.493068
0.493075
0.493082
0.493089
0.493096
0.493102
0.493108
0.493114
0.493119
0.493124
0.493128
0.493131
0.493133
0.493134
0.493134
0.493131
0.493127
0.49312
0.49311
0.493097
0.493081
0.493063
0.493042
0.493018
0.492992
0.492964
0.492934
0.492902
0.492869
0.492834
0.492798
0.492762
0.492726
0.492691
0.492656
0.492623
0.492592
0.491042
0.491046
0.491055
0.491065
0.491076
0.491089
0.491102
0.491117
0.491133
0.491149
0.491167
0.491186
0.491205
0.491226
0.491247
0.49127
0.491293
0.491317
0.491342
0.491367
0.491394
0.49142
0.491448
0.491476
0.491504
0.491533
0.491562
0.491591
0.49162
0.491648
0.491679
0.491709
0.491737
0.491762
0.491784
0.491803
0.491819
0.491833
0.491844
0.491853
0.491859
0.491863
0.491865
0.491865
0.491864
0.491861
0.491857
0.491853
0.491848
0.491843
0.489085
0.489097
0.489112
0.489128
0.489146
0.489164
0.489184
0.489206
0.489229
0.489253
0.489279
0.489307
0.489335
0.489365
0.489397
0.48943
0.489465
0.489501
0.489538
0.489577
0.489617
0.489659
0.489702
0.489747
0.489793
0.48984
0.489888
0.489938
0.489988
0.49004
0.490097
0.490156
0.490212
0.490265
0.490315
0.490363
0.490407
0.490448
0.490487
0.490522
0.490555
0.490585
0.490612
0.490637
0.49066
0.49068
0.490698
0.490714
0.490729
0.490742
0.487127
0.487144
0.487166
0.487189
0.487213
0.487238
0.487266
0.487294
0.487325
0.487357
0.487391
0.487427
0.487464
0.487504
0.487545
0.487589
0.487634
0.487682
0.487731
0.487782
0.487836
0.487892
0.48795
0.48801
0.488073
0.488137
0.488204
0.488273
0.488344
0.488416
0.488497
0.488583
0.488667
0.488747
0.488824
0.488898
0.488969
0.489036
0.489101
0.489162
0.48922
0.489275
0.489327
0.489376
0.489421
0.489463
0.489502
0.489538
0.489571
0.489602
0.485167
0.485192
0.48522
0.48525
0.485281
0.485314
0.48535
0.485386
0.485425
0.485466
0.48551
0.485555
0.485603
0.485653
0.485705
0.48576
0.485818
0.485878
0.485941
0.486007
0.486075
0.486147
0.486221
0.486299
0.486379
0.486463
0.48655
0.48664
0.486734
0.48683
0.486938
0.487053
0.487166
0.487276
0.487383
0.487487
0.487587
0.487684
0.487777
0.487867
0.487953
0.488035
0.488114
0.488188
0.488259
0.488325
0.488387
0.488444
0.488497
0.488547
0.483208
0.483239
0.483273
0.48331
0.483349
0.48339
0.483433
0.483478
0.483526
0.483576
0.483629
0.483685
0.483743
0.483804
0.483868
0.483935
0.484006
0.484079
0.484156
0.484237
0.484321
0.484409
0.484501
0.484597
0.484697
0.484801
0.484909
0.485022
0.485138
0.485259
0.485395
0.485542
0.485686
0.485827
0.485965
0.486099
0.48623
0.486357
0.486481
0.4866
0.486715
0.486826
0.486933
0.487034
0.487131
0.487222
0.487308
0.487388
0.487463
0.487532
0.481249
0.481285
0.481326
0.48137
0.481416
0.481464
0.481515
0.481569
0.481625
0.481685
0.481747
0.481812
0.481881
0.481953
0.482029
0.482108
0.482191
0.482278
0.482369
0.482465
0.482564
0.482669
0.482778
0.482892
0.483011
0.483135
0.483264
0.483399
0.483539
0.483685
0.483849
0.484027
0.484202
0.484374
0.484543
0.484708
0.484869
0.485026
0.48518
0.485329
0.485473
0.485613
0.485747
0.485875
0.485998
0.486115
0.486225
0.486328
0.486423
0.486512
0.479289
0.479331
0.479379
0.47943
0.479483
0.479538
0.479597
0.479659
0.479724
0.479792
0.479864
0.479939
0.480018
0.480101
0.480188
0.48028
0.480375
0.480475
0.480581
0.480691
0.480806
0.480926
0.481053
0.481184
0.481322
0.481466
0.481617
0.481773
0.481937
0.482107
0.482299
0.482508
0.482714
0.482916
0.483115
0.483311
0.483503
0.48369
0.483873
0.484052
0.484225
0.484393
0.484556
0.484711
0.484861
0.485003
0.485137
0.485263
0.485379
0.485489
0.47733
0.477378
0.477432
0.477489
0.477549
0.477612
0.477679
0.477749
0.477822
0.4779
0.477981
0.478066
0.478156
0.47825
0.478348
0.478452
0.47856
0.478674
0.478793
0.478917
0.479048
0.479185
0.479328
0.479478
0.479635
0.479799
0.47997
0.480149
0.480335
0.48053
0.48075
0.48099
0.481227
0.48146
0.48169
0.481917
0.482139
0.482357
0.482571
0.482779
0.482982
0.483179
0.48337
0.483554
0.48373
0.483898
0.484056
0.484206
0.484344
0.484474
0.47537
0.475424
0.475485
0.475549
0.475616
0.475686
0.475761
0.475839
0.475921
0.476008
0.476098
0.476194
0.476294
0.476399
0.476509
0.476624
0.476745
0.476872
0.477006
0.477145
0.477292
0.477445
0.477605
0.477773
0.477949
0.478133
0.478326
0.478527
0.478737
0.478956
0.479205
0.479476
0.479744
0.480009
0.48027
0.480528
0.480782
0.481031
0.481275
0.481514
0.481748
0.481974
0.482194
0.482406
0.48261
0.482804
0.482989
0.483162
0.483323
0.483474
0.473411
0.473471
0.473537
0.473608
0.473682
0.47376
0.473843
0.473929
0.47402
0.474115
0.474216
0.474321
0.474432
0.474548
0.474669
0.474797
0.474931
0.475072
0.475219
0.475374
0.475536
0.475706
0.475883
0.47607
0.476265
0.476469
0.476683
0.476906
0.47714
0.477385
0.477662
0.477965
0.478265
0.478561
0.478855
0.479144
0.47943
0.479711
0.479987
0.480257
0.480521
0.480778
0.481028
0.481269
0.481501
0.481723
0.481933
0.482131
0.482316
0.482489
0.471451
0.471517
0.47159
0.471667
0.471749
0.471834
0.471924
0.472019
0.472119
0.472223
0.472333
0.472448
0.472569
0.472697
0.47283
0.47297
0.473117
0.473271
0.473433
0.473602
0.47378
0.473967
0.474162
0.474367
0.474581
0.474806
0.475041
0.475287
0.475545
0.475815
0.476121
0.476456
0.476788
0.477117
0.477443
0.477765
0.478083
0.478396
0.478704
0.479006
0.479302
0.47959
0.47987
0.480141
0.480402
0.480652
0.48089
0.481113
0.481322
0.481517
0.469492
0.469563
0.469643
0.469727
0.469815
0.469908
0.470006
0.470109
0.470217
0.470331
0.47045
0.470576
0.470707
0.470846
0.470991
0.471143
0.471303
0.471471
0.471647
0.471832
0.472025
0.472228
0.472441
0.472664
0.472898
0.473143
0.4734
0.47367
0.473952
0.474247
0.474583
0.47495
0.475315
0.475677
0.476035
0.47639
0.476741
0.477087
0.477427
0.477762
0.47809
0.47841
0.478722
0.479024
0.479315
0.479594
0.479859
0.480109
0.480342
0.480561
0.467532
0.467609
0.467695
0.467786
0.467882
0.467982
0.468088
0.468199
0.468316
0.468439
0.468568
0.468703
0.468846
0.468995
0.469152
0.469317
0.46949
0.469671
0.469861
0.470061
0.470271
0.47049
0.470721
0.470963
0.471216
0.471482
0.471761
0.472053
0.47236
0.472682
0.473047
0.473447
0.473845
0.47424
0.474632
0.47502
0.475405
0.475784
0.476159
0.476527
0.476888
0.477241
0.477585
0.477919
0.47824
0.478549
0.478843
0.47912
0.479379
0.479622
0.465572
0.465655
0.465748
0.465845
0.465948
0.466056
0.466169
0.466289
0.466414
0.466546
0.466685
0.466831
0.466984
0.467144
0.467313
0.46749
0.467676
0.467872
0.468076
0.468291
0.468517
0.468753
0.469002
0.469262
0.469535
0.469822
0.470123
0.470439
0.470771
0.471118
0.471514
0.471948
0.472379
0.472808
0.473234
0.473657
0.474075
0.474489
0.474898
0.475301
0.475696
0.476083
0.47646
0.476826
0.47718
0.477519
0.477842
0.478148
0.478434
0.478701
0.463612
0.463702
0.4638
0.463905
0.464014
0.464129
0.464251
0.464379
0.464513
0.464654
0.464802
0.464958
0.465122
0.465294
0.465475
0.465664
0.465863
0.466072
0.466291
0.466522
0.466763
0.467017
0.467283
0.467562
0.467856
0.468164
0.468487
0.468827
0.469183
0.469558
0.469984
0.470452
0.470917
0.471381
0.471842
0.472299
0.472753
0.473203
0.473647
0.474084
0.474515
0.474936
0.475348
0.475747
0.476134
0.476505
0.476858
0.477193
0.477507
0.477799
0.461652
0.461748
0.461853
0.461964
0.46208
0.462203
0.462332
0.462468
0.462611
0.462762
0.46292
0.463086
0.46326
0.463444
0.463636
0.463838
0.46405
0.464273
0.464507
0.464752
0.46501
0.465281
0.465565
0.465863
0.466177
0.466506
0.466852
0.467216
0.467598
0.468
0.468457
0.468959
0.46946
0.469959
0.470455
0.470949
0.471439
0.471924
0.472405
0.472879
0.473345
0.473802
0.474249
0.474683
0.475103
0.475506
0.475892
0.476256
0.476598
0.476917
0.459692
0.459793
0.459905
0.460023
0.460146
0.460277
0.460414
0.460558
0.46071
0.460869
0.461037
0.461213
0.461399
0.461593
0.461797
0.462012
0.462237
0.462474
0.462723
0.462983
0.463257
0.463545
0.463848
0.464165
0.464499
0.46485
0.465219
0.465607
0.466016
0.466445
0.466934
0.467471
0.468008
0.468542
0.469075
0.469605
0.470132
0.470655
0.471173
0.471684
0.472187
0.472681
0.473163
0.473633
0.474087
0.474525
0.474942
0.475338
0.475709
0.476055
0.457732
0.457839
0.457957
0.458081
0.458212
0.45835
0.458495
0.458648
0.458808
0.458977
0.459154
0.459341
0.459537
0.459743
0.459959
0.460186
0.460425
0.460675
0.460939
0.461215
0.461505
0.46181
0.462131
0.462468
0.462823
0.463196
0.463588
0.464001
0.464435
0.464893
0.465414
0.465987
0.46656
0.467132
0.467702
0.46827
0.468834
0.469395
0.469951
0.4705
0.471041
0.471573
0.472092
0.472598
0.473088
0.47356
0.47401
0.474438
0.474839
0.475212
0.455771
0.455885
0.456009
0.45614
0.456278
0.456423
0.456576
0.456737
0.456906
0.457084
0.457271
0.457468
0.457675
0.457892
0.458121
0.45836
0.458612
0.458877
0.459155
0.459447
0.459754
0.460076
0.460416
0.460772
0.461148
0.461543
0.461959
0.462397
0.462858
0.463344
0.463898
0.464508
0.465118
0.465727
0.466335
0.466942
0.467545
0.468145
0.46874
0.469328
0.469908
0.470478
0.471036
0.471579
0.472105
0.472612
0.473096
0.473556
0.473988
0.47439
0.453811
0.45393
0.454061
0.454199
0.454344
0.454496
0.454657
0.454826
0.455004
0.455192
0.455388
0.455596
0.455813
0.456042
0.456282
0.456535
0.4568
0.457078
0.457371
0.457679
0.458003
0.458343
0.458701
0.459078
0.459474
0.459892
0.460332
0.460795
0.461284
0.461798
0.462386
0.463034
0.463682
0.464329
0.464977
0.465622
0.466265
0.466905
0.46754
0.468168
0.468788
0.469397
0.469993
0.470575
0.471138
0.47168
0.4722
0.472692
0.473156
0.473587
0.45185
0.451975
0.452112
0.452257
0.452409
0.452569
0.452738
0.452915
0.453102
0.453299
0.453505
0.453723
0.453951
0.454191
0.454443
0.454709
0.454987
0.45528
0.455588
0.455912
0.456252
0.45661
0.456987
0.457384
0.457802
0.458242
0.458706
0.459196
0.459712
0.460256
0.460878
0.461564
0.462251
0.462938
0.463625
0.464311
0.464995
0.465676
0.466351
0.46702
0.46768
0.46833
0.468965
0.469585
0.470186
0.470765
0.471319
0.471846
0.472341
0.472802
0.449889
0.450021
0.450164
0.450315
0.450474
0.450642
0.450819
0.451005
0.4512
0.451406
0.451622
0.45185
0.452089
0.452341
0.452605
0.452883
0.453175
0.453482
0.453805
0.454144
0.454502
0.454878
0.455274
0.455691
0.456131
0.456594
0.457083
0.457599
0.458144
0.458718
0.459375
0.4601
0.460827
0.461554
0.462282
0.463009
0.463734
0.464456
0.465173
0.465884
0.466585
0.467275
0.467951
0.46861
0.469249
0.469865
0.470455
0.471016
0.471544
0.472035
0.447928
0.448065
0.448215
0.448373
0.44854
0.448715
0.448899
0.449094
0.449298
0.449513
0.449739
0.449977
0.450227
0.45049
0.450766
0.451057
0.451362
0.451684
0.452022
0.452378
0.452752
0.453146
0.453562
0.454
0.454461
0.454948
0.455463
0.456005
0.456579
0.457184
0.457876
0.458641
0.459408
0.460177
0.460946
0.461715
0.462482
0.463247
0.464006
0.464759
0.465502
0.466233
0.466949
0.467647
0.468325
0.468979
0.469605
0.470201
0.470762
0.471285
0.445966
0.44611
0.446266
0.446431
0.446605
0.446787
0.44698
0.447182
0.447396
0.44762
0.447856
0.448104
0.448365
0.448639
0.448927
0.449231
0.44955
0.449886
0.450239
0.450611
0.451003
0.451416
0.451851
0.452309
0.452793
0.453305
0.453844
0.454414
0.455017
0.455654
0.456382
0.457188
0.457996
0.458806
0.459617
0.460429
0.461239
0.462047
0.462849
0.463644
0.464429
0.465202
0.465959
0.466697
0.467414
0.468105
0.468768
0.469399
0.469995
0.47055
0.444004
0.444155
0.444317
0.444489
0.44467
0.44486
0.44506
0.445271
0.445493
0.445726
0.445972
0.44623
0.446502
0.446788
0.447089
0.447405
0.447738
0.448088
0.448457
0.448845
0.449254
0.449686
0.450141
0.450621
0.451127
0.451663
0.452228
0.452826
0.453459
0.454127
0.454893
0.45574
0.45659
0.457442
0.458297
0.459151
0.460005
0.460856
0.461701
0.462539
0.463367
0.464181
0.464979
0.465757
0.466513
0.467243
0.467943
0.46861
0.469241
0.469828
0.442042
0.442199
0.442368
0.442546
0.442734
0.442932
0.44314
0.44336
0.44359
0.443833
0.444088
0.444357
0.44464
0.444937
0.44525
0.445579
0.445926
0.44629
0.446675
0.44708
0.447506
0.447956
0.448431
0.448933
0.449463
0.450023
0.450615
0.451241
0.451904
0.452605
0.453408
0.454297
0.455189
0.456085
0.456983
0.457881
0.458779
0.459673
0.460562
0.461443
0.462313
0.463169
0.464008
0.464827
0.465622
0.46639
0.467128
0.467832
0.468498
0.46912
0.44008
0.440243
0.440419
0.440604
0.440799
0.441004
0.44122
0.441448
0.441687
0.441939
0.442204
0.442483
0.442777
0.443086
0.443411
0.443753
0.444113
0.444493
0.444893
0.445314
0.445759
0.446228
0.446723
0.447247
0.4478
0.448385
0.449004
0.449659
0.450353
0.451087
0.451928
0.452859
0.453794
0.454734
0.455675
0.456618
0.457559
0.458497
0.45943
0.460353
0.461266
0.462164
0.463044
0.463903
0.464739
0.465546
0.466322
0.467064
0.467767
0.468425
0.438117
0.438287
0.438469
0.438661
0.438863
0.439076
0.4393
0.439536
0.439784
0.440045
0.44032
0.440609
0.440914
0.441234
0.441572
0.441927
0.442301
0.442695
0.443111
0.443549
0.444012
0.4445
0.445016
0.445562
0.446139
0.446749
0.447396
0.44808
0.448805
0.449572
0.450452
0.451426
0.452405
0.453388
0.454373
0.45536
0.456345
0.457327
0.458303
0.45927
0.460224
0.461164
0.462086
0.462986
0.463861
0.464708
0.465524
0.466304
0.467045
0.467741
0.436154
0.43633
0.436519
0.436718
0.436927
0.437147
0.437379
0.437624
0.437881
0.438151
0.438436
0.438735
0.439051
0.439383
0.439732
0.440101
0.440489
0.440898
0.44133
0.441785
0.442266
0.442774
0.443311
0.443878
0.444479
0.445116
0.44579
0.446504
0.44726
0.448061
0.448979
0.449997
0.451019
0.452046
0.453076
0.454107
0.455136
0.456161
0.45718
0.458189
0.459186
0.460168
0.461131
0.462072
0.462988
0.463876
0.464731
0.465552
0.466333
0.467069
0.434191
0.434374
0.434569
0.434774
0.434991
0.435219
0.435459
0.435711
0.435977
0.436257
0.436551
0.436861
0.437188
0.437531
0.437893
0.438275
0.438677
0.439101
0.439549
0.440021
0.44052
0.441048
0.441606
0.442196
0.442822
0.443484
0.444186
0.44493
0.445718
0.446553
0.447511
0.448571
0.449638
0.450708
0.451782
0.452856
0.453929
0.454998
0.456059
0.457111
0.45815
0.459174
0.460178
0.461161
0.462118
0.463047
0.463945
0.464807
0.465631
0.46641
0.432228
0.432417
0.432618
0.43283
0.433054
0.433289
0.433537
0.433798
0.434073
0.434362
0.434666
0.434987
0.435324
0.435679
0.436054
0.436449
0.436865
0.437304
0.437768
0.438258
0.438775
0.439323
0.439902
0.440515
0.441165
0.441854
0.442584
0.443359
0.444179
0.445048
0.446044
0.447148
0.448258
0.449373
0.45049
0.451608
0.452724
0.453835
0.454939
0.456033
0.457114
0.458179
0.459225
0.46025
0.46125
0.462222
0.463164
0.46407
0.464939
0.465763
0.430264
0.430459
0.430667
0.430886
0.431117
0.43136
0.431616
0.431885
0.432169
0.432467
0.432781
0.433112
0.43346
0.433828
0.434214
0.434623
0.435053
0.435507
0.435987
0.436495
0.437031
0.437598
0.438199
0.438836
0.439511
0.440226
0.440985
0.441789
0.442642
0.443545
0.44458
0.445727
0.44688
0.448038
0.449198
0.450359
0.451518
0.452671
0.453817
0.454953
0.456076
0.457183
0.458272
0.459339
0.460383
0.461401
0.462388
0.463342
0.464258
0.465132
0.428299
0.428502
0.428716
0.428942
0.42918
0.42943
0.429694
0.429972
0.430264
0.430572
0.430896
0.431237
0.431596
0.431975
0.432375
0.432796
0.433241
0.433711
0.434207
0.434732
0.435287
0.435875
0.436498
0.437158
0.437857
0.4386
0.439387
0.440222
0.441107
0.442043
0.443117
0.444307
0.445503
0.446703
0.447906
0.449109
0.450309
0.451504
0.452692
0.453869
0.455034
0.456183
0.457315
0.458428
0.459518
0.460582
0.461618
0.462622
0.46359
0.464517
0.426335
0.426544
0.426765
0.426997
0.427242
0.4275
0.427772
0.428058
0.428359
0.428676
0.42901
0.429361
0.429732
0.430123
0.430535
0.43097
0.431429
0.431914
0.432427
0.43297
0.433544
0.434152
0.434797
0.43548
0.436205
0.436974
0.43779
0.438655
0.439572
0.440542
0.441654
0.442886
0.444124
0.445366
0.44661
0.447854
0.449096
0.450332
0.45156
0.452779
0.453986
0.455179
0.456356
0.457515
0.458653
0.459767
0.460856
0.461913
0.462936
0.46392
0.42437
0.424586
0.424813
0.425052
0.425304
0.42557
0.425849
0.426143
0.426453
0.42678
0.427123
0.427486
0.427868
0.42827
0.428695
0.429144
0.429617
0.430118
0.430648
0.431208
0.431801
0.43243
0.433097
0.433804
0.434554
0.43535
0.436194
0.437089
0.438038
0.439041
0.44019
0.441463
0.442742
0.444025
0.445309
0.446594
0.447876
0.449152
0.450422
0.451683
0.452933
0.45417
0.455393
0.4566
0.457789
0.458957
0.460101
0.461216
0.462299
0.463343
0.422404
0.422627
0.422861
0.423106
0.423366
0.423639
0.423926
0.424229
0.424547
0.424883
0.425237
0.42561
0.426003
0.426417
0.426855
0.427317
0.427805
0.428322
0.428868
0.429446
0.430059
0.430709
0.431397
0.432128
0.432903
0.433726
0.434599
0.435523
0.436503
0.437538
0.438724
0.440037
0.441355
0.442678
0.444002
0.445326
0.446648
0.447964
0.449275
0.450578
0.451872
0.453155
0.454427
0.455685
0.456928
0.458153
0.459356
0.460533
0.461679
0.462788
0.420439
0.420668
0.420908
0.42116
0.421427
0.421707
0.422002
0.422313
0.422641
0.422986
0.423349
0.423733
0.424137
0.424564
0.425014
0.42549
0.425993
0.426525
0.427088
0.427685
0.428317
0.428987
0.429698
0.430452
0.431253
0.432102
0.433002
0.433956
0.434966
0.436033
0.437254
0.438605
0.439962
0.441323
0.442686
0.444049
0.445409
0.446766
0.448118
0.449464
0.450803
0.452134
0.453457
0.454769
0.456069
0.457355
0.458621
0.459864
0.461077
0.462255
0.418472
0.418708
0.418954
0.419213
0.419487
0.419775
0.420078
0.420397
0.420734
0.421088
0.421462
0.421856
0.422271
0.42271
0.423173
0.423663
0.424181
0.424729
0.425309
0.425923
0.426575
0.427266
0.427999
0.428776
0.429602
0.430477
0.431404
0.432387
0.433426
0.434523
0.435779
0.437167
0.438562
0.43996
0.44136
0.44276
0.444159
0.445556
0.44695
0.44834
0.449726
0.451107
0.452483
0.453853
0.455214
0.456564
0.457898
0.45921
0.460495
0.461745
0.416505
0.416747
0.416999
0.417266
0.417546
0.417842
0.418153
0.41848
0.418826
0.419189
0.419573
0.419978
0.420405
0.420856
0.421332
0.421836
0.422368
0.422932
0.423529
0.424162
0.424832
0.425544
0.426299
0.4271
0.427949
0.42885
0.429804
0.430814
0.431882
0.433009
0.434297
0.435721
0.437151
0.438585
0.440022
0.441459
0.442897
0.444333
0.44577
0.447205
0.44864
0.450075
0.451508
0.452938
0.454364
0.455781
0.457186
0.458572
0.459931
0.461257
0.414536
0.414785
0.415044
0.415317
0.415604
0.415907
0.416227
0.416563
0.416917
0.41729
0.417684
0.418099
0.418538
0.419001
0.41949
0.420007
0.420555
0.421135
0.421749
0.422399
0.423089
0.423821
0.424598
0.425422
0.426295
0.427221
0.428201
0.429238
0.430332
0.431487
0.432807
0.434265
0.43573
0.437198
0.43867
0.440144
0.44162
0.443097
0.444577
0.44606
0.447547
0.449037
0.45053
0.452024
0.453518
0.455007
0.456485
0.457948
0.459386
0.46079
0.412567
0.412821
0.413087
0.413367
0.413662
0.413972
0.414299
0.414644
0.415007
0.41539
0.415794
0.41622
0.41667
0.417145
0.417647
0.418179
0.418741
0.419337
0.419967
0.420636
0.421346
0.422098
0.422896
0.423742
0.424639
0.425589
0.426594
0.427656
0.428776
0.429957
0.431307
0.432798
0.434295
0.435797
0.437303
0.438813
0.440328
0.441847
0.443373
0.444905
0.446445
0.447994
0.44955
0.451112
0.452676
0.454239
0.455795
0.457336
0.458855
0.460341
0.410597
0.410856
0.411129
0.411416
0.411718
0.412036
0.412371
0.412725
0.413097
0.413489
0.413903
0.41434
0.414801
0.415289
0.415804
0.416349
0.416926
0.417538
0.418185
0.418872
0.4196
0.420373
0.421192
0.422059
0.422979
0.423952
0.42498
0.426067
0.427212
0.428418
0.429795
0.431317
0.432846
0.43438
0.43592
0.437467
0.439021
0.440583
0.442155
0.443739
0.445336
0.446946
0.448568
0.4502
0.451838
0.453478
0.455113
0.456735
0.458337
0.459906
0.408625
0.40889
0.409169
0.409463
0.409773
0.410099
0.410442
0.410804
0.411185
0.411587
0.412011
0.412459
0.412932
0.413432
0.41396
0.414519
0.415111
0.415738
0.416402
0.417107
0.417853
0.418645
0.419484
0.420373
0.421314
0.422309
0.423361
0.42447
0.425638
0.426868
0.428271
0.429822
0.431381
0.432947
0.434521
0.436104
0.437697
0.439304
0.440925
0.442564
0.444219
0.445893
0.447583
0.449287
0.451001
0.452719
0.454435
0.456141
0.457828
0.459483
0.406652
0.406923
0.407209
0.40751
0.407827
0.408161
0.408513
0.408883
0.409273
0.409685
0.410119
0.410577
0.411062
0.411573
0.412115
0.412688
0.413294
0.413937
0.414617
0.415339
0.416104
0.416915
0.417773
0.418683
0.419644
0.42066
0.421733
0.422863
0.424053
0.425304
0.426732
0.428311
0.429899
0.431496
0.433103
0.434723
0.436358
0.438011
0.439683
0.441377
0.443094
0.444833
0.446593
0.448372
0.450163
0.451961
0.45376
0.45555
0.457323
0.459067
0.404679
0.404954
0.405248
0.405556
0.405881
0.406222
0.406582
0.406961
0.40736
0.407781
0.408226
0.408695
0.40919
0.409714
0.410269
0.410855
0.411476
0.412134
0.412831
0.413569
0.414352
0.415181
0.416058
0.416987
0.417968
0.419003
0.420095
0.421245
0.422455
0.423727
0.425178
0.426783
0.428399
0.430026
0.431668
0.433325
0.435003
0.436702
0.438427
0.440179
0.441959
0.443766
0.445598
0.447451
0.44932
0.4512
0.453082
0.454958
0.456819
0.458655
0.402704
0.402985
0.403286
0.403601
0.403933
0.404283
0.404651
0.405038
0.405446
0.405877
0.406332
0.406811
0.407318
0.407854
0.408421
0.409021
0.409656
0.410329
0.411041
0.411796
0.412596
0.413442
0.414337
0.415284
0.416283
0.417337
0.418448
0.419616
0.420844
0.422134
0.423607
0.425238
0.426881
0.428538
0.430214
0.43191
0.433631
0.435379
0.437158
0.43897
0.440814
0.442689
0.444593
0.446522
0.44847
0.45043
0.452396
0.45436
0.456312
0.458243
0.400729
0.401016
0.401323
0.401646
0.401985
0.402343
0.402719
0.403115
0.403532
0.403972
0.404437
0.404927
0.405445
0.405993
0.406572
0.407185
0.407834
0.408521
0.409249
0.41002
0.410835
0.411698
0.412611
0.413574
0.41459
0.415661
0.416788
0.417972
0.419217
0.420525
0.422018
0.423673
0.425343
0.427031
0.428741
0.430476
0.432242
0.43404
0.435875
0.437747
0.439656
0.4416
0.443576
0.44558
0.447607
0.449649
0.4517
0.453752
0.455798
0.457829
0.398753
0.399046
0.39936
0.39969
0.400037
0.400402
0.400786
0.401191
0.401617
0.402066
0.402541
0.403042
0.403571
0.40413
0.404722
0.405347
0.40601
0.406711
0.407453
0.408239
0.40907
0.409948
0.410876
0.411855
0.412887
0.413973
0.415114
0.416314
0.417574
0.418898
0.420411
0.422089
0.423785
0.425504
0.427248
0.429024
0.430835
0.432685
0.434576
0.436508
0.438482
0.440495
0.442543
0.444622
0.446727
0.448851
0.450988
0.453132
0.455276
0.457411
0.396776
0.397076
0.397397
0.397734
0.398089
0.398461
0.398853
0.399266
0.399701
0.40016
0.400644
0.401155
0.401695
0.402266
0.402869
0.403507
0.404183
0.404898
0.405654
0.406453
0.407299
0.408192
0.409134
0.410127
0.411172
0.412271
0.413427
0.414639
0.415913
0.417252
0.418783
0.420484
0.422207
0.423956
0.425737
0.427553
0.429411
0.431312
0.433259
0.435252
0.43729
0.439371
0.44149
0.443643
0.445825
0.448032
0.450258
0.452497
0.454743
0.456989
0.394799
0.395106
0.395434
0.395778
0.39614
0.39652
0.39692
0.397341
0.397785
0.398253
0.398746
0.399267
0.399818
0.400399
0.401014
0.401665
0.402352
0.40308
0.403849
0.404662
0.405521
0.406427
0.407382
0.408387
0.409445
0.410556
0.411723
0.412948
0.414234
0.415587
0.417136
0.418859
0.420609
0.422389
0.424205
0.426063
0.427967
0.42992
0.431922
0.433975
0.436076
0.438223
0.440411
0.442638
0.444899
0.447189
0.449506
0.451844
0.454198
0.456563
0.392822
0.393136
0.39347
0.393822
0.394191
0.394579
0.394986
0.395416
0.395868
0.396345
0.396847
0.397378
0.397939
0.398531
0.399157
0.399819
0.400518
0.401258
0.402039
0.402864
0.403735
0.404653
0.405619
0.406636
0.407705
0.408826
0.410003
0.411238
0.412536
0.413902
0.415468
0.417214
0.418989
0.4208
0.422653
0.424552
0.426502
0.428506
0.430563
0.432674
0.434836
0.437047
0.439304
0.441604
0.443943
0.44632
0.448731
0.451173
0.453641
0.45613
0.390844
0.391165
0.391507
0.391865
0.392242
0.392637
0.393052
0.39349
0.39395
0.394436
0.394947
0.395488
0.396058
0.39666
0.397297
0.397969
0.39868
0.399431
0.400223
0.401059
0.401941
0.402869
0.403846
0.404872
0.40595
0.40708
0.408265
0.40951
0.410818
0.412196
0.413779
0.415547
0.417349
0.419191
0.42108
0.42302
0.425015
0.427068
0.429178
0.431345
0.433566
0.43584
0.438164
0.440537
0.442956
0.445422
0.447932
0.450483
0.453071
0.455691
0.388867
0.389195
0.389544
0.389909
0.390292
0.390695
0.391118
0.391563
0.392031
0.392525
0.393046
0.393595
0.394175
0.394787
0.395433
0.396116
0.396837
0.397598
0.3984
0.399246
0.400137
0.401075
0.40206
0.403094
0.404179
0.405317
0.406509
0.407762
0.40908
0.41047
0.412068
0.413858
0.415686
0.417559
0.419484
0.421464
0.423503
0.425604
0.427764
0.429984
0.432263
0.434597
0.436988
0.439434
0.441935
0.444493
0.447105
0.449771
0.452485
0.455242
0.386888
0.387225
0.38758
0.387952
0.388342
0.388752
0.389183
0.389635
0.390112
0.390614
0.391143
0.391701
0.392289
0.39291
0.393566
0.394258
0.394988
0.395758
0.39657
0.397425
0.398324
0.399269
0.400261
0.401302
0.402392
0.403536
0.404735
0.405994
0.40732
0.408722
0.410336
0.412147
0.414001
0.415905
0.417864
0.419883
0.421964
0.424109
0.426318
0.428589
0.430921
0.433316
0.435772
0.438293
0.440878
0.443531
0.446251
0.449036
0.451882
0.45478
0.38491
0.385255
0.385616
0.385995
0.386392
0.386809
0.387247
0.387707
0.388191
0.388701
0.389238
0.389804
0.390401
0.39103
0.391694
0.392395
0.393133
0.393912
0.394731
0.395593
0.3965
0.397451
0.398448
0.399494
0.400589
0.401736
0.40294
0.404206
0.40554
0.406953
0.408582
0.410414
0.412294
0.414227
0.416219
0.418275
0.420395
0.422582
0.424836
0.427155
0.42954
0.431993
0.434516
0.437111
0.439784
0.442535
0.445365
0.448273
0.451254
0.454298
0.382931
0.383285
0.383653
0.384038
0.384442
0.384865
0.38531
0.385777
0.386269
0.386786
0.38733
0.387904
0.388509
0.389146
0.389818
0.390526
0.391272
0.392058
0.392884
0.393752
0.394664
0.395619
0.396621
0.39767
0.398768
0.399918
0.401126
0.402397
0.403739
0.405162
0.406806
0.408659
0.410562
0.412523
0.414547
0.416637
0.418794
0.42102
0.423314
0.425679
0.428115
0.430626
0.433215
0.435888
0.438649
0.4415
0.444444
0.447478
0.450596
0.453787
0.380953
0.381314
0.381689
0.38208
0.382491
0.382921
0.383372
0.383846
0.384345
0.384869
0.385421
0.386002
0.386614
0.387258
0.387937
0.388652
0.389404
0.390195
0.391027
0.3919
0.392815
0.393774
0.394778
0.395829
0.396929
0.398081
0.399292
0.400568
0.401916
0.403349
0.405007
0.406879
0.408806
0.410793
0.412846
0.414966
0.417157
0.419418
0.421751
0.424159
0.426644
0.429212
0.431868
0.434619
0.43747
0.440424
0.443482
0.446642
0.449898
0.453238
0.378974
0.379344
0.379724
0.380122
0.380539
0.380976
0.381433
0.381914
0.382419
0.38295
0.383508
0.384096
0.384714
0.385365
0.38605
0.386771
0.387528
0.388324
0.38916
0.390036
0.390954
0.391914
0.392919
0.393971
0.395071
0.396225
0.397438
0.398717
0.400072
0.401514
0.403186
0.405076
0.407024
0.409035
0.411113
0.413262
0.415481
0.417775
0.420144
0.422592
0.425125
0.42775
0.430474
0.433303
0.436244
0.4393
0.442472
0.445757
0.44915
0.452639
0.376996
0.377374
0.37776
0.378164
0.378587
0.379029
0.379494
0.37998
0.380492
0.381029
0.381593
0.382186
0.38281
0.383467
0.384157
0.384882
0.385644
0.386443
0.387282
0.38816
0.389079
0.39004
0.391044
0.392095
0.393195
0.394349
0.395563
0.396846
0.398206
0.399656
0.401341
0.403247
0.405214
0.407246
0.409347
0.41152
0.413766
0.416088
0.41849
0.420977
0.423557
0.426238
0.429028
0.431935
0.434966
0.438122
0.441405
0.444813
0.448341
0.451978
0.375018
0.375403
0.375795
0.376205
0.376634
0.377082
0.377552
0.378045
0.378562
0.379104
0.379674
0.380273
0.380902
0.381563
0.382257
0.382986
0.383751
0.384553
0.385393
0.386271
0.38719
0.38815
0.389153
0.390202
0.3913
0.392454
0.393669
0.394954
0.396319
0.397776
0.399471
0.401392
0.403376
0.405426
0.407546
0.409739
0.412007
0.414355
0.416787
0.419312
0.421937
0.424673
0.427528
0.430511
0.433628
0.436881
0.440271
0.443797
0.447457
0.451243
0.37304
0.373433
0.373831
0.374246
0.37468
0.375134
0.37561
0.376107
0.376629
0.377177
0.377752
0.378355
0.378988
0.379653
0.380351
0.381082
0.381849
0.382652
0.383492
0.384369
0.385286
0.386244
0.387244
0.38829
0.389387
0.390539
0.391753
0.39304
0.394409
0.395873
0.397577
0.399511
0.401508
0.403572
0.405708
0.407917
0.410204
0.412574
0.415034
0.417594
0.420263
0.423052
0.42597
0.429025
0.432223
0.435567
0.43906
0.4427
0.446489
0.450423
0.371062
0.371463
0.371866
0.372286
0.372726
0.373185
0.373665
0.374168
0.374695
0.375247
0.375825
0.376432
0.377069
0.377737
0.378437
0.37917
0.379937
0.38074
0.381579
0.382454
0.383368
0.384323
0.385319
0.386362
0.387454
0.388604
0.389818
0.391106
0.392478
0.393947
0.395658
0.397601
0.399608
0.401683
0.40383
0.406052
0.408355
0.410745
0.41323
0.415823
0.418533
0.421371
0.424347
0.427469
0.430743
0.434172
0.437761
0.441511
0.445427
0.44951
0.369084
0.369493
0.369901
0.370326
0.37077
0.371234
0.371719
0.372226
0.372757
0.373313
0.373895
0.374505
0.375144
0.375814
0.376515
0.377248
0.378015
0.378817
0.379653
0.380526
0.381436
0.382385
0.383377
0.384415
0.385504
0.38665
0.387862
0.38915
0.390524
0.391996
0.393713
0.395661
0.397675
0.399758
0.401912
0.404143
0.406458
0.408865
0.411374
0.413996
0.416743
0.419626
0.422655
0.425837
0.429179
0.432686
0.436364
0.44022
0.444261
0.448494
0.367107
0.367523
0.367935
0.368365
0.368813
0.369282
0.36977
0.370281
0.370816
0.371375
0.37196
0.372572
0.373213
0.373884
0.374585
0.375318
0.376083
0.376882
0.377715
0.378583
0.379488
0.380432
0.381418
0.38245
0.383534
0.384677
0.385887
0.387173
0.388548
0.390021
0.39174
0.393692
0.395709
0.397794
0.399952
0.40219
0.404514
0.406934
0.409462
0.41211
0.41489
0.417813
0.420887
0.424121
0.427523
0.4311
0.434862
0.438819
0.442983
0.447366
0.365131
0.365553
0.365969
0.366403
0.366856
0.367328
0.36782
0.368334
0.368871
0.369433
0.37002
0.370634
0.371276
0.371946
0.372647
0.373378
0.374141
0.374936
0.375764
0.376627
0.377526
0.378463
0.379443
0.380469
0.381547
0.382685
0.383891
0.385176
0.386549
0.388022
0.38974
0.391691
0.393707
0.395792
0.397951
0.40019
0.40252
0.404951
0.407495
0.410164
0.41297
0.415925
0.419036
0.422313
0.425766
0.429406
0.433247
0.437302
0.441588
0.44612