/*--------------------------------*- C++ -*----------------------------------*\
  =========                 |
  \\      /  F ield         | OpenFOAM: The Open Source CFD Toolbox
   \\    /   O peration     | Website:  https://openfoam.org
    \\  /    A nd           | Version:  9
     \\/     M anipulation  |
\*---------------------------------------------------------------------------*/
FoamFile
{
    format      ascii;
    class       volScalarField;
    location    "0.01";
    object      p_rgh;
}
// * * * * * * * * * * * * * * * * * * * * * * * * * * * * * * * * * * * * * //

dimensions      [1 -1 -2 0 0 0 0];

internalField   nonuniform List<scalar> 
5000
(
-2.40934e-06
-2.03386e-06
9.70633e-07
4.77485e-06
9.07692e-06
1.38393e-05
1.90085e-05
2.45489e-05
3.04191e-05
3.65747e-05
4.29713e-05
4.95644e-05
5.63081e-05
6.31536e-05
7.00477e-05
7.69329e-05
8.37471e-05
9.04229e-05
9.68869e-05
0.000103058
0.000108846
0.000114151
0.000118862
0.000122851
0.000125974
0.000128067
0.000128947
0.000128403
0.000126201
0.000122081
0.000115195
0.000105
9.19993e-05
7.62186e-05
5.77268e-05
3.66145e-05
1.29957e-05
-1.29897e-05
-4.11735e-05
-7.13562e-05
-0.000103305
-0.00013675
-0.000171388
-0.000206874
-0.000242825
-0.000278826
-0.000314424
-0.00034914
-0.000382446
-0.000413656
-1.20945e-06
2.99967e-06
1.16883e-05
2.18401e-05
3.31173e-05
4.55198e-05
5.90345e-05
7.36421e-05
8.93132e-05
0.000106019
0.000123732
0.000142428
0.000162082
0.000182668
0.000204157
0.000226519
0.000249723
0.000273735
0.000298521
0.000324043
0.00035026
0.000377123
0.000404573
0.00043254
0.000460938
0.000489661
0.000518583
0.000547555
0.000576408
0.000604972
0.00063539
0.000666138
0.000693916
0.000718769
0.000740738
0.000759871
0.00077623
0.000789888
0.000800937
0.000809491
0.000815682
0.000819668
0.000821633
0.00082179
0.000820374
0.000817646
0.00081389
0.000809412
0.000804534
0.000800026
4.14412e-06
1.5501e-05
3.04808e-05
4.67645e-05
6.42426e-05
8.30351e-05
0.000103205
0.000124774
0.000147755
0.000172159
0.000197997
0.000225276
0.000254002
0.000284178
0.000315805
0.000348882
0.000383409
0.000419387
0.000456816
0.000495696
0.000536023
0.00057779
0.00062098
0.000665565
0.000711501
0.000758725
0.000807155
0.000856685
0.000907195
0.000958632
0.00101539
0.00107463
0.00113078
0.00118395
0.00123414
0.00128135
0.00132562
0.00136695
0.00140538
0.00144096
0.00147373
0.00150377
0.00153118
0.00155607
0.00157855
0.00159877
0.00161689
0.00163308
0.00164747
0.00166098
7.30562e-06
2.52067e-05
4.6659e-05
6.94666e-05
9.35815e-05
0.000119185
0.000146358
0.000175156
0.000205629
0.000237828
0.000271797
0.000307578
0.000345207
0.000384719
0.000426146
0.000469522
0.000514882
0.000562261
0.000611697
0.000663228
0.00071689
0.000772715
0.000830729
0.000890946
0.000953363
0.00101796
0.0010847
0.00115351
0.00122431
0.00129702
0.00137801
0.00146412
0.00154727
0.00162741
0.0017045
0.0017785
0.00184938
0.00191711
0.00198167
0.00204303
0.00210118
0.0021561
0.00220781
0.0022563
0.00230161
0.00234374
0.00238274
0.00241865
0.00245146
0.00248224
1.02054e-05
3.44311e-05
6.26869e-05
9.25475e-05
0.000123992
0.000157196
0.000192245
0.000229215
0.000268183
0.000309228
0.000352424
0.000397841
0.000445547
0.000495608
0.000548092
0.000603067
0.000660605
0.000720781
0.000783671
0.000849353
0.000917906
0.000989405
0.00106392
0.0011415
0.00122221
0.00130605
0.00139304
0.00148317
0.00157638
0.00167259
0.00178025
0.00189608
0.00200904
0.00211895
0.00222573
0.00232928
0.00242953
0.00252638
0.00261974
0.00270952
0.00279561
0.00287793
0.00295638
0.00303086
0.00310126
0.00316748
0.00322944
0.00328702
0.00334004
0.00338969
1.29499e-05
4.32673e-05
7.8188e-05
0.000115047
0.000153825
0.000194706
0.000237786
0.000283158
0.000330915
0.000381155
0.000433973
0.000489464
0.000547724
0.000608852
0.000672948
0.000740116
0.000810465
0.000884106
0.000961155
0.00104173
0.00112595
0.00121394
0.0013058
0.00140164
0.00150155
0.0016056
0.00171385
0.00182634
0.0019431
0.0020641
0.00220004
0.00234703
0.00249108
0.00263203
0.00276976
0.00290412
0.00303497
0.00316217
0.00328556
0.00340497
0.0035202
0.00363109
0.00373744
0.00383903
0.00393564
0.00402702
0.00411293
0.00419311
0.00426724
0.00433664
1.5581e-05
5.17942e-05
9.31693e-05
0.000136808
0.000182705
0.000231064
0.000281995
0.000335605
0.000392004
0.000451306
0.000513625
0.000579079
0.000647792
0.000719891
0.000795508
0.000874782
0.000957855
0.00104488
0.001136
0.00123138
0.00133118
0.00143555
0.00154466
0.00165864
0.00177763
0.00190176
0.00203114
0.00216589
0.00230608
0.00245182
0.00261604
0.00279406
0.00296904
0.00314087
0.00330939
0.00347441
0.00363575
0.0037932
0.00394653
0.00409548
0.00423981
0.00437924
0.00451349
0.00464222
0.00476508
0.00488168
0.00499162
0.00509449
0.00518987
0.0052792
1.81524e-05
6.02127e-05
0.000107986
0.000158345
0.000211303
0.000267079
0.000325797
0.000387577
0.000452544
0.000520828
0.000592566
0.0006679
0.000746979
0.000829958
0.000917
0.00100827
0.00110396
0.00120423
0.00130929
0.00141933
0.00153454
0.00165512
0.00178127
0.00191318
0.00205102
0.002195
0.00234527
0.00250202
0.0026654
0.00283557
0.00302773
0.00323651
0.00344224
0.00364478
0.00384395
0.00403952
0.00423124
0.00441886
0.00460209
0.00478059
0.00495403
0.00512204
0.00528424
0.0054402
0.00558943
0.0057314
0.00586556
0.00599133
0.00610814
0.00621754
2.06841e-05
6.85906e-05
0.000122768
0.000179861
0.0002399
0.000303121
0.000369657
0.000439642
0.000513217
0.00059053
0.00067174
0.000757012
0.00084652
0.000940447
0.00103898
0.00114233
0.0012507
0.0013643
0.00148336
0.00160812
0.0017388
0.00187565
0.00201889
0.00216877
0.00232552
0.00248939
0.00266061
0.00283943
0.00302606
0.00322072
0.00344089
0.0036806
0.00391731
0.00415083
0.00438093
0.00460735
0.0048298
0.00504796
0.00526148
0.00546995
0.00567294
0.00587001
0.00606066
0.00624434
0.00642045
0.00658831
0.00674723
0.00689642
0.00703514
0.00716503
2.31798e-05
7.69351e-05
0.000137515
0.000201345
0.00026847
0.000339143
0.000413512
0.000491724
0.000573939
0.000660327
0.000751067
0.000846347
0.000946364
0.00105133
0.00116146
0.00127699
0.00139815
0.00152521
0.00165841
0.00179802
0.00194432
0.00209758
0.00225807
0.00242609
0.00260192
0.00278587
0.00297825
0.00317937
0.00338952
0.00360898
0.00385749
0.00412853
0.00439663
0.00466156
0.00492305
0.00518082
0.00543452
0.00568377
0.00592816
0.00616721
0.00640041
0.00662721
0.00684699
0.00705909
0.00726278
0.00745723
0.00764158
0.00781485
0.00797614
0.00812718
2.56406e-05
8.52554e-05
0.000152228
0.000222785
0.000296987
0.000375106
0.000457303
0.000543743
0.000634608
0.000730086
0.000830377
0.000935694
0.00104626
0.00116231
0.00128408
0.00141186
0.00154589
0.00168648
0.0018339
0.00198847
0.00215048
0.00232025
0.00249811
0.0026844
0.00287947
0.00308368
0.00329742
0.00352107
0.003755
0.00399955
0.00427678
0.00457954
0.00487942
0.00517618
0.00546953
0.00575913
0.0060446
0.00632552
0.00660138
0.00687164
0.00713571
0.00739292
0.00764254
0.00788378
0.00811577
0.00833752
0.00854801
0.00874609
0.00893068
0.00910355
2.80614e-05
9.35551e-05
0.00016691
0.000244186
0.000325461
0.000411021
0.000501046
0.00059572
0.000695242
0.00079982
0.000909678
0.00102505
0.00114618
0.00127334
0.0014068
0.00154685
0.0016938
0.00184796
0.00200965
0.00217921
0.00235699
0.00254335
0.00273866
0.00294332
0.00315774
0.00338235
0.00361763
0.003864
0.00412193
0.00439184
0.0046981
0.00503293
0.00536498
0.005694
0.00601966
0.00634161
0.0066594
0.00697256
0.00728052
0.00758266
0.00787829
0.00816663
0.00844683
0.00871797
0.00897901
0.00922884
0.00946624
0.00968992
0.00989858
0.0100939
3.04298e-05
0.000101824
0.000181556
0.000265547
0.000353896
0.000446902
0.000544763
0.000647682
0.000755875
0.000869571
0.000989016
0.00111447
0.0012462
0.0013845
0.00152968
0.00168205
0.00184195
0.00200972
0.00218572
0.00237033
0.00256394
0.00276694
0.00297978
0.00320291
0.00343681
0.00368198
0.00393895
0.00420827
0.00449043
0.00478596
0.00512157
0.00548888
0.00585354
0.00621528
0.00657378
0.00692863
0.00727936
0.00762542
0.00796618
0.00830094
0.0086289
0.00894918
0.00926079
0.00956267
0.00985363
0.0101324
0.0103975
0.0106476
0.0108812
0.0110998
3.27323e-05
0.000110049
0.000196151
0.000286855
0.000382278
0.000482736
0.000588443
0.000699617
0.000816496
0.000939331
0.00106839
0.00120395
0.00134632
0.00149581
0.00165275
0.00181749
0.00199039
0.00217183
0.0023622
0.00256192
0.00277142
0.00299117
0.00322164
0.00346337
0.00371689
0.00398279
0.00426167
0.00455415
0.00486083
0.00518229
0.00554763
0.00594787
0.00634564
0.00674067
0.00713259
0.00752098
0.00790533
0.00828503
0.00865938
0.00902758
0.00938873
0.00974183
0.0100858
0.0104193
0.0107411
0.0110497
0.0113435
0.0116209
0.0118801
0.0121226
3.49537e-05
0.000118217
0.000210682
0.000308094
0.000410591
0.000518503
0.000632059
0.000751497
0.000877076
0.00100907
0.00114777
0.00129347
0.00144652
0.00160723
0.00177598
0.00195313
0.00213908
0.00233424
0.00253905
0.00275396
0.00297944
0.00321603
0.00346427
0.00372473
0.00399805
0.00428489
0.00458592
0.00490184
0.00523334
0.00558108
0.00597659
0.00641028
0.00684174
0.00727066
0.00769667
0.00811931
0.00853802
0.00895216
0.00936094
0.00976345
0.0101587
0.0105455
0.0109227
0.0112888
0.0116424
0.0119817
0.0123051
0.0126107
0.0128966
0.0131638
3.70724e-05
0.000126301
0.000225125
0.000329243
0.000438815
0.000554181
0.000675589
0.000803299
0.00093759
0.00107876
0.00122712
0.001383
0.00154674
0.00171871
0.0018993
0.00208891
0.00228795
0.00249689
0.0027162
0.00294636
0.00318793
0.00344147
0.0037076
0.00398698
0.00428029
0.00458828
0.00491172
0.00525138
0.00560804
0.00598246
0.00640861
0.00687633
0.00734209
0.00780557
0.00826638
0.00872403
0.00917793
0.00962736
0.0100714
0.0105092
0.0109395
0.011361
0.0117724
0.012172
0.0125583
0.0129293
0.0132832
0.0136179
0.0139313
0.0142241
3.90706e-05
0.000134283
0.000239467
0.000350293
0.000466941
0.000589764
0.000719029
0.000855021
0.000998039
0.0011484
0.00130644
0.00147251
0.00164698
0.00183024
0.0020227
0.00222479
0.00243698
0.00265974
0.0028936
0.0031391
0.00339684
0.00366746
0.00395163
0.00425008
0.00456359
0.00489297
0.00523908
0.0056028
0.005985
0.00638651
0.00684383
0.00734618
0.00784689
0.00834564
0.00884203
0.00933551
0.00982546
0.0103111
0.0107914
0.0112653
0.0117316
0.0121888
0.0126353
0.0130695
0.0134894
0.013893
0.0142783
0.0146429
0.0149847
0.0153038
4.09368e-05
0.000142159
0.000253706
0.000371241
0.000494969
0.000625256
0.00076239
0.000906677
0.00105844
0.00121801
0.00138575
0.00156203
0.00174725
0.00194182
0.00214618
0.0023608
0.00258616
0.0028228
0.00307128
0.0033322
0.00360621
0.00389402
0.00419638
0.00451408
0.00484799
0.00519901
0.00556809
0.0059562
0.00636432
0.00679338
0.00728241
0.00782004
0.0083564
0.00889117
0.00942395
0.00995413
0.010481
0.0110038
0.0115213
0.0120323
0.0125355
0.0130294
0.013512
0.0139816
0.0144361
0.0148733
0.0152908
0.0156864
0.0160574
0.0164035
4.26512e-05
0.000149905
0.000267818
0.000392064
0.000522878
0.000660638
0.000805653
0.000958247
0.00111876
0.00128756
0.00146502
0.00165153
0.00184753
0.00205344
0.00226973
0.00249691
0.00273551
0.00298609
0.00324927
0.0035257
0.0038161
0.00412123
0.00444193
0.00477907
0.0051336
0.00550652
0.00589886
0.00631173
0.00674618
0.00720327
0.00772458
0.00829818
0.00887094
0.00944253
0.0100125
0.0105803
0.0111451
0.0117059
0.0122615
0.0128107
0.0133519
0.0138833
0.014403
0.0149089
0.0153989
0.0158704
0.0163211
0.0167483
0.0171494
0.0175232
4.41871e-05
0.000157484
0.000281765
0.00041273
0.00055064
0.000695883
0.000848786
0.00100969
0.00117897
0.001357
0.00154419
0.00174095
0.00194774
0.00216502
0.00239329
0.00263309
0.00288498
0.00314957
0.00342754
0.00371958
0.0040265
0.00434911
0.00468833
0.00504512
0.00542051
0.00581561
0.00623155
0.00666954
0.00713077
0.00761639
0.00817061
0.00878092
0.00939084
0.0100001
0.0106082
0.0112145
0.011818
0.0124178
0.0130126
0.0136008
0.0141809
0.0147507
0.0153084
0.0158515
0.0163777
0.0168845
0.0173691
0.0178287
0.0182605
0.0186627
4.55308e-05
0.000164891
0.00029555
0.000433246
0.000578264
0.000730997
0.00089179
0.00106101
0.00123905
0.00142632
0.00162323
0.00183025
0.00204785
0.00227652
0.00251679
0.00276924
0.00303449
0.00331317
0.00360602
0.00391381
0.00423738
0.00457764
0.00493558
0.00531226
0.00570878
0.00612636
0.00656626
0.00702979
0.00751827
0.00803295
0.00862074
0.00926851
0.00991643
0.0105642
0.0112112
0.0118569
0.0125002
0.0131399
0.0137747
0.0144029
0.0150226
0.0156318
0.0162282
0.0168092
0.0173725
0.0179151
0.0184343
0.0189271
0.0193904
0.0198216
4.66796e-05
0.000172144
0.000309202
0.000453645
0.000605779
0.000766007
0.000934694
0.00111223
0.00129903
0.00149553
0.00170218
0.00191945
0.00214786
0.00238792
0.00264022
0.00290537
0.00318401
0.00347687
0.0037847
0.00410835
0.00444873
0.00480682
0.00518369
0.00558049
0.00599844
0.00643884
0.00690308
0.00739259
0.00790881
0.00845311
0.00907513
0.00976116
0.0104479
0.011135
0.0118219
0.0125078
0.0131917
0.0138723
0.0145479
0.0152169
0.0158771
0.0165263
0.017162
0.0177817
0.0183826
0.0189617
0.0195161
0.0200426
0.0205381
0.0209991
4.7622e-05
0.000179236
0.000322713
0.000473915
0.000633176
0.000800907
0.000977497
0.00116336
0.00135893
0.00156466
0.00178104
0.00200857
0.00224778
0.00249926
0.0027636
0.00304147
0.00333357
0.00364066
0.00396357
0.0043032
0.00466054
0.00503664
0.00543266
0.00584985
0.00628952
0.0067531
0.00724208
0.00775802
0.0083025
0.00887699
0.00953393
0.010259
0.0109854
0.0117127
0.0124403
0.0131674
0.0138927
0.0146149
0.0153321
0.0160425
0.0167439
0.0174337
0.0181094
0.0187683
0.0194073
0.0200235
0.0206136
0.0211745
0.0217027
0.0221941
4.83341e-05
0.000186133
0.000336036
0.000494006
0.000660405
0.000835653
0.00102016
0.00121435
0.0014187
0.00163367
0.00185978
0.00209758
0.00234762
0.00261053
0.00288694
0.00317758
0.00348319
0.00380459
0.00414268
0.00449841
0.00487285
0.00526715
0.00568254
0.00612038
0.00658209
0.00706921
0.00758334
0.00812618
0.00869944
0.00930469
0.00999723
0.0107621
0.011529
0.0122973
0.0130665
0.0138354
0.014603
0.0153674
0.0161269
0.0168794
0.0176224
0.0183534
0.0190695
0.019768
0.0204456
0.0210992
0.0217256
0.0223214
0.022883
0.0234056
4.87978e-05
0.000192812
0.000349143
0.000513888
0.000687436
0.00087021
0.00106264
0.00126517
0.00147829
0.00170251
0.00193837
0.00218644
0.00244733
0.00272169
0.00301022
0.00331367
0.00363285
0.00396865
0.00432202
0.00469399
0.0050857
0.00549839
0.0059334
0.00639216
0.00687623
0.00738726
0.00792698
0.00849719
0.00909974
0.00973633
0.0104651
0.0112706
0.0120787
0.0128888
0.0137002
0.0145118
0.0153222
0.0161295
0.0169318
0.0177268
0.0185119
0.0192844
0.0200413
0.0207797
0.0214963
0.0221878
0.0228508
0.023482
0.0240777
0.0246324
4.9008e-05
0.000199283
0.000362051
0.000533581
0.000714285
0.000904586
0.00110493
0.0013158
0.00153769
0.00177116
0.00201676
0.00227512
0.00254687
0.00283271
0.00313339
0.00344972
0.00378255
0.00413284
0.00450161
0.00488996
0.00529912
0.0057304
0.00618526
0.00666525
0.00717201
0.00770733
0.00827306
0.00887113
0.00950351
0.010172
0.0109377
0.0117844
0.0126344
0.013487
0.0143413
0.0151962
0.0160499
0.0169006
0.0177461
0.0185839
0.0194113
0.0202255
0.0210235
0.021802
0.0225578
0.0232876
0.0239878
0.024655
0.0252854
0.0258732
4.89623e-05
0.000205561
0.000374782
0.000553105
0.000740969
0.000938797
0.00114705
0.00136625
0.00159691
0.00183962
0.00209497
0.00236362
0.00264625
0.0029436
0.00325647
0.00358571
0.00393227
0.00429714
0.00468142
0.0050863
0.00551309
0.0059632
0.00643817
0.00693967
0.00746948
0.00802948
0.00862166
0.00924806
0.00991076
0.0106117
0.0114148
0.0123035
0.013196
0.0140917
0.0149895
0.015888
0.0167854
0.0176797
0.0185686
0.0194494
0.0203193
0.0211754
0.0220145
0.0228334
0.0236288
0.0243971
0.025135
0.0258389
0.026505
0.0271272
4.86479e-05
0.000211635
0.000387319
0.000572441
0.000767468
0.000972823
0.00118899
0.00141652
0.00165595
0.0019079
0.00217301
0.00245195
0.00274548
0.00305436
0.00337945
0.00372167
0.00408201
0.00446155
0.00486147
0.00528303
0.00572762
0.00619677
0.00669213
0.00721545
0.00776864
0.00835371
0.00897276
0.00962796
0.0103215
0.0110553
0.0118965
0.0128276
0.0137632
0.0147024
0.015644
0.0165864
0.0175278
0.0184659
0.0193982
0.0203221
0.0212345
0.0221324
0.0230128
0.0238722
0.0247073
0.0255148
0.026291
0.0270324
0.0277353
0.0283935
4.80423e-05
0.00021747
0.000399614
0.000591533
0.000793725
0.00100661
0.00123071
0.00146657
0.00171478
0.00197599
0.00225087
0.00254014
0.00284457
0.00316501
0.00350236
0.0038576
0.0042318
0.0046261
0.00504177
0.00548015
0.00594274
0.00643116
0.00694715
0.00749259
0.00806951
0.00868002
0.00932635
0.0100108
0.0107356
0.0115027
0.0123824
0.0133565
0.0143354
0.0153184
0.0163041
0.0172906
0.018276
0.0192578
0.0202335
0.0212002
0.0221551
0.0230948
0.0240164
0.0249165
0.0257918
0.0266389
0.0274544
0.0282345
0.0289757
0.0296717
4.71247e-05
0.000223034
0.000411626
0.000610333
0.000819691
0.00104012
0.00127214
0.00151635
0.00177337
0.00204385
0.00232852
0.00262814
0.00294352
0.00327556
0.00362521
0.00399354
0.00438166
0.00479082
0.00522236
0.00567771
0.00615848
0.00666638
0.00720325
0.0077711
0.00837206
0.00900837
0.00968236
0.0103964
0.0111528
0.0119537
0.0128722
0.0138895
0.0149121
0.015939
0.0169687
0.0179993
0.0190285
0.0200539
0.0210727
0.0220822
0.0230792
0.0240608
0.0250237
0.0259648
0.0268808
0.0277684
0.0286241
0.0294444
0.0302256
0.0309618
4.58849e-05
0.00022832
0.000423346
0.000628832
0.00084535
0.00107331
0.00131327
0.00156584
0.00183167
0.00211145
0.00240593
0.00271592
0.00304229
0.00338597
0.00374799
0.00412947
0.00453161
0.00495574
0.00540327
0.00587575
0.00637487
0.00690245
0.00746045
0.00805099
0.00867629
0.00933871
0.0100407
0.0107847
0.011573
0.0124078
0.0133653
0.0144259
0.0154923
0.0165631
0.0176367
0.0187111
0.0197839
0.0208525
0.0219142
0.022966
0.0240051
0.0250283
0.0260328
0.0270153
0.0279728
0.028902
0.0297995
0.0306619
0.0314853
0.0322643
4.43208e-05
0.000233337
0.000434789
0.000647044
0.000870715
0.0011062
0.00135409
0.00161501
0.00188965
0.00217874
0.00248305
0.00280345
0.00314084
0.00349622
0.00387067
0.00426538
0.00468164
0.00512085
0.00558451
0.00607428
0.00659193
0.0071394
0.00771876
0.00833222
0.00898213
0.00967094
0.0104012
0.0111753
0.0119958
0.0128647
0.0138612
0.0149651
0.016075
0.0171895
0.0183067
0.0194245
0.0205404
0.0216518
0.0227558
0.0238498
0.0249307
0.0259958
0.0270421
0.0280668
0.0290668
0.0300391
0.0309803
0.031887
0.0327553
0.0335802
4.24291e-05
0.000238092
0.000445966
0.000664981
0.000895794
0.0011388
0.0013946
0.00166387
0.00194731
0.0022457
0.00255986
0.00289068
0.00323913
0.00360626
0.00399322
0.00440126
0.00483173
0.00528614
0.00576607
0.00627328
0.00680964
0.00737719
0.00797812
0.00861474
0.00928949
0.0100049
0.0107636
0.0115681
0.0124207
0.0133236
0.0143591
0.015506
0.0166591
0.0178168
0.0189772
0.0201378
0.0212963
0.0224498
0.0235959
0.0247316
0.0258544
0.0269615
0.0280503
0.029118
0.030162
0.0311793
0.0321666
0.0331204
0.0340366
0.0349108
4.01943e-05
0.000242563
0.000456855
0.000682622
0.000920568
0.00117108
0.00143478
0.00171238
0.00200463
0.00231232
0.00263634
0.00297761
0.00333716
0.00371609
0.00411562
0.00453706
0.00498187
0.00545159
0.00594793
0.00647272
0.00702796
0.00761578
0.00823847
0.00889844
0.00959823
0.0103404
0.0111277
0.0119625
0.0128473
0.013784
0.0148581
0.0160476
0.0172434
0.0184437
0.0196465
0.0208492
0.0220495
0.0232447
0.0244323
0.0256096
0.0267743
0.0279239
0.0290561
0.0301684
0.0312582
0.0323228
0.0333589
0.034363
0.0353307
0.0362578
3.75906e-05
0.000246703
0.000467406
0.000699917
0.000944987
0.00120299
0.00147459
0.00176051
0.00206156
0.00237857
0.00271245
0.00306421
0.00343489
0.00382568
0.00423785
0.00467278
0.00513201
0.00561716
0.00613004
0.00667256
0.00724683
0.00785507
0.00849969
0.00918317
0.00990812
0.0106772
0.011493
0.0123581
0.0132748
0.014245
0.0153572
0.0165886
0.0178263
0.0190684
0.0203127
0.0215568
0.0227982
0.0240345
0.0252632
0.0264821
0.027689
0.0288819
0.0300588
0.0312174
0.0323554
0.0334701
0.0345583
0.0356161
0.0366391
0.037623
3.45938e-05
0.000250458
0.000477558
0.0007168
0.000968983
0.00123447
0.00151395
0.00180821
0.00211806
0.0024444
0.00278817
0.00315043
0.0035323
0.003935
0.00435987
0.00480838
0.00528212
0.00578282
0.00631234
0.00687273
0.00746615
0.00809496
0.00876162
0.00946871
0.0102189
0.0110148
0.0118591
0.0127542
0.0137024
0.0147057
0.0158552
0.0171276
0.0184063
0.0196893
0.0209742
0.0222587
0.0235405
0.0248172
0.0260868
0.0273475
0.0285973
0.0298347
0.0310579
0.0322651
0.033454
0.034622
0.0357657
0.0368811
0.0379635
0.0390082
3.11701e-05
0.000253768
0.000487243
0.000733201
0.000992481
0.00126544
0.00155281
0.00185539
0.00217406
0.00250974
0.00286343
0.00323624
0.00362933
0.004044
0.00448164
0.00494381
0.00543215
0.00594848
0.00649477
0.00707312
0.00768582
0.00833529
0.00902407
0.0097548
0.0105302
0.0113528
0.0122253
0.01315
0.0141293
0.0151648
0.0163508
0.0176633
0.0189818
0.0203045
0.0216289
0.0229529
0.0242743
0.0255912
0.0269017
0.0282046
0.0294983
0.0307817
0.0320534
0.0333117
0.0345546
0.0357794
0.0369825
0.0381596
0.0393054
0.0404149
2.72417e-05
0.000256511
0.000496349
0.000749014
0.00101538
0.00129581
0.00159106
0.00190199
0.00222948
0.00257453
0.00293817
0.00332155
0.00372592
0.00415261
0.0046031
0.00507899
0.00558202
0.00611408
0.00667721
0.00727362
0.00790567
0.00857585
0.00928677
0.0100411
0.0108415
0.0116906
0.0125909
0.0135448
0.0145543
0.0156214
0.0168428
0.0181939
0.0195511
0.0209122
0.0222751
0.0236377
0.0249981
0.0263548
0.0277066
0.0290524
0.0303914
0.0317227
0.0330453
0.0343578
0.0356581
0.0369433
0.0382097
0.0394526
0.0406659
0.0418441
2.26754e-05
0.000258487
0.000504708
0.000764095
0.00103756
0.00132547
0.00162862
0.0019479
0.00228425
0.00263868
0.00301231
0.00340632
0.00382201
0.00426078
0.00472417
0.00521385
0.00573164
0.00627949
0.00685955
0.00747408
0.00812552
0.00881642
0.00954941
0.0103272
0.0111524
0.0120275
0.0129552
0.0139375
0.0149765
0.016074
0.0173295
0.018718
0.0201124
0.0215107
0.0229109
0.0243112
0.0257102
0.0271068
0.0285003
0.0298903
0.0312762
0.0326578
0.0340342
0.035404
0.0367652
0.0381147
0.0394483
0.0407608
0.0420456
0.043296
1.73142e-05
0.000259463
0.000512122
0.000778284
0.00105888
0.0013543
0.00166538
0.00199304
0.00233827
0.00270214
0.00308579
0.00349046
0.00391752
0.00436842
0.00484476
0.00534829
0.00588089
0.0064446
0.00704162
0.0076743
0.00834511
0.00905666
0.00981159
0.0106126
0.0114622
0.0123629
0.0133172
0.0143271
0.0153945
0.0165212
0.0178096
0.0192339
0.020664
0.0220982
0.0235347
0.024972
0.0264093
0.0278461
0.0292823
0.0307178
0.0321529
0.0335873
0.0350204
0.036451
0.0378767
0.0392941
0.0406986
0.0420842
0.0434441
0.0447701
1.10204e-05
0.000259242
0.000518429
0.000791442
0.00107922
0.0013822
0.00170125
0.00203734
0.0023915
0.00276483
0.00315854
0.00357392
0.00401238
0.00447545
0.00496479
0.00548221
0.00602966
0.00660925
0.00722324
0.00787404
0.00856416
0.00929622
0.0100728
0.0108966
0.0117702
0.0126959
0.0136759
0.0147124
0.0158072
0.0169618
0.0182814
0.0197399
0.0212043
0.022673
0.0241448
0.0256187
0.0270944
0.028572
0.030052
0.031535
0.0330214
0.0345115
0.0360045
0.0374991
0.0389927
0.0404814
0.0419601
0.0434222
0.0448602
0.0462646
3.69545e-06
0.000257712
0.000523528
0.000803481
0.0010985
0.0014091
0.00173618
0.00208075
0.00244388
0.00282673
0.00323054
0.00365666
0.00410655
0.00458182
0.00508417
0.00561549
0.0061778
0.00677325
0.00740418
0.00807301
0.0087823
0.00953462
0.0103326
0.0111788
0.0120756
0.0130254
0.0140303
0.0150923
0.016213
0.0173942
0.0187434
0.0202343
0.0217315
0.0232337
0.02474
0.0262502
0.0277646
0.0292839
0.0308093
0.0323418
0.0338821
0.0354306
0.0369866
0.0385484
0.040113
0.041676
0.0432317
0.044773
0.0462918
0.0477773
-4.71925e-06
0.000254841
0.00052739
0.000814374
0.00111671
0.00143498
0.00177015
0.00212325
0.0024954
0.0028878
0.00330173
0.00373862
0.00419997
0.00468744
0.00520282
0.00574803
0.00632516
0.00693642
0.00758418
0.00827089
0.0089991
0.00977137
0.0105902
0.0114582
0.0123776
0.0133506
0.0143792
0.0154653
0.0166106
0.0178168
0.019194
0.0207158
0.0222443
0.0237789
0.0253192
0.0268656
0.0284193
0.0299816
0.031554
0.0331382
0.034735
0.0363447
0.0379665
0.0395982
0.0412365
0.0428763
0.0445114
0.0461341
0.0477359
0.0493049
-1.42424e-05
0.000250678
0.000530056
0.000824153
0.00113386
0.00145987
0.00180318
0.00216485
0.00254606
0.00294803
0.00337212
0.00381978
0.00429259
0.00479226
0.00532062
0.00587968
0.00647156
0.00709853
0.00776295
0.0084673
0.00921409
0.0100058
0.010845
0.011734
0.0126751
0.0136702
0.0147214
0.0158303
0.0169986
0.0182283
0.0196318
0.0211828
0.0227414
0.0243074
0.0258814
0.0274644
0.0290582
0.0306647
0.0322862
0.0339242
0.0355799
0.0372534
0.0389434
0.0406475
0.0423616
0.0440801
0.0457962
0.047502
0.0491886
0.0508436
-2.48483e-05
0.00024535
0.000531638
0.000832914
0.00115005
0.00148383
0.00183531
0.0022056
0.00259587
0.00300744
0.00344168
0.00390011
0.00438435
0.00489618
0.00543748
0.0060103
0.00661681
0.00725929
0.00794013
0.00866178
0.00942673
0.0102374
0.0110962
0.0120054
0.012967
0.0139832
0.0150555
0.0161857
0.0173756
0.0186271
0.0200552
0.0216339
0.0232215
0.0248185
0.026426
0.028046
0.0296809
0.0313333
0.0330057
0.0346998
0.0364166
0.0381559
0.0399162
0.0416942
0.0434855
0.045284
0.0470825
0.0488728
0.0506461
0.0523897
-3.6467e-05
0.000239046
0.000532301
0.000840799
0.00116539
0.00150698
0.00186665
0.00224554
0.00264489
0.00306603
0.00351041
0.00397957
0.00447519
0.0049991
0.00555325
0.00613969
0.00676064
0.00741839
0.00811532
0.00885385
0.00963639
0.0104653
0.0113429
0.0122713
0.0132524
0.0142882
0.0153802
0.0165302
0.01774
0.0190118
0.020463
0.0220681
0.0236838
0.0253112
0.0269524
0.0286101
0.0302874
0.0319872
0.0337122
0.0354642
0.0372439
0.0390508
0.0408826
0.0427358
0.0446052
0.0464844
0.0483662
0.0502424
0.0521041
0.0539394
-4.89946e-05
0.000231993
0.000532248
0.000847983
0.00118004
0.00152944
0.00189729
0.00228478
0.00269317
0.00312385
0.0035783
0.00405812
0.00456505
0.00510093
0.00566776
0.00626764
0.00690278
0.00757548
0.00828808
0.00904295
0.00984244
0.0106888
0.0115842
0.0125307
0.0135301
0.0145841
0.0156943
0.0168624
0.0180905
0.0193811
0.020854
0.0224843
0.0241273
0.025785
0.0274602
0.0291565
0.0308773
0.032626
0.0344052
0.0362166
0.0380606
0.0399359
0.04184
0.0437687
0.0457166
0.0476771
0.049643
0.0516063
0.0535589
0.0554895
-6.23095e-05
0.000224419
0.000531679
0.000854641
0.00119416
0.00155135
0.00192735
0.00232338
0.00274076
0.00318091
0.00364535
0.00413573
0.00465382
0.00520152
0.00578084
0.0063939
0.0070429
0.00773013
0.00845788
0.00922847
0.0100441
0.010907
0.0118192
0.0127826
0.0137988
0.0148695
0.0159963
0.017181
0.0184257
0.0197338
0.0212271
0.0228816
0.0245515
0.0262395
0.0279493
0.0296849
0.0314503
0.0332491
0.0350837
0.0369556
0.0388645
0.0408087
0.0427851
0.0447892
0.0468154
0.0488575
0.0509084
0.0529609
0.0550072
0.0570376
-7.62885e-05
0.000216526
0.000530769
0.000860927
0.00120788
0.00157281
0.00195691
0.00236143
0.00278771
0.00323722
0.00371152
0.00421232
0.0047414
0.00530071
0.00589225
0.00651816
0.00718063
0.00788188
0.00862418
0.00940974
0.0102407
0.0111192
0.012047
0.0130258
0.0140574
0.0151433
0.016285
0.0174846
0.0187446
0.0200687
0.0215813
0.0232594
0.0249558
0.0266742
0.0284191
0.030195
0.032006
0.0338558
0.0357465
0.0376792
0.039653
0.0416657
0.0437139
0.0457929
0.0478973
0.0500213
0.0521586
0.0543027
0.0564466
0.0585821
-9.08184e-05
0.000208469
0.000529658
0.000866963
0.00122131
0.00159393
0.00198605
0.00239895
0.00283402
0.00329276
0.00377679
0.00428781
0.00482767
0.0053983
0.00600174
0.0066401
0.00731554
0.00803024
0.00878638
0.00958608
0.0104314
0.0113242
0.0122664
0.0132594
0.0143048
0.0154042
0.0165593
0.0177722
0.019046
0.0203851
0.021916
0.023617
0.0253399
0.027089
0.0288695
0.0306862
0.0325435
0.0344447
0.0363917
0.0383849
0.040423
0.0425034
0.0446223
0.0467755
0.0489579
0.0511646
0.0533903
0.0556294
0.0578755
0.0601222
-0.000105801
0.000200354
0.000528438
0.000872831
0.00123451
0.00161475
0.00201479
0.00243597
0.00287969
0.00334751
0.00384106
0.00436208
0.00491244
0.00549407
0.00610901
0.00675934
0.00744718
0.00817464
0.00894382
0.00975675
0.0106153
0.0115214
0.0124764
0.0134821
0.0145398
0.0156511
0.0168178
0.0180426
0.019329
0.020682
0.0222306
0.0239541
0.0257034
0.0274835
0.0292999
0.0311579
0.0330617
0.0350143
0.037017
0.0390698
0.0411709
0.0433175
0.045506
0.0477326
0.0499933
0.052284
0.0546007
0.0569389
0.0592928
0.0616573
-0.000121158
0.000192238
0.000527156
0.00087857
0.00124751
0.00163527
0.00204314
0.00247245
0.00292468
0.00340138
0.00390422
0.00443498
0.00499551
0.00558776
0.00621373
0.00687548
0.00757506
0.00831452
0.00909586
0.00992098
0.0107917
0.0117096
0.0126762
0.013693
0.0147613
0.0158828
0.0170598
0.018295
0.0195927
0.0209589
0.0225245
0.0242703
0.026046
0.0278572
0.0297099
0.0316092
0.0335592
0.0355624
0.0376198
0.0397306
0.0418929
0.0441039
0.0463608
0.0486604
0.0509999
0.0533767
0.0557879
0.05823
0.0606979
0.0631868
-0.000136826
0.000184135
0.00052582
0.000884178
0.0012603
0.00165549
0.00207105
0.00250835
0.00296889
0.00345426
0.00396614
0.00450631
0.00507664
0.00567905
0.00631552
0.00698806
0.00769865
0.00844927
0.0092418
0.010078
0.0109596
0.011888
0.0128647
0.013891
0.0149683
0.0160985
0.0172841
0.0185286
0.0198367
0.0212152
0.0227974
0.0245653
0.0263673
0.0282096
0.0300984
0.0320386
0.0340341
0.0360867
0.0381968
0.0403636
0.0425849
0.0448587
0.0471828
0.0495553
0.0519749
0.0544405
0.0569502
0.0595016
0.0620896
0.0647095
-0.000152761
0.000176026
0.000524405
0.000889625
0.00127284
0.00167534
0.00209845
0.00254357
0.00301222
0.00350601
0.00402662
0.00457585
0.00515554
0.00576761
0.00641398
0.00709661
0.00781742
0.00857827
0.00938093
0.0102271
0.0111182
0.0120557
0.0130409
0.0140751
0.0151599
0.0162973
0.0174902
0.0187427
0.0200603
0.0214506
0.023049
0.0248386
0.0266669
0.0285401
0.0304645
0.0324448
0.0344842
0.0365842
0.0387449
0.0409651
0.0432433
0.0455781
0.0479685
0.0504145
0.0529161
0.0554735
0.0580861
0.0607519
0.0634662
0.066223
-0.000168926
0.000167877
0.000522869
0.000894862
0.00128507
0.00169476
0.00212526
0.002578
0.00305453
0.00355644
0.00408545
0.00464333
0.00523191
0.00585307
0.00650869
0.00720065
0.0079308
0.00870088
0.00951257
0.0103674
0.0112667
0.0122118
0.013204
0.0142446
0.0153352
0.0164784
0.0176774
0.0189369
0.0202632
0.0216648
0.0232789