/*--------------------------------*- C++ -*----------------------------------*\
  =========                 |
  \\      /  F ield         | OpenFOAM: The Open Source CFD Toolbox
   \\    /   O peration     | Website:  https://openfoam.org
    \\  /    A nd           | Version:  9
     \\/     M anipulation  |
\*---------------------------------------------------------------------------*/
FoamFile
{
    format      ascii;
    class       surfaceScalarField;
    location    "0.01";
    object      phi;
}
// * * * * * * * * * * * * * * * * * * * * * * * * * * * * * * * * * * * * * //

dimensions      [0 3 -1 0 0 0 0];

internalField   nonuniform List<scalar> 
9850
(
3.74902e-07
1.55125e-06
3.74904e-07
1.62677e-06
3.74904e-07
1.70599e-06
3.74905e-07
1.78903e-06
3.74906e-07
1.87608e-06
3.74906e-07
1.96732e-06
3.74907e-07
2.06296e-06
3.74907e-07
2.16319e-06
3.74908e-07
2.26825e-06
3.74909e-07
2.37836e-06
3.7491e-07
2.49376e-06
3.74911e-07
2.61469e-06
3.74912e-07
2.74143e-06
3.74913e-07
2.87423e-06
3.74914e-07
3.01339e-06
3.74915e-07
3.1592e-06
3.74917e-07
3.31197e-06
3.74918e-07
3.47203e-06
3.7492e-07
3.63972e-06
3.74922e-07
3.81538e-06
3.74923e-07
3.99938e-06
3.74925e-07
4.19211e-06
3.74927e-07
4.39396e-06
3.74929e-07
4.60536e-06
3.74932e-07
4.82672e-06
3.74934e-07
5.0585e-06
3.74936e-07
5.30118e-06
3.74939e-07
5.55522e-06
3.74942e-07
5.82115e-06
3.74945e-07
6.09948e-06
3.74948e-07
7.4552e-06
3.74951e-07
7.44499e-06
3.74955e-07
7.43483e-06
3.74958e-07
7.42471e-06
3.74961e-07
7.41465e-06
3.74964e-07
7.40466e-06
3.74967e-07
7.39475e-06
3.7497e-07
7.38495e-06
3.74973e-07
7.37528e-06
3.74975e-07
7.36576e-06
3.74977e-07
7.35642e-06
3.74978e-07
7.34729e-06
3.74979e-07
7.3384e-06
3.7498e-07
7.3298e-06
3.7498e-07
7.3215e-06
3.74979e-07
7.31357e-06
3.74978e-07
7.30603e-06
3.74976e-07
7.29894e-06
3.74974e-07
7.29233e-06
7.28625e-06
3.7476e-07
1.55125e-06
3.74766e-07
1.62677e-06
3.7477e-07
1.70599e-06
3.74773e-07
1.78903e-06
3.74775e-07
1.87608e-06
3.74777e-07
1.96732e-06
3.74779e-07
2.06295e-06
3.74781e-07
2.16319e-06
3.74783e-07
2.26825e-06
3.74785e-07
2.37836e-06
3.74788e-07
2.49376e-06
3.7479e-07
2.61469e-06
3.74793e-07
2.74142e-06
3.74796e-07
2.87423e-06
3.748e-07
3.01338e-06
3.74803e-07
3.1592e-06
3.74807e-07
3.31197e-06
3.74812e-07
3.47203e-06
3.74816e-07
3.63971e-06
3.74821e-07
3.81537e-06
3.74826e-07
3.99938e-06
3.74831e-07
4.19211e-06
3.74837e-07
4.39396e-06
3.74843e-07
4.60535e-06
3.74849e-07
4.82671e-06
3.74856e-07
5.0585e-06
3.74863e-07
5.30117e-06
3.74871e-07
5.55521e-06
3.74879e-07
5.82114e-06
3.74888e-07
6.09947e-06
3.74898e-07
7.45519e-06
3.74908e-07
7.44498e-06
3.74919e-07
7.43482e-06
3.74929e-07
7.4247e-06
3.74939e-07
7.41464e-06
3.74949e-07
7.40465e-06
3.74958e-07
7.39474e-06
3.74967e-07
7.38494e-06
3.74976e-07
7.37527e-06
3.74984e-07
7.36575e-06
3.74991e-07
7.35641e-06
3.74997e-07
7.34728e-06
3.75003e-07
7.3384e-06
3.75007e-07
7.32979e-06
3.7501e-07
7.3215e-06
3.75012e-07
7.31357e-06
3.75012e-07
7.30603e-06
3.75011e-07
7.29894e-06
3.75008e-07
7.29233e-06
7.28626e-06
3.74539e-07
1.55124e-06
3.74548e-07
1.62676e-06
3.74555e-07
1.70598e-06
3.7456e-07
1.78902e-06
3.74564e-07
1.87607e-06
3.74568e-07
1.96731e-06
3.74572e-07
2.06295e-06
3.74575e-07
2.16319e-06
3.74578e-07
2.26825e-06
3.74582e-07
2.37836e-06
3.74586e-07
2.49375e-06
3.7459e-07
2.61469e-06
3.74595e-07
2.74142e-06
3.74599e-07
2.87422e-06
3.74605e-07
3.01338e-06
3.7461e-07
3.15919e-06
3.74617e-07
3.31196e-06
3.74623e-07
3.47202e-06
3.7463e-07
3.63971e-06
3.74638e-07
3.81537e-06
3.74646e-07
3.99937e-06
3.74654e-07
4.1921e-06
3.74663e-07
4.39395e-06
3.74673e-07
4.60534e-06
3.74683e-07
4.8267e-06
3.74694e-07
5.05849e-06
3.74706e-07
5.30116e-06
3.74718e-07
5.5552e-06
3.74731e-07
5.82113e-06
3.74744e-07
6.09946e-06
3.74762e-07
7.45518e-06
3.7478e-07
7.44496e-06
3.74797e-07
7.4348e-06
3.74814e-07
7.42468e-06
3.74831e-07
7.41462e-06
3.74848e-07
7.40463e-06
3.74865e-07
7.39473e-06
3.74881e-07
7.38493e-06
3.74897e-07
7.37525e-06
3.74912e-07
7.36573e-06
3.74926e-07
7.3564e-06
3.74939e-07
7.34727e-06
3.74951e-07
7.33839e-06
3.74962e-07
7.32978e-06
3.74971e-07
7.32149e-06
3.74978e-07
7.31356e-06
3.74984e-07
7.30603e-06
3.74988e-07
7.29893e-06
3.74989e-07
7.29233e-06
7.28626e-06
3.74251e-07
1.55124e-06
3.7426e-07
1.62675e-06
3.74268e-07
1.70597e-06
3.74275e-07
1.78902e-06
3.74281e-07
1.87607e-06
3.74286e-07
1.96731e-06
3.7429e-07
2.06295e-06
3.74295e-07
2.16318e-06
3.743e-07
2.26824e-06
3.74305e-07
2.37835e-06
3.7431e-07
2.49375e-06
3.74315e-07
2.61468e-06
3.74321e-07
2.74141e-06
3.74328e-07
2.87421e-06
3.74335e-07
3.01337e-06
3.74342e-07
3.15918e-06
3.74351e-07
3.31196e-06
3.74359e-07
3.47202e-06
3.74369e-07
3.6397e-06
3.74378e-07
3.81536e-06
3.74389e-07
3.99936e-06
3.744e-07
4.19209e-06
3.74413e-07
4.39394e-06
3.74426e-07
4.60533e-06
3.74439e-07
4.82669e-06
3.74454e-07
5.05847e-06
3.7447e-07
5.30114e-06
3.74486e-07
5.55519e-06
3.74504e-07
5.82111e-06
3.74522e-07
6.09944e-06
3.74547e-07
7.45515e-06
3.74571e-07
7.44494e-06
3.74595e-07
7.43477e-06
3.7462e-07
7.42466e-06
3.74644e-07
7.4146e-06
3.74668e-07
7.40461e-06
3.74693e-07
7.3947e-06
3.74717e-07
7.3849e-06
3.7474e-07
7.37523e-06
3.74763e-07
7.36571e-06
3.74786e-07
7.35637e-06
3.74808e-07
7.34725e-06
3.74828e-07
7.33837e-06
3.74847e-07
7.32976e-06
3.74865e-07
7.32147e-06
3.74881e-07
7.31354e-06
3.74896e-07
7.30601e-06
3.74909e-07
7.29892e-06
3.74919e-07
7.29232e-06
7.28625e-06
3.73885e-07
1.55123e-06
3.73893e-07
1.62674e-06
3.73902e-07
1.70596e-06
3.7391e-07
1.78901e-06
3.73918e-07
1.87606e-06
3.73924e-07
1.9673e-06
3.7393e-07
2.06294e-06
3.73936e-07
2.16318e-06
3.73941e-07
2.26824e-06
3.73947e-07
2.37834e-06
3.73954e-07
2.49374e-06
3.73961e-07
2.61467e-06
3.73968e-07
2.7414e-06
3.73976e-07
2.87421e-06
3.73985e-07
3.01336e-06
3.73994e-07
3.15917e-06
3.74004e-07
3.31195e-06
3.74015e-07
3.472e-06
3.74026e-07
3.63969e-06
3.74038e-07
3.81535e-06
3.74051e-07
3.99935e-06
3.74065e-07
4.19207e-06
3.7408e-07
4.39392e-06
3.74096e-07
4.60531e-06
3.74113e-07
4.82667e-06
3.74131e-07
5.05845e-06
3.74151e-07
5.30112e-06
3.74171e-07
5.55516e-06
3.74194e-07
5.82109e-06
3.74217e-07
6.09941e-06
3.74248e-07
7.45512e-06
3.74279e-07
7.44491e-06
3.7431e-07
7.43474e-06
3.74341e-07
7.42463e-06
3.74373e-07
7.41457e-06
3.74405e-07
7.40457e-06
3.74437e-07
7.39467e-06
3.7447e-07
7.38487e-06
3.74503e-07
7.3752e-06
3.74535e-07
7.36568e-06
3.74567e-07
7.35634e-06
3.74599e-07
7.34722e-06
3.7463e-07
7.33833e-06
3.74661e-07
7.32973e-06
3.7469e-07
7.32145e-06
3.74719e-07
7.31352e-06
3.74746e-07
7.30599e-06
3.74771e-07
7.2989e-06
3.74796e-07
7.29229e-06
7.28623e-06
3.73437e-07
1.55123e-06
3.73445e-07
1.62673e-06
3.73454e-07
1.70595e-06
3.73463e-07
1.789e-06
3.73472e-07
1.87605e-06
3.73479e-07
1.9673e-06
3.73486e-07
2.06293e-06
3.73492e-07
2.16317e-06
3.73499e-07
2.26823e-06
3.73506e-07
2.37834e-06
3.73514e-07
2.49373e-06
3.73522e-07
2.61467e-06
3.73531e-07
2.7414e-06
3.7354e-07
2.8742e-06
3.7355e-07
3.01335e-06
3.73561e-07
3.15916e-06
3.73573e-07
3.31193e-06
3.73585e-07
3.47199e-06
3.73599e-07
3.63967e-06
3.73613e-07
3.81533e-06
3.73628e-07
3.99933e-06
3.73644e-07
4.19206e-06
3.73662e-07
4.39391e-06
3.73681e-07
4.60529e-06
3.73701e-07
4.82665e-06
3.73722e-07
5.05843e-06
3.73745e-07
5.3011e-06
3.73769e-07
5.55514e-06
3.73796e-07
5.82106e-06
3.73824e-07
6.09939e-06
3.73861e-07
7.45509e-06
3.73898e-07
7.44487e-06
3.73936e-07
7.43471e-06
3.73974e-07
7.42459e-06
3.74014e-07
7.41453e-06
3.74054e-07
7.40453e-06
3.74095e-07
7.39463e-06
3.74137e-07
7.38483e-06
3.7418e-07
7.37515e-06
3.74223e-07
7.36564e-06
3.74267e-07
7.3563e-06
3.74311e-07
7.34717e-06
3.74355e-07
7.33829e-06
3.74399e-07
7.32969e-06
3.74443e-07
7.3214e-06
3.74487e-07
7.31347e-06
3.7453e-07
7.30594e-06
3.74573e-07
7.29885e-06
3.74616e-07
7.29225e-06
7.28619e-06
3.7291e-07
1.55122e-06
3.72917e-07
1.62673e-06
3.72926e-07
1.70594e-06
3.72935e-07
1.78899e-06
3.72944e-07
1.87604e-06
3.72952e-07
1.96729e-06
3.72959e-07
2.06293e-06
3.72966e-07
2.16316e-06
3.72974e-07
2.26822e-06
3.72982e-07
2.37833e-06
3.7299e-07
2.49372e-06
3.73e-07
2.61466e-06
3.73009e-07
2.74139e-06
3.7302e-07
2.87419e-06
3.73031e-07
3.01334e-06
3.73043e-07
3.15915e-06
3.73056e-07
3.31192e-06
3.7307e-07
3.47198e-06
3.73085e-07
3.63966e-06
3.73101e-07
3.81531e-06
3.73119e-07
3.99931e-06
3.73137e-07
4.19204e-06
3.73157e-07
4.39389e-06
3.73178e-07
4.60527e-06
3.73201e-07
4.82663e-06
3.73225e-07
5.05841e-06
3.73251e-07
5.30107e-06
3.73279e-07
5.55511e-06
3.7331e-07
5.82103e-06
3.73343e-07
6.09935e-06
3.73385e-07
7.45504e-06
3.73428e-07
7.44483e-06
3.73473e-07
7.43466e-06
3.73519e-07
7.42454e-06
3.73566e-07
7.41448e-06
3.73615e-07
7.40448e-06
3.73666e-07
7.39458e-06
3.73718e-07
7.38477e-06
3.73772e-07
7.3751e-06
3.73827e-07
7.36558e-06
3.73884e-07
7.35624e-06
3.73942e-07
7.34711e-06
3.74001e-07
7.33823e-06
3.74062e-07
7.32963e-06
3.74123e-07
7.32134e-06
3.74186e-07
7.31341e-06
3.74249e-07
7.30588e-06
3.74314e-07
7.29879e-06
3.7438e-07
7.29219e-06
7.28612e-06
3.72304e-07
1.55122e-06
3.7231e-07
1.62672e-06
3.72318e-07
1.70594e-06
3.72327e-07
1.78898e-06
3.72335e-07
1.87603e-06
3.72343e-07
1.96728e-06
3.72351e-07
2.06292e-06
3.72359e-07
2.16316e-06
3.72367e-07
2.26821e-06
3.72376e-07
2.37832e-06
3.72385e-07
2.49372e-06
3.72395e-07
2.61465e-06
3.72405e-07
2.74138e-06
3.72417e-07
2.87418e-06
3.72429e-07
3.01333e-06
3.72442e-07
3.15914e-06
3.72457e-07
3.31191e-06
3.72472e-07
3.47196e-06
3.72488e-07
3.63964e-06
3.72506e-07
3.8153e-06
3.72525e-07
3.99929e-06
3.72545e-07
4.19202e-06
3.72567e-07
4.39386e-06
3.7259e-07
4.60525e-06
3.72616e-07
4.8266e-06
3.72643e-07
5.05838e-06
3.72672e-07
5.30104e-06
3.72703e-07
5.55508e-06
3.72737e-07
5.821e-06
3.72774e-07
6.09932e-06
3.72822e-07
7.455e-06
3.72872e-07
7.44478e-06
3.72924e-07
7.43461e-06
3.72977e-07
7.42449e-06
3.73033e-07
7.41442e-06
3.73091e-07
7.40443e-06
3.73151e-07
7.39452e-06
3.73214e-07
7.38471e-06
3.7328e-07
7.37504e-06
3.73348e-07
7.36551e-06
3.73419e-07
7.35617e-06
3.73493e-07
7.34704e-06
3.7357e-07
7.33815e-06
3.73649e-07
7.32955e-06
3.73731e-07
7.32126e-06
3.73816e-07
7.31332e-06
3.73904e-07
7.30579e-06
3.73994e-07
7.2987e-06
3.74087e-07
7.29209e-06
7.28603e-06
3.71618e-07
1.55122e-06
3.71624e-07
1.62671e-06
3.71631e-07
1.70593e-06
3.71639e-07
1.78897e-06
3.71647e-07
1.87603e-06
3.71656e-07
1.96727e-06
3.71664e-07
2.06291e-06
3.71672e-07
2.16315e-06
3.71681e-07
2.26821e-06
3.7169e-07
2.37831e-06
3.71699e-07
2.49371e-06
3.7171e-07
2.61464e-06
3.71721e-07
2.74136e-06
3.71733e-07
2.87416e-06
3.71746e-07
3.01332e-06
3.71761e-07
3.15912e-06
3.71776e-07
3.31189e-06
3.71792e-07
3.47195e-06
3.7181e-07
3.63962e-06
3.71829e-07
3.81528e-06
3.71849e-07
3.99927e-06
3.71871e-07
4.192e-06
3.71895e-07
4.39384e-06
3.7192e-07
4.60522e-06
3.71947e-07
4.82658e-06
3.71977e-07
5.05835e-06
3.72009e-07
5.30101e-06
3.72043e-07
5.55505e-06
3.72081e-07
5.82096e-06
3.72122e-07
6.09927e-06
3.72175e-07
7.45494e-06
3.72231e-07
7.44472e-06
3.72289e-07
7.43455e-06
3.7235e-07
7.42443e-06
3.72414e-07
7.41436e-06
3.72481e-07
7.40436e-06
3.72552e-07
7.39445e-06
3.72627e-07
7.38464e-06
3.72705e-07
7.37496e-06
3.72788e-07
7.36543e-06
3.72875e-07
7.35608e-06
3.72966e-07
7.34695e-06
3.73062e-07
7.33806e-06
3.73163e-07
7.32945e-06
3.73268e-07
7.32115e-06
3.73378e-07
7.31321e-06
3.73494e-07
7.30568e-06
3.73614e-07
7.29858e-06
3.73739e-07
7.29197e-06
7.28589e-06
3.70855e-07
1.55121e-06
3.7086e-07
1.62671e-06
3.70866e-07
1.70592e-06
3.70874e-07
1.78897e-06
3.70881e-07
1.87602e-06
3.7089e-07
1.96726e-06
3.70898e-07
2.0629e-06
3.70907e-07
2.16314e-06
3.70916e-07
2.2682e-06
3.70925e-07
2.3783e-06
3.70935e-07
2.4937e-06
3.70946e-07
2.61463e-06
3.70958e-07
2.74135e-06
3.70971e-07
2.87415e-06
3.70985e-07
3.0133e-06
3.70999e-07
3.15911e-06
3.71015e-07
3.31188e-06
3.71033e-07
3.47193e-06
3.71051e-07
3.63961e-06
3.71071e-07
3.81526e-06
3.71093e-07
3.99925e-06
3.71116e-07
4.19197e-06
3.71141e-07
4.39382e-06
3.71168e-07
4.6052e-06
3.71197e-07
4.82655e-06
3.71229e-07
5.05832e-06
3.71263e-07
5.30098e-06
3.713e-07
5.55501e-06
3.71341e-07
5.82092e-06
3.71386e-07
6.09923e-06
3.71444e-07
7.45488e-06
3.71505e-07
7.44466e-06
3.7157e-07
7.43449e-06
3.71638e-07
7.42436e-06
3.71711e-07
7.41429e-06
3.71788e-07
7.40428e-06
3.71869e-07
7.39436e-06
3.71956e-07
7.38455e-06
3.72049e-07
7.37486e-06
3.72147e-07
7.36533e-06
3.72251e-07
7.35598e-06
3.72362e-07
7.34684e-06
3.72479e-07
7.33794e-06
3.72603e-07
7.32932e-06
3.72735e-07
7.32102e-06
3.72873e-07
7.31308e-06
3.73019e-07
7.30553e-06
3.73173e-07
7.29842e-06
3.73335e-07
7.29181e-06
7.28572e-06
3.70013e-07
1.55121e-06
3.70018e-07
1.6267e-06
3.70024e-07
1.70592e-06
3.70031e-07
1.78896e-06
3.70039e-07
1.87601e-06
3.70047e-07
1.96726e-06
3.70055e-07
2.06289e-06
3.70064e-07
2.16313e-06
3.70074e-07
2.26819e-06
3.70084e-07
2.37829e-06
3.70094e-07
2.49368e-06
3.70106e-07
2.61461e-06
3.70118e-07
2.74134e-06
3.70131e-07
2.87414e-06
3.70145e-07
3.01329e-06
3.7016e-07
3.15909e-06
3.70177e-07
3.31186e-06
3.70195e-07
3.47191e-06
3.70214e-07
3.63959e-06
3.70235e-07
3.81524e-06
3.70258e-07
3.99923e-06
3.70282e-07
4.19195e-06
3.70308e-07
4.39379e-06
3.70337e-07
4.60517e-06
3.70367e-07
4.82652e-06
3.70401e-07
5.05828e-06
3.70437e-07
5.30094e-06
3.70476e-07
5.55497e-06
3.7052e-07
5.82087e-06
3.70568e-07
6.09918e-06
3.70631e-07
7.45482e-06
3.70698e-07
7.44459e-06
3.70769e-07
7.43441e-06
3.70844e-07
7.42428e-06
3.70925e-07
7.41421e-06
3.71012e-07
7.4042e-06
3.71105e-07
7.39427e-06
3.71204e-07
7.38445e-06
3.71311e-07
7.37476e-06
3.71426e-07
7.36522e-06
3.71549e-07
7.35586e-06
3.7168e-07
7.34671e-06
3.71821e-07
7.3378e-06
3.7197e-07
7.32917e-06
3.7213e-07
7.32086e-06
3.723e-07
7.31291e-06
3.72481e-07
7.30535e-06
3.72672e-07
7.29823e-06
3.72875e-07
7.2916e-06
7.28551e-06
3.69095e-07
1.55121e-06
3.69099e-07
1.6267e-06
3.69105e-07
1.70591e-06
3.69112e-07
1.78895e-06
3.6912e-07
1.876e-06
3.69128e-07
1.96725e-06
3.69137e-07
2.06288e-06
3.69146e-07
2.16312e-06
3.69156e-07
2.26818e-06
3.69166e-07
2.37828e-06
3.69177e-07
2.49367e-06
3.69189e-07
2.6146e-06
3.69201e-07
2.74133e-06
3.69215e-07
2.87412e-06
3.69229e-07
3.01327e-06
3.69245e-07
3.15908e-06
3.69262e-07
3.31184e-06
3.69281e-07
3.47189e-06
3.693e-07
3.63957e-06
3.69322e-07
3.81522e-06
3.69345e-07
3.99921e-06
3.6937e-07
4.19192e-06
3.69397e-07
4.39376e-06
3.69427e-07
4.60514e-06
3.69458e-07
4.82648e-06
3.69493e-07
5.05825e-06
3.69531e-07
5.3009e-06
3.69572e-07
5.55493e-06
3.69618e-07
5.82083e-06
3.69669e-07
6.09913e-06
3.69736e-07
7.45475e-06
3.69808e-07
7.44452e-06
3.69885e-07
7.43434e-06
3.69968e-07
7.4242e-06
3.70057e-07
7.41412e-06
3.70154e-07
7.4041e-06
3.70258e-07
7.39417e-06
3.70371e-07
7.38434e-06
3.70493e-07
7.37464e-06
3.70625e-07
7.36509e-06
3.70767e-07
7.35571e-06
3.70921e-07
7.34655e-06
3.71087e-07
7.33764e-06
3.71264e-07
7.32899e-06
3.71455e-07
7.32067e-06
3.71659e-07
7.3127e-06
3.71878e-07
7.30513e-06
3.7211e-07
7.298e-06
3.72358e-07
7.29136e-06
7.28525e-06
3.68102e-07
1.55121e-06
3.68107e-07
1.6267e-06
3.68112e-07
1.7059e-06
3.68119e-07
1.78894e-06
3.68127e-07
1.87599e-06
3.68136e-07
1.96724e-06
3.68145e-07
2.06288e-06
3.68154e-07
2.16311e-06
3.68164e-07
2.26817e-06
3.68175e-07
2.37827e-06
3.68186e-07
2.49366e-06
3.68198e-07
2.61459e-06
3.6821e-07
2.74132e-06
3.68224e-07
2.87411e-06
3.68239e-07
3.01326e-06
3.68255e-07
3.15906e-06
3.68272e-07
3.31182e-06
3.68291e-07
3.47187e-06
3.68311e-07
3.63955e-06
3.68333e-07
3.81519e-06
3.68356e-07
3.99918e-06
3.68382e-07
4.1919e-06
3.6841e-07
4.39373e-06
3.6844e-07
4.60511e-06
3.68472e-07
4.82645e-06
3.68508e-07
5.05821e-06
3.68547e-07
5.30086e-06
3.6859e-07
5.55488e-06
3.68638e-07
5.82078e-06
3.68691e-07
6.09908e-06
3.68762e-07
7.45468e-06
3.68839e-07
7.44444e-06
3.68921e-07
7.43426e-06
3.69011e-07
7.42411e-06
3.69108e-07
7.41402e-06
3.69215e-07
7.40399e-06
3.6933e-07
7.39405e-06
3.69457e-07
7.38421e-06
3.69595e-07
7.3745e-06
3.69745e-07
7.36494e-06
3.69908e-07
7.35555e-06
3.70085e-07
7.34638e-06
3.70277e-07
7.33744e-06
3.70485e-07
7.32879e-06
3.70709e-07
7.32045e-06
3.7095e-07
7.31246e-06
3.71209e-07
7.30487e-06
3.71487e-07
7.29772e-06
3.71783e-07
7.29106e-06
7.28493e-06
3.67036e-07
1.55121e-06
3.6704e-07
1.62669e-06
3.67046e-07
1.7059e-06
3.67053e-07
1.78894e-06
3.67061e-07
1.87599e-06
3.6707e-07
1.96723e-06
3.67079e-07
2.06287e-06
3.67089e-07
2.1631e-06
3.67099e-07
2.26816e-06
3.6711e-07
2.37826e-06
3.67121e-07
2.49365e-06
3.67133e-07
2.61458e-06
3.67146e-07
2.7413e-06
3.6716e-07
2.8741e-06
3.67175e-07
3.01324e-06
3.67191e-07
3.15905e-06
3.67208e-07
3.31181e-06
3.67227e-07
3.47186e-06
3.67247e-07
3.63953e-06
3.67269e-07
3.81517e-06
3.67293e-07
3.99916e-06
3.67319e-07
4.19187e-06
3.67346e-07
4.39371e-06
3.67377e-07
4.60508e-06
3.6741e-07
4.82642e-06
3.67446e-07
5.05818e-06
3.67486e-07
5.30082e-06
3.6753e-07
5.55484e-06
3.67579e-07
5.82073e-06
3.67635e-07
6.09902e-06
3.67709e-07
7.45461e-06
3.67789e-07
7.44436e-06
3.67877e-07
7.43417e-06
3.67973e-07
7.42401e-06
3.68078e-07
7.41391e-06
3.68194e-07
7.40388e-06
3.68322e-07
7.39392e-06
3.68462e-07
7.38407e-06
3.68616e-07
7.37434e-06
3.68785e-07
7.36477e-06
3.68969e-07
7.35537e-06
3.69171e-07
7.34617e-06
3.69391e-07
7.33722e-06
3.69631e-07
7.32855e-06
3.6989e-07
7.32019e-06
3.70171e-07
7.31218e-06
3.70474e-07
7.30457e-06
3.708e-07
7.2974e-06
3.7115e-07
7.29071e-06
7.28456e-06
3.65898e-07
1.5512e-06
3.65902e-07
1.62669e-06
3.65908e-07
1.70589e-06
3.65915e-07
1.78893e-06
3.65923e-07
1.87598e-06
3.65932e-07
1.96722e-06
3.65941e-07
2.06286e-06
3.65951e-07
2.16309e-06
3.65962e-07
2.26815e-06
3.65973e-07
2.37825e-06
3.65984e-07
2.49364e-06
3.65996e-07
2.61457e-06
3.66009e-07
2.74129e-06
3.66023e-07
2.87408e-06
3.66038e-07
3.01323e-06
3.66054e-07
3.15903e-06
3.66071e-07
3.31179e-06
3.6609e-07
3.47184e-06
3.6611e-07
3.63951e-06
3.66132e-07
3.81515e-06
3.66155e-07
3.99914e-06
3.66181e-07
4.19185e-06
3.66209e-07
4.39368e-06
3.66239e-07
4.60505e-06
3.66272e-07
4.82639e-06
3.66308e-07
5.05814e-06
3.66348e-07
5.30078e-06
3.66393e-07
5.55479e-06
3.66443e-07
5.82068e-06
3.665e-07
6.09896e-06
3.66576e-07
7.45453e-06
3.6666e-07
7.44428e-06
3.66753e-07
7.43408e-06
3.66855e-07
7.42391e-06
3.66968e-07
7.4138e-06
3.67093e-07
7.40375e-06
3.67232e-07
7.39378e-06
3.67386e-07
7.38392e-06
3.67556e-07
7.37417e-06
3.67744e-07
7.36458e-06
3.67951e-07
7.35516e-06
3.68179e-07
7.34595e-06
3.68429e-07
7.33697e-06
3.68702e-07
7.32828e-06
3.68999e-07
7.31989e-06
3.69322e-07
7.31186e-06
3.69671e-07
7.30422e-06
3.70049e-07
7.29702e-06
3.70455e-07
7.2903e-06
7.28412e-06
3.64689e-07
1.5512e-06
3.64693e-07
1.62668e-06
3.64698e-07
1.70589e-06
3.64705e-07
1.78892e-06
3.64713e-07
1.87597e-06
3.64722e-07
1.96721e-06
3.64732e-07
2.06285e-06
3.64742e-07
2.16308e-06
3.64753e-07
2.26814e-06
3.64764e-07
2.37824e-06
3.64775e-07
2.49363e-06
3.64787e-07
2.61455e-06
3.648e-07
2.74128e-06
3.64814e-07
2.87407e-06
3.64829e-07
3.01321e-06
3.64845e-07
3.15901e-06
3.64862e-07
3.31177e-06
3.6488e-07
3.47182e-06
3.649e-07
3.63949e-06
3.64921e-07
3.81513e-06
3.64944e-07
3.99911e-06
3.64969e-07
4.19182e-06
3.64996e-07
4.39365e-06
3.65026e-07
4.60502e-06
3.65058e-07
4.82635e-06
3.65094e-07
5.05811e-06
3.65134e-07
5.30074e-06
3.65179e-07
5.55475e-06
3.65229e-07
5.82063e-06
3.65287e-07
6.09891e-06
3.65365e-07
7.45445e-06
3.65452e-07
7.44419e-06
3.65548e-07
7.43398e-06
3.65656e-07
7.42381e-06
3.65776e-07
7.41368e-06
3.6591e-07
7.40362e-06
3.6606e-07
7.39363e-06
3.66228e-07
7.38375e-06
3.66415e-07
7.37399e-06
3.66623e-07
7.36437e-06
3.66853e-07
7.35493e-06
3.67108e-07
7.34569e-06
3.67388e-07
7.33669e-06
3.67696e-07
7.32797e-06
3.68032e-07
7.31955e-06
3.684e-07
7.31149e-06
3.68799e-07
7.30382e-06
3.69231e-07
7.29659e-06
3.69698e-07
7.28984e-06
7.28362e-06
3.63409e-07
1.5512e-06
3.63413e-07
1.62668e-06
3.63419e-07
1.70588e-06
3.63426e-07
1.78892e-06
3.63434e-07
1.87596e-06
3.63443e-07
1.9672e-06
3.63452e-07
2.06284e-06
3.63462e-07
2.16307e-06
3.63473e-07
2.26813e-06
3.63484e-07
2.37823e-06
3.63495e-07
2.49362e-06
3.63507e-07
2.61454e-06
3.6352e-07
2.74126e-06
3.63534e-07
2.87405e-06
3.63548e-07
3.0132e-06
3.63564e-07
3.159e-06
3.6358e-07
3.31176e-06
3.63598e-07
3.4718e-06
3.63617e-07
3.63947e-06
3.63638e-07
3.81511e-06
3.6366e-07
3.99909e-06
3.63684e-07
4.1918e-06
3.6371e-07
4.39363e-06
3.63739e-07
4.60499e-06
3.6377e-07
4.82632e-06
3.63805e-07
5.05807e-06
3.63844e-07
5.3007e-06
3.63888e-07
5.55471e-06
3.63938e-07
5.82058e-06
3.63996e-07
6.09885e-06
3.64075e-07
7.45437e-06
3.64164e-07
7.4441e-06
3.64263e-07
7.43388e-06
3.64375e-07
7.42369e-06
3.64502e-07
7.41355e-06
3.64645e-07
7.40348e-06
3.64806e-07
7.39347e-06
3.64988e-07
7.38357e-06
3.65191e-07
7.37378e-06
3.65419e-07
7.36414e-06
3.65673e-07
7.35467e-06
3.65955e-07
7.34541e-06
3.66267e-07
7.33638e-06
3.66611e-07
7.32762e-06
3.66989e-07
7.31917e-06
3.67403e-07
7.31108e-06
3.67854e-07
7.30337e-06
3.68344e-07
7.2961e-06
3.68875e-07
7.28931e-06
7.28305e-06
3.62061e-07
1.5512e-06
3.62065e-07
1.62668e-06
3.6207e-07
1.70588e-06
3.62077e-07
1.78891e-06
3.62085e-07
1.87595e-06
3.62093e-07
1.9672e-06
3.62102e-07
2.06283e-06
3.62112e-07
2.16306e-06
3.62122e-07
2.26812e-06
3.62133e-07
2.37822e-06
3.62144e-07
2.49361e-06
3.62156e-07
2.61453e-06
3.62169e-07
2.74125e-06
3.62182e-07
2.87404e-06
3.62196e-07
3.01319e-06
3.62211e-07
3.15898e-06
3.62227e-07
3.31174e-06
3.62244e-07
3.47178e-06
3.62262e-07
3.63945e-06
3.62281e-07
3.81509e-06
3.62302e-07
3.99907e-06
3.62325e-07
4.19177e-06
3.6235e-07
4.3936e-06
3.62377e-07
4.60496e-06
3.62407e-07
4.82629e-06
3.62441e-07
5.05804e-06
3.62478e-07
5.30067e-06
3.62521e-07
5.55466e-06
3.6257e-07
5.82053e-06
3.62627e-07
6.09879e-06
3.62706e-07
7.4543e-06
3.62796e-07
7.44402e-06
3.62898e-07
7.43378e-06
3.63014e-07
7.42358e-06
3.63146e-07
7.41342e-06
3.63297e-07
7.40332e-06
3.63469e-07
7.3933e-06
3.63663e-07
7.38337e-06
3.63883e-07
7.37356e-06
3.64131e-07
7.36389e-06
3.64409e-07
7.3544e-06
3.64719e-07
7.3451e-06
3.65064e-07
7.33604e-06
3.65446e-07
7.32724e-06
3.65867e-07
7.31875e-06
3.66329e-07
7.31061e-06
3.66835e-07
7.30286e-06
3.67386e-07
7.29555e-06
3.67984e-07
7.28871e-06
7.2824e-06
3.60645e-07
1.5512e-06
3.60649e-07
1.62667e-06
3.60654e-07
1.70587e-06
3.6066e-07
1.7889e-06
3.60667e-07
1.87595e-06
3.60675e-07
1.96719e-06
3.60684e-07
2.06282e-06
3.60693e-07
2.16305e-06
3.60703e-07
2.26811e-06
3.60713e-07
2.37821e-06
3.60724e-07
2.4936e-06
3.60736e-07
2.61452e-06
3.60747e-07
2.74124e-06
3.6076e-07
2.87403e-06
3.60773e-07
3.01317e-06
3.60787e-07
3.15897e-06
3.60802e-07
3.31173e-06
3.60818e-07
3.47177e-06
3.60835e-07
3.63943e-06
3.60853e-07
3.81507e-06
3.60873e-07
3.99905e-06
3.60894e-07
4.19175e-06
3.60917e-07
4.39358e-06
3.60942e-07
4.60494e-06
3.6097e-07
4.82626e-06
3.61001e-07
5.05801e-06
3.61037e-07
5.30063e-06
3.61077e-07
5.55462e-06
3.61125e-07
5.82048e-06
3.6118e-07
6.09874e-06
3.61258e-07
7.45422e-06
3.61347e-07
7.44393e-06
3.61451e-07
7.43367e-06
3.6157e-07
7.42346e-06
3.61707e-07
7.41328e-06
3.61865e-07
7.40317e-06
3.62047e-07
7.39312e-06
3.62254e-07
7.38317e-06
3.62491e-07
7.37333e-06
3.62758e-07
7.36363e-06
3.6306e-07
7.3541e-06
3.63399e-07
7.34476e-06
3.63777e-07
7.33566e-06
3.64198e-07
7.32682e-06
3.64664e-07
7.31829e-06
3.65177e-07
7.3101e-06
3.65739e-07
7.3023e-06
3.66354e-07
7.29493e-06
3.67022e-07
7.28804e-06
7.28168e-06
3.59161e-07
1.55119e-06
3.59164e-07
1.62667e-06
3.59169e-07
1.70587e-06
3.59175e-07
1.7889e-06
3.59182e-07
1.87594e-06
3.5919e-07
1.96718e-06
3.59198e-07
2.06281e-06
3.59207e-07
2.16304e-06
3.59216e-07
2.2681e-06
3.59225e-07
2.3782e-06
3.59236e-07
2.49359e-06
3.59246e-07
2.61451e-06
3.59257e-07
2.74123e-06
3.59269e-07
2.87402e-06
3.59281e-07
3.01316e-06
3.59294e-07
3.15896e-06
3.59308e-07
3.31171e-06
3.59322e-07
3.47175e-06
3.59338e-07
3.63942e-06
3.59354e-07
3.81505e-06
3.59371e-07
3.99903e-06
3.5939e-07
4.19173e-06
3.59411e-07
4.39356e-06
3.59434e-07
4.60491e-06
3.59459e-07
4.82624e-06
3.59487e-07
5.05798e-06
3.5952e-07
5.3006e-06
3.59558e-07
5.55458e-06
3.59602e-07
5.82044e-06
3.59655e-07
6.09868e-06
3.59731e-07
7.45414e-06
3.59819e-07
7.44384e-06
3.59923e-07
7.43357e-06
3.60044e-07
7.42334e-06
3.60185e-07
7.41314e-06
3.60349e-07
7.403e-06
3.6054e-07
7.39293e-06
3.6076e-07
7.38295e-06
3.61012e-07
7.37307e-06
3.61299e-07
7.36334e-06
3.61625e-07
7.35377e-06
3.61993e-07
7.34439e-06
3.62405e-07
7.33525e-06
3.62865e-07
7.32636e-06
3.63377e-07
7.31778e-06
3.63942e-07
7.30954e-06
3.64564e-07
7.30168e-06
3.65244e-07
7.29425e-06
3.65986e-07
7.2873e-06
7.28087e-06
3.5761e-07
1.55119e-06
3.57613e-07
1.62666e-06
3.57618e-07
1.70586e-06
3.57623e-07
1.78889e-06
3.5763e-07
1.87593e-06
3.57637e-07
1.96717e-06
3.57645e-07
2.0628e-06
3.57653e-07
2.16304e-06
3.57661e-07
2.26809e-06
3.5767e-07
2.37819e-06
3.57679e-07
2.49358e-06
3.57689e-07
2.6145e-06
3.57699e-07
2.74122e-06
3.5771e-07
2.87401e-06
3.57721e-07
3.01315e-06
3.57732e-07
3.15894e-06
3.57745e-07
3.3117e-06
3.57757e-07
3.47174e-06
3.57771e-07
3.6394e-06
3.57785e-07
3.81504e-06
3.578e-07
3.99902e-06
3.57816e-07
4.19172e-06
3.57834e-07
4.39354e-06
3.57853e-07
4.60489e-06
3.57875e-07
4.82622e-06
3.579e-07
5.05795e-06
3.57929e-07
5.30057e-06
3.57963e-07
5.55455e-06
3.58004e-07
5.8204e-06
3.58053e-07
6.09863e-06
3.58125e-07
7.45407e-06
3.58211e-07
7.44375e-06
3.58313e-07
7.43347e-06
3.58435e-07
7.42322e-06
3.58579e-07
7.413e-06
3.58749e-07
7.40283e-06
3.58948e-07
7.39273e-06
3.59179e-07
7.38272e-06
3.59446e-07
7.37281e-06
3.59752e-07
7.36303e-06
3.60102e-07
7.35342e-06
3.60498e-07
7.344e-06
3.60945e-07
7.3348e-06
3.61446e-07
7.32586e-06
3.62004e-07
7.31722e-06
3.62623e-07
7.30892e-06
3.63305e-07
7.301e-06
3.64055e-07
7.2935e-06
3.64874e-07
7.28648e-06
7.27998e-06
3.55993e-07
1.55119e-06
3.55996e-07
1.62666e-06
3.56001e-07
1.70586e-06
3.56006e-07
1.78889e-06
3.56012e-07
1.87593e-06
3.56018e-07
1.96717e-06
3.56025e-07
2.0628e-06
3.56033e-07
2.16303e-06
3.56041e-07
2.26808e-06
3.56049e-07
2.37818e-06
3.56057e-07
2.49357e-06
3.56066e-07
2.61449e-06
3.56075e-07
2.74121e-06
3.56084e-07
2.874e-06
3.56094e-07
3.01314e-06
3.56104e-07
3.15893e-06
3.56114e-07
3.31169e-06
3.56124e-07
3.47173e-06
3.56135e-07
3.63939e-06
3.56147e-07
3.81503e-06
3.56159e-07
3.99901e-06
3.56172e-07
4.1917e-06
3.56186e-07
4.39352e-06
3.56201e-07
4.60488e-06
3.56219e-07
4.8262e-06
3.5624e-07
5.05793e-06
3.56264e-07
5.30054e-06
3.56294e-07
5.55452e-06
3.5633e-07
5.82036e-06
3.56375e-07
6.09859e-06
3.56441e-07
7.454e-06
3.56523e-07
7.44367e-06
3.56623e-07
7.43337e-06
3.56744e-07
7.42309e-06
3.5689e-07
7.41285e-06
3.57063e-07
7.40266e-06
3.57269e-07
7.39253e-06
3.5751e-07
7.38247e-06
3.57792e-07
7.37253e-06
3.58117e-07
7.36271e-06
3.5849e-07
7.35305e-06
3.58915e-07
7.34357e-06
3.59396e-07
7.33432e-06
3.59937e-07
7.32532e-06
3.60543e-07
7.31661e-06
3.61217e-07
7.30824e-06
3.61962e-07
7.30025e-06
3.62783e-07
7.29268e-06
3.63681e-07
7.28558e-06
7.279e-06
3.54311e-07
1.55119e-06
3.54314e-07
1.62666e-06
3.54318e-07
1.70585e-06
3.54323e-07
1.78888e-06
3.54329e-07
1.87592e-06
3.54335e-07
1.96716e-06
3.54341e-07
2.06279e-06
3.54348e-07
2.16302e-06
3.54355e-07
2.26807e-06
3.54363e-07
2.37817e-06
3.5437e-07
2.49356e-06
3.54378e-07
2.61448e-06
3.54385e-07
2.7412e-06
3.54393e-07
2.87399e-06
3.54401e-07
3.01313e-06
3.54408e-07
3.15893e-06
3.54416e-07
3.31168e-06
3.54424e-07
3.47172e-06
3.54432e-07
3.63938e-06
3.54441e-07
3.81502e-06
3.54449e-07
3.999e-06
3.54459e-07
4.1917e-06
3.54468e-07
4.39351e-06
3.5448e-07
4.60487e-06
3.54492e-07
4.82618e-06
3.54508e-07
5.05792e-06
3.54527e-07
5.30053e-06
3.5455e-07
5.5545e-06
3.5458e-07
5.82033e-06
3.54619e-07
6.09855e-06
3.5468e-07
7.45394e-06
3.54756e-07
7.44359e-06
3.54852e-07
7.43327e-06
3.5497e-07
7.42298e-06
3.55116e-07
7.41271e-06
3.55292e-07
7.40248e-06
3.55503e-07
7.39231e-06
3.55754e-07
7.38222e-06
3.56048e-07
7.37223e-06
3.56391e-07
7.36237e-06
3.56786e-07
7.35265e-06
3.5724e-07
7.34312e-06
3.57755e-07
7.3338e-06
3.58338e-07
7.32474e-06
3.58991e-07
7.31596e-06
3.59721e-07
7.30751e-06
3.60531e-07
7.29944e-06
3.61424e-07
7.29179e-06
3.62404e-07
7.2846e-06
7.27793e-06
3.52565e-07
1.55119e-06
3.52568e-07
1.62666e-06
3.52572e-07
1.70585e-06
3.52576e-07
1.78888e-06
3.52582e-07
1.87592e-06
3.52588e-07
1.96715e-06
3.52594e-07
2.06278e-06
3.526e-07
2.16302e-06
3.52606e-07
2.26807e-06
3.52613e-07
2.37817e-06
3.52619e-07
2.49355e-06
3.52625e-07
2.61448e-06
3.52631e-07
2.7412e-06
3.52637e-07
2.87398e-06
3.52643e-07
3.01313e-06
3.52649e-07
3.15892e-06
3.52654e-07
3.31168e-06
3.52659e-07
3.47172e-06
3.52664e-07
3.63938e-06
3.52668e-07
3.81502e-06
3.52673e-07
3.99899e-06
3.52678e-07
4.19169e-06
3.52683e-07
4.39351e-06
3.52689e-07
4.60486e-06
3.52696e-07
4.82618e-06
3.52705e-07
5.05791e-06
3.52717e-07
5.30051e-06
3.52734e-07
5.55448e-06
3.52757e-07
5.82031e-06
3.52788e-07
6.09852e-06
3.5284e-07
7.45389e-06
3.5291e-07
7.44352e-06
3.52999e-07
7.43318e-06
3.53114e-07
7.42286e-06
3.53258e-07
7.41256e-06
3.53435e-07
7.4023e-06
3.5365e-07
7.3921e-06
3.53908e-07
7.38197e-06
3.54214e-07
7.37193e-06
3.54573e-07
7.36201e-06
3.54991e-07
7.35223e-06
3.55471e-07
7.34264e-06
3.56021e-07
7.33325e-06
3.56644e-07
7.32411e-06
3.57346e-07
7.31526e-06
3.58133e-07
7.30673e-06
3.59008e-07
7.29857e-06
3.59975e-07
7.29082e-06
3.6104e-07
7.28354e-06
7.27677e-06
3.50756e-07
1.55118e-06
3.50759e-07
1.62665e-06
3.50763e-07
1.70585e-06
3.50767e-07
1.78887e-06
3.50773e-07
1.87591e-06
3.50778e-07
1.96715e-06
3.50784e-07
2.06278e-06
3.50789e-07
2.16301e-06
3.50795e-07
2.26806e-06
3.508e-07
2.37816e-06
3.50805e-07
2.49355e-06
3.5081e-07
2.61447e-06
3.50815e-07
2.74119e-06
3.50819e-07
2.87398e-06
3.50822e-07
3.01312e-06
3.50825e-07
3.15892e-06
3.50828e-07
3.31167e-06
3.50829e-07
3.47172e-06
3.5083e-07
3.63938e-06
3.50831e-07
3.81502e-06
3.50831e-07
3.99899e-06
3.5083e-07
4.19169e-06
3.5083e-07
4.39351e-06
3.50829e-07
4.60486e-06
3.5083e-07
4.82618e-06
3.50831e-07
5.0579e-06
3.50836e-07
5.30051e-06
3.50844e-07
5.55447e-06
3.50859e-07
5.82029e-06
3.50882e-07
6.09849e-06
3.50924e-07
7.45385e-06
3.50984e-07
7.44346e-06
3.51066e-07
7.4331e-06
3.51175e-07
7.42275e-06
3.51315e-07
7.41242e-06
3.51491e-07
7.40213e-06
3.51708e-07
7.39188e-06
3.51972e-07
7.3817e-06
3.52288e-07
7.37161e-06
3.52662e-07
7.36163e-06
3.531e-07
7.3518e-06
3.53607e-07
7.34213e-06
3.5419e-07
7.33267e-06
3.54854e-07
7.32345e-06
3.55605e-07
7.31451e-06
3.56448e-07
7.30588e-06
3.57389e-07