/*--------------------------------*- C++ -*----------------------------------*\
  =========                 |
  \\      /  F ield         | OpenFOAM: The Open Source CFD Toolbox
   \\    /   O peration     | Website:  https://openfoam.org
    \\  /    A nd           | Version:  9
     \\/     M anipulation  |
\*---------------------------------------------------------------------------*/
FoamFile
{
    format      ascii;
    class       volScalarField;
    location    "0.01";
    object      rAU;
}
// * * * * * * * * * * * * * * * * * * * * * * * * * * * * * * * * * * * * * //

dimensions      [-1 3 1 0 0 0 0];

internalField   nonuniform List<scalar> 
5000
(
1.79308e-05
2.22936e-05
2.26601e-05
2.30057e-05
2.33311e-05
2.36368e-05
2.39238e-05
2.41926e-05
2.44442e-05
2.46794e-05
2.4899e-05
2.5104e-05
2.52953e-05
2.54735e-05
2.56397e-05
2.57946e-05
2.5939e-05
2.60735e-05
2.61991e-05
2.63162e-05
2.64256e-05
2.65279e-05
2.66237e-05
2.67134e-05
2.67976e-05
2.68769e-05
2.69516e-05
2.70221e-05
2.70889e-05
2.71663e-05
2.73287e-05
2.7358e-05
2.73748e-05
2.73916e-05
2.74083e-05
2.74249e-05
2.74414e-05
2.74577e-05
2.74738e-05
2.74897e-05
2.75053e-05
2.75206e-05
2.75355e-05
2.75499e-05
2.75638e-05
2.75772e-05
2.75898e-05
2.76018e-05
2.76129e-05
2.76231e-05
2.21734e-05
2.92499e-05
2.98815e-05
3.04828e-05
3.10537e-05
3.15944e-05
3.21054e-05
3.25874e-05
3.30412e-05
3.34676e-05
3.38678e-05
3.42427e-05
3.45935e-05
3.49215e-05
3.52277e-05
3.55135e-05
3.578e-05
3.60283e-05
3.62597e-05
3.64752e-05
3.66758e-05
3.68627e-05
3.70367e-05
3.71989e-05
3.73501e-05
3.74911e-05
3.76227e-05
3.77456e-05
3.78606e-05
3.79956e-05
3.82951e-05
3.83319e-05
3.83442e-05
3.83566e-05
3.83688e-05
3.8381e-05
3.83931e-05
3.84051e-05
3.84169e-05
3.84285e-05
3.844e-05
3.84511e-05
3.8462e-05
3.84726e-05
3.84827e-05
3.84925e-05
3.85017e-05
3.85104e-05
3.85186e-05
3.8526e-05
2.21742e-05
2.92507e-05
2.98823e-05
3.04835e-05
3.10544e-05
3.15951e-05
3.21061e-05
3.25881e-05
3.30419e-05
3.34683e-05
3.38684e-05
3.42433e-05
3.45941e-05
3.4922e-05
3.52283e-05
3.5514e-05
3.57805e-05
3.60288e-05
3.62601e-05
3.64756e-05
3.66762e-05
3.68631e-05
3.70371e-05
3.71993e-05
3.73504e-05
3.74914e-05
3.7623e-05
3.77459e-05
3.78609e-05
3.79958e-05
3.82953e-05
3.8332e-05
3.83444e-05
3.83567e-05
3.8369e-05
3.83812e-05
3.83932e-05
3.84052e-05
3.8417e-05
3.84286e-05
3.84401e-05
3.84512e-05
3.84621e-05
3.84726e-05
3.84828e-05
3.84925e-05
3.85018e-05
3.85105e-05
3.85186e-05
3.8526e-05
2.21752e-05
2.92517e-05
2.98833e-05
3.04845e-05
3.10553e-05
3.1596e-05
3.2107e-05
3.2589e-05
3.30427e-05
3.34691e-05
3.38692e-05
3.42441e-05
3.45949e-05
3.49228e-05
3.5229e-05
3.55147e-05
3.57812e-05
3.60295e-05
3.62608e-05
3.64762e-05
3.66768e-05
3.68636e-05
3.70376e-05
3.71998e-05
3.73509e-05
3.74918e-05
3.76234e-05
3.77463e-05
3.78613e-05
3.79962e-05
3.82956e-05
3.83323e-05
3.83447e-05
3.8357e-05
3.83693e-05
3.83814e-05
3.83935e-05
3.84054e-05
3.84172e-05
3.84289e-05
3.84403e-05
3.84514e-05
3.84623e-05
3.84728e-05
3.8483e-05
3.84927e-05
3.85019e-05
3.85106e-05
3.85187e-05
3.85261e-05
2.21764e-05
2.92529e-05
2.98845e-05
3.04857e-05
3.10566e-05
3.15972e-05
3.21082e-05
3.25902e-05
3.30439e-05
3.34702e-05
3.38703e-05
3.42451e-05
3.45959e-05
3.49238e-05
3.523e-05
3.55157e-05
3.5782e-05
3.60303e-05
3.62616e-05
3.6477e-05
3.66776e-05
3.68644e-05
3.70383e-05
3.72004e-05
3.73515e-05
3.74924e-05
3.7624e-05
3.77469e-05
3.78618e-05
3.79967e-05
3.82961e-05
3.83327e-05
3.83451e-05
3.83574e-05
3.83696e-05
3.83818e-05
3.83939e-05
3.84058e-05
3.84176e-05
3.84292e-05
3.84406e-05
3.84517e-05
3.84626e-05
3.84731e-05
3.84832e-05
3.84929e-05
3.85021e-05
3.85108e-05
3.85189e-05
3.85263e-05
2.21779e-05
2.92545e-05
2.98861e-05
3.04873e-05
3.1058e-05
3.15987e-05
3.21097e-05
3.25916e-05
3.30452e-05
3.34716e-05
3.38716e-05
3.42464e-05
3.45971e-05
3.4925e-05
3.52311e-05
3.55168e-05
3.57831e-05
3.60314e-05
3.62626e-05
3.6478e-05
3.66785e-05
3.68653e-05
3.70392e-05
3.72013e-05
3.73523e-05
3.74932e-05
3.76247e-05
3.77475e-05
3.78625e-05
3.79973e-05
3.82966e-05
3.83333e-05
3.83456e-05
3.83579e-05
3.83701e-05
3.83823e-05
3.83943e-05
3.84063e-05
3.8418e-05
3.84296e-05
3.8441e-05
3.84522e-05
3.8463e-05
3.84735e-05
3.84836e-05
3.84933e-05
3.85025e-05
3.85111e-05
3.85192e-05
3.85266e-05
2.21797e-05
2.92563e-05
2.98879e-05
3.0489e-05
3.10598e-05
3.16004e-05
3.21114e-05
3.25932e-05
3.30469e-05
3.34732e-05
3.38732e-05
3.42479e-05
3.45986e-05
3.49264e-05
3.52325e-05
3.55181e-05
3.57844e-05
3.60326e-05
3.62638e-05
3.64791e-05
3.66796e-05
3.68663e-05
3.70402e-05
3.72022e-05
3.73533e-05
3.74941e-05
3.76256e-05
3.77484e-05
3.78633e-05
3.79981e-05
3.82972e-05
3.83339e-05
3.83462e-05
3.83585e-05
3.83707e-05
3.83829e-05
3.83949e-05
3.84069e-05
3.84186e-05
3.84302e-05
3.84416e-05
3.84527e-05
3.84635e-05
3.8474e-05
3.84841e-05
3.84937e-05
3.85029e-05
3.85115e-05
3.85195e-05
3.85269e-05
2.21818e-05
2.92583e-05
2.98899e-05
3.04911e-05
3.10618e-05
3.16024e-05
3.21133e-05
3.25952e-05
3.30488e-05
3.3475e-05
3.3875e-05
3.42497e-05
3.46003e-05
3.49281e-05
3.52341e-05
3.55197e-05
3.57859e-05
3.60341e-05
3.62652e-05
3.64805e-05
3.66809e-05
3.68676e-05
3.70414e-05
3.72034e-05
3.73544e-05
3.74952e-05
3.76266e-05
3.77494e-05
3.78642e-05
3.7999e-05
3.8298e-05
3.83346e-05
3.8347e-05
3.83593e-05
3.83715e-05
3.83836e-05
3.83956e-05
3.84076e-05
3.84193e-05
3.84309e-05
3.84422e-05
3.84533e-05
3.84641e-05
3.84746e-05
3.84847e-05
3.84943e-05
3.85034e-05
3.8512e-05
3.852e-05
3.85274e-05
2.21841e-05
2.92606e-05
2.98922e-05
3.04934e-05
3.10641e-05
3.16047e-05
3.21155e-05
3.25973e-05
3.30509e-05
3.34771e-05
3.3877e-05
3.42517e-05
3.46022e-05
3.49299e-05
3.52359e-05
3.55214e-05
3.57876e-05
3.60357e-05
3.62668e-05
3.6482e-05
3.66824e-05
3.6869e-05
3.70428e-05
3.72047e-05
3.73556e-05
3.74964e-05
3.76278e-05
3.77505e-05
3.78653e-05
3.8e-05
3.82988e-05
3.83355e-05
3.83478e-05
3.83601e-05
3.83723e-05
3.83845e-05
3.83965e-05
3.84084e-05
3.84201e-05
3.84317e-05
3.8443e-05
3.84541e-05
3.84649e-05
3.84753e-05
3.84854e-05
3.8495e-05
3.85041e-05
3.85127e-05
3.85206e-05
3.85279e-05
2.21866e-05
2.92632e-05
2.98948e-05
3.04959e-05
3.10666e-05
3.16071e-05
3.2118e-05
3.25997e-05
3.30533e-05
3.34794e-05
3.38793e-05
3.42539e-05
3.46044e-05
3.4932e-05
3.5238e-05
3.55234e-05
3.57895e-05
3.60376e-05
3.62686e-05
3.64837e-05
3.66841e-05
3.68706e-05
3.70443e-05
3.72062e-05
3.73571e-05
3.74977e-05
3.76291e-05
3.77517e-05
3.78665e-05
3.80012e-05
3.82998e-05
3.83365e-05
3.83488e-05
3.83611e-05
3.83733e-05
3.83854e-05
3.83974e-05
3.84093e-05
3.84211e-05
3.84326e-05
3.84439e-05
3.8455e-05
3.84658e-05
3.84762e-05
3.84862e-05
3.84958e-05
3.85049e-05
3.85134e-05
3.85213e-05
3.85286e-05
2.21895e-05
2.9266e-05
2.98976e-05
3.04987e-05
3.10694e-05
3.16099e-05
3.21207e-05
3.26024e-05
3.30558e-05
3.3482e-05
3.38817e-05
3.42563e-05
3.46067e-05
3.49343e-05
3.52402e-05
3.55256e-05
3.57916e-05
3.60396e-05
3.62705e-05
3.64856e-05
3.66859e-05
3.68724e-05
3.7046e-05
3.72078e-05
3.73586e-05
3.74992e-05
3.76305e-05
3.77531e-05
3.78678e-05
3.80025e-05
3.83009e-05
3.83376e-05
3.83499e-05
3.83621e-05
3.83743e-05
3.83865e-05
3.83985e-05
3.84104e-05
3.84221e-05
3.84336e-05
3.8445e-05
3.8456e-05
3.84668e-05
3.84772e-05
3.84872e-05
3.84967e-05
3.85058e-05
3.85143e-05
3.85222e-05
3.85294e-05
2.21926e-05
2.92691e-05
2.99007e-05
3.05018e-05
3.10724e-05
3.16129e-05
3.21236e-05
3.26053e-05
3.30587e-05
3.34847e-05
3.38844e-05
3.42589e-05
3.46093e-05
3.49368e-05
3.52426e-05
3.55279e-05
3.57939e-05
3.60418e-05
3.62727e-05
3.64877e-05
3.66879e-05
3.68743e-05
3.70479e-05
3.72096e-05
3.73603e-05
3.75009e-05
3.76321e-05
3.77546e-05
3.78693e-05
3.80039e-05
3.83021e-05
3.83387e-05
3.83511e-05
3.83633e-05
3.83755e-05
3.83876e-05
3.83997e-05
3.84115e-05
3.84233e-05
3.84348e-05
3.84461e-05
3.84571e-05
3.84679e-05
3.84782e-05
3.84882e-05
3.84978e-05
3.85068e-05
3.85153e-05
3.85231e-05
3.85303e-05
2.21959e-05
2.92724e-05
2.9904e-05
3.05051e-05
3.10757e-05
3.16161e-05
3.21268e-05
3.26084e-05
3.30617e-05
3.34877e-05
3.38873e-05
3.42618e-05
3.46121e-05
3.49395e-05
3.52452e-05
3.55304e-05
3.57964e-05
3.60441e-05
3.6275e-05
3.64899e-05
3.669e-05
3.68763e-05
3.70499e-05
3.72115e-05
3.73622e-05
3.75027e-05
3.76338e-05
3.77563e-05
3.78708e-05
3.80054e-05
3.83033e-05
3.834e-05
3.83523e-05
3.83646e-05
3.83768e-05
3.83889e-05
3.84009e-05
3.84128e-05
3.84245e-05
3.84361e-05
3.84474e-05
3.84584e-05
3.84691e-05
3.84795e-05
3.84894e-05
3.84989e-05
3.85079e-05
3.85164e-05
3.85242e-05
3.85313e-05
2.21995e-05
2.9276e-05
2.99076e-05
3.05086e-05
3.10792e-05
3.16195e-05
3.21302e-05
3.26117e-05
3.3065e-05
3.34909e-05
3.38905e-05
3.42648e-05
3.4615e-05
3.49424e-05
3.5248e-05
3.55332e-05
3.5799e-05
3.60467e-05
3.62774e-05
3.64923e-05
3.66923e-05
3.68785e-05
3.7052e-05
3.72136e-05
3.73641e-05
3.75046e-05
3.76356e-05
3.77581e-05
3.78725e-05
3.8007e-05
3.83047e-05
3.83414e-05
3.83537e-05
3.8366e-05
3.83782e-05
3.83903e-05
3.84023e-05
3.84142e-05
3.84259e-05
3.84375e-05
3.84488e-05
3.84598e-05
3.84705e-05
3.84808e-05
3.84908e-05
3.85003e-05
3.85092e-05
3.85176e-05
3.85254e-05
3.85325e-05
2.22033e-05
2.92798e-05
2.99114e-05
3.05124e-05
3.10829e-05
3.16232e-05
3.21338e-05
3.26153e-05
3.30685e-05
3.34943e-05
3.38938e-05
3.42681e-05
3.46182e-05
3.49455e-05
3.5251e-05
3.55361e-05
3.58018e-05
3.60494e-05
3.628e-05
3.64948e-05
3.66947e-05
3.68809e-05
3.70543e-05
3.72158e-05
3.73663e-05
3.75066e-05
3.76376e-05
3.77599e-05
3.78744e-05
3.80088e-05
3.83062e-05
3.83429e-05
3.83552e-05
3.83675e-05
3.83797e-05
3.83918e-05
3.84039e-05
3.84157e-05
3.84275e-05
3.8439e-05
3.84503e-05
3.84613e-05
3.8472e-05
3.84823e-05
3.84922e-05
3.85017e-05
3.85107e-05
3.8519e-05
3.85268e-05
3.85339e-05
2.22074e-05
2.92839e-05
2.99154e-05
3.05164e-05
3.10869e-05
3.16271e-05
3.21377e-05
3.26191e-05
3.30722e-05
3.3498e-05
3.38974e-05
3.42715e-05
3.46216e-05
3.49487e-05
3.52542e-05
3.55391e-05
3.58048e-05
3.60523e-05
3.62828e-05
3.64975e-05
3.66974e-05
3.68834e-05
3.70567e-05
3.72181e-05
3.73685e-05
3.75088e-05
3.76397e-05
3.7762e-05
3.78763e-05
3.80107e-05
3.83078e-05
3.83445e-05
3.83568e-05
3.83691e-05
3.83813e-05
3.83935e-05
3.84055e-05
3.84174e-05
3.84291e-05
3.84406e-05
3.84519e-05
3.84629e-05
3.84736e-05
3.84839e-05
3.84939e-05
3.85033e-05
3.85122e-05
3.85206e-05
3.85283e-05
3.85353e-05
2.22117e-05
2.92882e-05
2.99197e-05
3.05206e-05
3.10911e-05
3.16313e-05
3.21417e-05
3.26231e-05
3.30761e-05
3.35018e-05
3.39011e-05
3.42752e-05
3.46252e-05
3.49522e-05
3.52576e-05
3.55424e-05
3.5808e-05
3.60554e-05
3.62858e-05
3.65004e-05
3.67001e-05
3.68861e-05
3.70593e-05
3.72206e-05
3.73709e-05
3.75111e-05
3.76419e-05
3.77641e-05
3.78784e-05
3.80127e-05
3.83095e-05
3.83462e-05
3.83585e-05
3.83708e-05
3.83831e-05
3.83952e-05
3.84072e-05
3.84191e-05
3.84309e-05
3.84424e-05
3.84537e-05
3.84647e-05
3.84754e-05
3.84857e-05
3.84956e-05
3.85051e-05
3.8514e-05
3.85223e-05
3.853e-05
3.8537e-05
2.22162e-05
2.92927e-05
2.99241e-05
3.05251e-05
3.10955e-05
3.16357e-05
3.2146e-05
3.26273e-05
3.30803e-05
3.35059e-05
3.39051e-05
3.4279e-05
3.46289e-05
3.49559e-05
3.52611e-05
3.55459e-05
3.58113e-05
3.60586e-05
3.62889e-05
3.65034e-05
3.6703e-05
3.68889e-05
3.7062e-05
3.72232e-05
3.73734e-05
3.75135e-05
3.76443e-05
3.77664e-05
3.78805e-05
3.80148e-05
3.83112e-05
3.8348e-05
3.83603e-05
3.83726e-05
3.83849e-05
3.8397e-05
3.84091e-05
3.8421e-05
3.84327e-05
3.84443e-05
3.84556e-05
3.84666e-05
3.84773e-05
3.84876e-05
3.84975e-05
3.8507e-05
3.85159e-05
3.85242e-05
3.85319e-05
3.85388e-05
2.2221e-05
2.92974e-05
2.99289e-05
3.05298e-05
3.11001e-05
3.16402e-05
3.21506e-05
3.26318e-05
3.30846e-05
3.35101e-05
3.39092e-05
3.42831e-05
3.46329e-05
3.49597e-05
3.52648e-05
3.55495e-05
3.58148e-05
3.6062e-05
3.62922e-05
3.65065e-05
3.67061e-05
3.68919e-05
3.70648e-05
3.7226e-05
3.73761e-05
3.75161e-05
3.76467e-05
3.77687e-05
3.78828e-05
3.8017e-05
3.83131e-05
3.83498e-05
3.83622e-05
3.83746e-05
3.83868e-05
3.8399e-05
3.84111e-05
3.8423e-05
3.84348e-05
3.84463e-05
3.84576e-05
3.84687e-05
3.84794e-05
3.84897e-05
3.84996e-05
3.8509e-05
3.85179e-05
3.85262e-05
3.85339e-05
3.85408e-05
2.22259e-05
2.93024e-05
2.99338e-05
3.05347e-05
3.1105e-05
3.1645e-05
3.21553e-05
3.26364e-05
3.30892e-05
3.35146e-05
3.39136e-05
3.42874e-05
3.4637e-05
3.49637e-05
3.52687e-05
3.55533e-05
3.58185e-05
3.60655e-05
3.62956e-05
3.65099e-05
3.67093e-05
3.6895e-05
3.70678e-05
3.72288e-05
3.73789e-05
3.75188e-05
3.76493e-05
3.77712e-05
3.78852e-05
3.80193e-05
3.83151e-05
3.83518e-05
3.83642e-05
3.83766e-05
3.83889e-05
3.84011e-05
3.84132e-05
3.84251e-05
3.84369e-05
3.84485e-05
3.84598e-05
3.84709e-05
3.84816e-05
3.84919e-05
3.85018e-05
3.85113e-05
3.85202e-05
3.85285e-05
3.85361e-05
3.8543e-05
2.22312e-05
2.93076e-05
2.9939e-05
3.05398e-05
3.11101e-05
3.16501e-05
3.21602e-05
3.26413e-05
3.3094e-05
3.35192e-05
3.39182e-05
3.42918e-05
3.46413e-05
3.49679e-05
3.52728e-05
3.55572e-05
3.58223e-05
3.60693e-05
3.62992e-05
3.65133e-05
3.67127e-05
3.68982e-05
3.70709e-05
3.72318e-05
3.73818e-05
3.75216e-05
3.7652e-05
3.77738e-05
3.78878e-05
3.80217e-05
3.83171e-05
3.83539e-05
3.83663e-05
3.83787e-05
3.8391e-05
3.84032e-05
3.84154e-05
3.84273e-05
3.84392e-05
3.84508e-05
3.84621e-05
3.84732e-05
3.84839e-05
3.84943e-05
3.85042e-05
3.85137e-05
3.85226e-05
3.85309e-05
3.85385e-05
3.85454e-05
2.22366e-05
2.9313e-05
2.99444e-05
3.05452e-05
3.11154e-05
3.16553e-05
3.21654e-05
3.26463e-05
3.30989e-05
3.35241e-05
3.39229e-05
3.42964e-05
3.46458e-05
3.49723e-05
3.52771e-05
3.55613e-05
3.58263e-05
3.60731e-05
3.6303e-05
3.6517e-05
3.67161e-05
3.69016e-05
3.70742e-05
3.7235e-05
3.73848e-05
3.75245e-05
3.76548e-05
3.77766e-05
3.78904e-05
3.80243e-05
3.83192e-05
3.83561e-05
3.83685e-05
3.83809e-05
3.83933e-05
3.84055e-05
3.84177e-05
3.84297e-05
3.84415e-05
3.84532e-05
3.84646e-05
3.84757e-05
3.84865e-05
3.84968e-05
3.85068e-05
3.85163e-05
3.85252e-05
3.85335e-05
3.85411e-05
3.8548e-05
2.22422e-05
2.93186e-05
2.995e-05
3.05507e-05
3.11209e-05
3.16607e-05
3.21707e-05
3.26516e-05
3.31041e-05
3.35291e-05
3.39278e-05
3.43012e-05
3.46505e-05
3.49769e-05
3.52815e-05
3.55656e-05
3.58305e-05
3.60771e-05
3.63069e-05
3.65207e-05
3.67198e-05
3.69051e-05
3.70776e-05
3.72382e-05
3.73879e-05
3.75275e-05
3.76578e-05
3.77794e-05
3.78931e-05
3.80269e-05
3.83215e-05
3.83583e-05
3.83708e-05
3.83833e-05
3.83956e-05
3.84079e-05
3.84201e-05
3.84322e-05
3.8444e-05
3.84557e-05
3.84672e-05
3.84783e-05
3.84891e-05
3.84995e-05
3.85095e-05
3.8519e-05
3.8528e-05
3.85363e-05
3.85439e-05
3.85508e-05
2.22481e-05
2.93245e-05
2.99558e-05
3.05565e-05
3.11266e-05
3.16664e-05
3.21763e-05
3.2657e-05
3.31094e-05
3.35344e-05
3.39329e-05
3.43062e-05
3.46554e-05
3.49816e-05
3.52861e-05
3.55701e-05
3.58348e-05
3.60813e-05
3.63109e-05
3.65246e-05
3.67235e-05
3.69087e-05
3.70811e-05
3.72416e-05
3.73912e-05
3.75307e-05
3.76608e-05
3.77823e-05
3.7896e-05
3.80297e-05
3.83238e-05
3.83607e-05
3.83732e-05
3.83857e-05
3.83981e-05
3.84104e-05
3.84227e-05
3.84348e-05
3.84467e-05
3.84584e-05
3.84699e-05
3.84811e-05
3.84919e-05
3.85024e-05
3.85124e-05
3.8522e-05
3.85309e-05
3.85393e-05
3.85469e-05
3.85538e-05
2.22542e-05
2.93305e-05
2.99618e-05
3.05625e-05
3.11325e-05
3.16722e-05
3.2182e-05
3.26627e-05
3.3115e-05
3.35398e-05
3.39382e-05
3.43114e-05
3.46604e-05
3.49865e-05
3.52908e-05
3.55747e-05
3.58392e-05
3.60856e-05
3.63151e-05
3.65286e-05
3.67274e-05
3.69125e-05
3.70847e-05
3.72451e-05
3.73946e-05
3.75339e-05
3.76639e-05
3.77854e-05
3.78989e-05
3.80325e-05
3.83262e-05
3.83631e-05
3.83757e-05
3.83882e-05
3.84006e-05
3.8413e-05
3.84253e-05
3.84375e-05
3.84495e-05
3.84612e-05
3.84728e-05
3.8484e-05
3.84949e-05
3.85055e-05
3.85155e-05
3.85251e-05
3.85341e-05
3.85425e-05
3.85502e-05
3.85571e-05
2.22605e-05
2.93368e-05
2.99681e-05
3.05687e-05
3.11386e-05
3.16782e-05
3.2188e-05
3.26685e-05
3.31207e-05
3.35454e-05
3.39437e-05
3.43167e-05
3.46656e-05
3.49915e-05
3.52957e-05
3.55794e-05
3.58438e-05
3.60901e-05
3.63194e-05
3.65328e-05
3.67314e-05
3.69163e-05
3.70885e-05
3.72487e-05
3.73981e-05
3.75373e-05
3.76672e-05
3.77885e-05
3.79019e-05
3.80354e-05
3.83287e-05
3.83656e-05
3.83782e-05
3.83908e-05
3.84033e-05
3.84157e-05
3.84281e-05
3.84403e-05
3.84523e-05
3.84642e-05
3.84758e-05
3.84871e-05
3.84981e-05
3.85087e-05
3.85188e-05
3.85284e-05
3.85375e-05
3.85459e-05
3.85536e-05
3.85606e-05
2.2267e-05
2.93432e-05
2.99745e-05
3.0575e-05
3.11449e-05
3.16845e-05
3.21941e-05
3.26746e-05
3.31266e-05
3.35512e-05
3.39493e-05
3.43222e-05
3.46709e-05
3.49967e-05
3.53008e-05
3.55843e-05
3.58485e-05
3.60947e-05
3.63238e-05
3.65371e-05
3.67356e-05
3.69203e-05
3.70923e-05
3.72525e-05
3.74017e-05
3.75408e-05
3.76705e-05
3.77917e-05
3.7905e-05
3.80385e-05
3.83312e-05
3.83682e-05
3.83809e-05
3.83935e-05
3.84061e-05
3.84186e-05
3.8431e-05
3.84432e-05
3.84554e-05
3.84673e-05
3.8479e-05
3.84903e-05
3.85014e-05
3.85121e-05
3.85223e-05
3.8532e-05
3.85411e-05
3.85496e-05
3.85573e-05
3.85643e-05
2.22737e-05
2.93499e-05
2.99811e-05
3.05816e-05
3.11514e-05
3.16909e-05
3.22004e-05
3.26807e-05
3.31327e-05
3.35571e-05
3.39551e-05
3.43278e-05
3.46764e-05
3.5002e-05
3.53059e-05
3.55893e-05
3.58534e-05
3.60994e-05
3.63284e-05
3.65415e-05
3.67398e-05
3.69244e-05
3.70963e-05
3.72563e-05
3.74054e-05
3.75443e-05
3.7674e-05
3.7795e-05
3.79083e-05
3.80416e-05
3.83338e-05
3.83709e-05
3.83836e-05
3.83963e-05
3.84089e-05
3.84215e-05
3.84339e-05
3.84463e-05
3.84585e-05
3.84705e-05
3.84823e-05
3.84937e-05
3.85049e-05
3.85156e-05
3.85259e-05
3.85357e-05
3.85449e-05
3.85535e-05
3.85613e-05
3.85683e-05
2.22806e-05
2.93567e-05
2.99879e-05
3.05883e-05
3.11581e-05
3.16975e-05
3.22069e-05
3.26871e-05
3.31389e-05
3.35632e-05
3.39611e-05
3.43336e-05
3.46821e-05
3.50075e-05
3.53113e-05
3.55945e-05
3.58584e-05
3.61042e-05
3.6333e-05
3.6546e-05
3.67442e-05
3.69287e-05
3.71003e-05
3.72602e-05
3.74091e-05
3.7548e-05
3.76775e-05
3.77985e-05
3.79116e-05
3.80448e-05
3.83365e-05
3.83736e-05
3.83864e-05
3.83991e-05
3.84118e-05
3.84245e-05
3.8437e-05
3.84495e-05
3.84617e-05
3.84738e-05
3.84857e-05
3.84973e-05
3.85085e-05
3.85194e-05
3.85298e-05
3.85396e-05
3.85489e-05
3.85576e-05
3.85655e-05
3.85726e-05
2.22876e-05
2.93637e-05
2.99949e-05
3.05953e-05
3.11649e-05
3.17042e-05
3.22135e-05
3.26936e-05
3.31453e-05
3.35694e-05
3.39672e-05
3.43396e-05
3.46878e-05
3.50132e-05
3.53167e-05
3.55998e-05
3.58635e-05
3.61092e-05
3.63378e-05
3.65506e-05
3.67487e-05
3.6933e-05
3.71045e-05
3.72642e-05
3.7413e-05
3.75517e-05
3.76811e-05
3.7802e-05
3.79149e-05
3.80481e-05
3.83393e-05
3.83764e-05
3.83893e-05
3.84021e-05
3.84148e-05
3.84276e-05
3.84402e-05
3.84527e-05
3.84651e-05
3.84773e-05
3.84893e-05
3.8501e-05
3.85123e-05
3.85233e-05
3.85338e-05
3.85438e-05
3.85532e-05
3.85619e-05
3.857e-05
3.85772e-05
2.22948e-05
2.93709e-05
3.0002e-05
3.06023e-05
3.11719e-05
3.17111e-05
3.22203e-05
3.27003e-05
3.31518e-05
3.35758e-05
3.39734e-05
3.43457e-05
3.46938e-05
3.50189e-05
3.53223e-05
3.56052e-05
3.58688e-05
3.61142e-05
3.63427e-05
3.65554e-05
3.67532e-05
3.69374e-05
3.71088e-05
3.72683e-05
3.7417e-05
3.75555e-05
3.76848e-05
3.78055e-05
3.79184e-05
3.80514e-05
3.83421e-05
3.83793e-05
3.83922e-05
3.84051e-05
3.84179e-05
3.84307e-05
3.84435e-05
3.84561e-05
3.84686e-05
3.84809e-05
3.8493e-05
3.85048e-05
3.85163e-05
3.85274e-05
3.8538e-05
3.85481e-05
3.85577e-05
3.85666e-05
3.85747e-05
3.8582e-05
2.23022e-05
2.93782e-05
3.00093e-05
3.06095e-05
3.11791e-05
3.17181e-05
3.22273e-05
3.27071e-05
3.31585e-05
3.35824e-05
3.39798e-05
3.43519e-05
3.46998e-05
3.50248e-05
3.5328e-05
3.56107e-05
3.58741e-05
3.61194e-05
3.63477e-05
3.65602e-05
3.67579e-05
3.69419e-05
3.71131e-05
3.72725e-05
3.7421e-05
3.75594e-05
3.76886e-05
3.78092e-05
3.79219e-05
3.80548e-05
3.83449e-05
3.83823e-05
3.83952e-05
3.84082e-05
3.84211e-05
3.8434e-05
3.84469e-05
3.84596e-05
3.84722e-05
3.84847e-05
3.84969e-05
3.85088e-05
3.85204e-05
3.85317e-05
3.85425e-05
3.85527e-05
3.85624e-05
3.85714e-05
3.85797e-05
3.85871e-05
2.23097e-05
2.93856e-05
3.00167e-05
3.06169e-05
3.11863e-05
3.17253e-05
3.22343e-05
3.2714e-05
3.31653e-05
3.3589e-05
3.39863e-05
3.43582e-05
3.47059e-05
3.50307e-05
3.53338e-05
3.56163e-05
3.58796e-05
3.61247e-05
3.63528e-05
3.65651e-05
3.67627e-05
3.69465e-05
3.71175e-05
3.72768e-05
3.74251e-05
3.75634e-05
3.76924e-05
3.78129e-05
3.79255e-05
3.80583e-05
3.83479e-05
3.83852e-05
3.83983e-05
3.84113e-05
3.84244e-05
3.84374e-05
3.84503e-05
3.84632e-05
3.84759e-05
3.84885e-05
3.85009e-05
3.8513e-05
3.85247e-05
3.85361e-05
3.85471e-05
3.85575e-05
3.85674e-05
3.85766e-05
3.8585e-05
3.85926e-05
2.23173e-05
2.93932e-05
3.00242e-05
3.06244e-05
3.11938e-05
3.17326e-05
3.22415e-05
3.27211e-05
3.31722e-05
3.35958e-05
3.39929e-05
3.43646e-05
3.47122e-05
3.50368e-05
3.53397e-05
3.56221e-05
3.58851e-05
3.613e-05
3.6358e-05
3.65701e-05
3.67675e-05
3.69511e-05
3.7122e-05
3.72811e-05
3.74293e-05
3.75675e-05
3.76963e-05
3.78167e-05
3.79292e-05
3.80619e-05
3.83508e-05
3.83883e-05
3.84014e-05
3.84145e-05
3.84277e-05
3.84408e-05
3.84539e-05
3.84669e-05
3.84798e-05
3.84925e-05
3.8505e-05
3.85173e-05
3.85292e-05
3.85408e-05
3.85519e-05
3.85626e-05
3.85726e-05
3.85819e-05
3.85906e-05
3.85983e-05
2.23251e-05
2.94009e-05
3.00319e-05
3.0632e-05
3.12013e-05
3.174e-05
3.22488e-05
3.27283e-05
3.31792e-05
3.36026e-05
3.39996e-05
3.43712e-05
3.47186e-05
3.5043e-05
3.53457e-05
3.56279e-05
3.58907e-05
3.61355e-05
3.63633e-05
3.65752e-05
3.67724e-05
3.69559e-05
3.71266e-05
3.72855e-05
3.74336e-05
3.75716e-05
3.77003e-05
3.78205e-05
3.79329e-05
3.80655e-05
3.83538e-05
3.83914e-05
3.84046e-05
3.84178e-05
3.8431e-05
3.84443e-05
3.84575e-05
3.84706e-05
3.84837e-05
3.84966e-05
3.85093e-05
3.85217e-05
3.85339e-05
3.85456e-05
3.8557e-05
3.85678e-05
3.8578e-05
3.85876e-05
3.85964e-05
3.86044e-05
2.23329e-05
2.94087e-05
3.00396e-05
3.06397e-05
3.12089e-05
3.17476e-05
3.22562e-05
3.27355e-05
3.31863e-05
3.36096e-05
3.40064e-05
3.43778e-05
3.4725e-05
3.50493e-05
3.53518e-05
3.56338e-05
3.58965e-05
3.6141e-05
3.63686e-05
3.65804e-05
3.67774e-05
3.69607e-05
3.71312e-05
3.729e-05
3.74379e-05
3.75757e-05
3.77043e-05
3.78244e-05
3.79366e-05
3.80691e-05
3.83569e-05
3.83945e-05
3.84078e-05
3.84211e-05
3.84345e-05
3.84478e-05
3.84612e-05
3.84745e-05
3.84877e-05
3.85008e-05
3.85137e-05
3.85263e-05
3.85387e-05
3.85507e-05
3.85622e-05
3.85733e-05
3.85838e-05
3.85936e-05
3.86026e-05
3.86108e-05
2.23409e-05
2.94166e-05
3.00475e-05
3.06475e-05
3.12166e-05
3.17552e-05
3.22637e-05
3.27429e-05
3.31936e-05
3.36167e-05
3.40133e-05
3.43845e-05
3.47316e-05
3.50556e-05
3.5358e-05
3.56398e-05
3.59022e-05
3.61466e-05
3.6374e-05
3.65856e-05
3.67824e-05
3.69655e-05
3.71359e-05
3.72945e-05
3.74423e-05
3.75799e-05
3.77084e-05
3.78283e-05
3.79404e-05
3.80728e-05
3.83599e-05
3.83976e-05
3.8411e-05
3.84245e-05
3.8438e-05
3.84515e-05
3.8465e-05
3.84784e-05
3.84918e-05
3.85051e-05
3.85182e-05
3.8531e-05
3.85436e-05
3.85559e-05
3.85677e-05
3.8579e-05
3.85897e-05
3.85998e-05
3.86091e-05
3.86175e-05
2.2349e-05
2.94246e-05
3.00555e-05
3.06554e-05
3.12244e-05
3.17629e-05
3.22713e-05
3.27503e-05
3.32009e-05
3.36238e-05
3.40203e-05
3.43913e-05
3.47382e-05
3.50621e-05
3.53642e-05
3.56458e-05
3.59081e-05
3.61523e-05
3.63795e-05
3.65909e-05
3.67875e-05
3.69705e-05
3.71407e-05
3.72991e-05
3.74467e-05
3.75842e-05
3.77125e-05
3.78323e-05
3.79443e-05
3.80765e-05
3.8363e-05
3.84008e-05
3.84143e-05
3.84279e-05
3.84415e-05
3.84551e-05
3.84688e-05
3.84824e-05
3.8496e-05
3.85095e-05
3.85228e-05
3.85359e-05
3.85488e-05
3.85613e-05
3.85733e-05
3.85849e-05
3.85959e-05
3.86063e-05
3.86159e-05
3.86246e-05
2.23572e-05
2.94328e-05
3.00636e-05
3.06634e-05
3.12323e-05
3.17707e-05
3.2279e-05
3.27579e-05
3.32083e-05
3.36311e-05
3.40273e-05
3.43982e-05
3.47449e-05
3.50686e-05
3.53705e-05
3.56519e-05
3.5914e-05
3.6158e-05
3.6385e-05
3.65962e-05
3.67927e-05
3.69754e-05
3.71455e-05
3.73037e-05
3.74511e-05
3.75885e-05
3.77166e-05
3.78363e-05
3.79481e-05
3.80803e-05
3.83661e-05
3.8404e-05
3.84176e-05
3.84313e-05
3.8445e-05
3.84589e-05
3.84727e-05
3.84865e-05
3.85003e-05
3.8514e-05
3.85276e-05
3.85409e-05
3.8554e-05
3.85668e-05
3.85792e-05
3.85911e-05
3.86024e-05
3.86131e-05
3.8623e-05
3.86321e-05
2.23655e-05
2.94411e-05
3.00718e-05
3.06716e-05
3.12404e-05
3.17786e-05
3.22868e-05
3.27656e-05
3.32158e-05
3.36384e-05
3.40345e-05
3.44052e-05
3.47517e-05
3.50752e-05
3.5377e-05
3.56582e-05
3.59201e-05
3.61638e-05
3.63907e-05
3.66017e-05
3.67979e-05
3.69805e-05
3.71503e-05
3.73084e-05
3.74556e-05
3.75928e-05
3.77208e-05
3.78403e-05
3.7952e-05
3.80841e-05
3.83692e-05
3.84072e-05
3.84209e-05
3.84347e-05
3.84486e-05
3.84626e-05
3.84766e-05
3.84907e-05
3.85047e-05
3.85186e-05
3.85324e-05
3.85461e-05
3.85595e-05
3.85726e-05
3.85853e-05
3.85975e-05
3.86092e-05
3.86202e-05
3.86305e-05
3.86399e-05
2.23741e-05
2.94495e-05
3.00802e-05
3.06799e-05
3.12486e-05
3.17868e-05
3.22948e-05
3.27734e-05
3.32235e-05
3.36459e-05
3.40418e-05
3.44123e-05
3.47586e-05
3.50819e-05
3.53835e-05
3.56645e-05
3.59262e-05
3.61697e-05
3.63963e-05
3.66071e-05
3.68032e-05
3.69856e-05
3.71552e-05
3.73131e-05
3.74602e-05
3.75972e-05
3.7725e-05
3.78444e-05
3.7956e-05
3.80879e-05
3.83723e-05
3.84105e-05
3.84243e-05
3.84382e-05
3.84523e-05
3.84664e-05
3.84807e-05
3.84949e-05
3.85091e-05
3.85233e-05
3.85374e-05
3.85514e-05
3.85651e-05
3.85785e-05
3.85916e-05
3.86042e-05
3.86162e-05
3.86276e-05
3.86383e-05
3.86481e-05
2.23829e-05
2.94583e-05
3.00889e-05
3.06885e-05
3.12571e-05
3.17951e-05
3.2303e-05
3.27814e-05
3.32313e-05
3.36536e-05
3.40493e-05
3.44196e-05
3.47657e-05
3.50888e-05
3.53901e-05
3.56709e-05
3.59324e-05
3.61757e-05
3.64021e-05
3.66127e-05
3.68086e-05
3.69907e-05
3.71602e-05
3.73179e-05
3.74648e-05
3.76016e-05
3.77293e-05
3.78485e-05
3.79599e-05
3.80917e-05
3.83755e-05
3.84137e-05
3.84277e-05
3.84417e-05
3.8456e-05
3.84703e-05
3.84847e-05
3.84992e-05
3.85137e-05
3.85281e-05
3.85425e-05
3.85568e-05
3.85708e-05
3.85846e-05
3.8598e-05
3.8611e-05
3.86235e-05
3.86354e-05
3.86464e-05
3.86567e-05
2.23921e-05
2.94673e-05
3.00979e-05
3.06974e-05
3.12659e-05
3.18037e-05
3.23115e-05
3.27897e-05
3.32394e-05
3.36615e-05
3.4057e-05
3.44271e-05
3.4773e-05
3.50958e-05
3.53969e-05
3.56775e-05
3.59387e-05
3.61818e-05
3.6408e-05
3.66184e-05
3.6814e-05
3.6996e-05
3.71652e-05
3.73227e-05
3.74694e-05
3.76061e-05
3.77336e-05
3.78526e-05
3.79639e-05
3.80956e-05
3.83787e-05
3.8417e-05
3.8431e-05
3.84453e-05
3.84597e-05
3.84742e-05
3.84888e-05
3.85035e-05
3.85183e-05
3.8533e-05
3.85477e-05
3.85623e-05
3.85767e-05
3.85909e-05
3.86048e-05
3.86182e-05
3.86311e-05
3.86434e-05
3.8655e-05
3.86657e-05
2.24016e-05
2.94767e-05
3.01072e-05
3.07066e-05
3.1275e-05
3.18127e-05
3.23202e-05
3.27983e-05
3.32478e-05
3.36696e-05
3.40649e-05
3.44348e-05
3.47804e-05
3.5103e-05
3.54039e-05
3.56842e-05
3.59452e-05
3.61881e-05
3.64141e-05
3.66242e-05
3.68196e-05
3.70013e-05
3.71704e-05
3.73277e-05
3.74742e-05
3.76106e-05
3.7738e-05
3.78568e-05
3.7968e-05
3.80996e-05
3.83818e-05
3.84203e-05
3.84345e-05
3.84488e-05
3.84634e-05
3.84781e-05
3.8493e-05
3.85079e-05
3.8523e-05
3.8538e-05
3.85531e-05
3.8568e-05
3.85828e-05
3.85974e-05
3.86117e-05
3.86256e-05
3.8639e-05
3.86518e-05
3.86638e-05
3.86751e-05
2.24115e-05
2.94865e-05
3.01169e-05
3.07162e-05
3.12845e-05
3.1822e-05
3.23294e-05
3.28072e-05
3.32565e-05
3.36781e-05
3.40731e-05
3.44428e-05
3.47881e-05
3.51105e-05
3.54111e-05
3.56912e-05
3.59519e-05
3.61945e-05
3.64202e-05
3.66301e-05
3.68253e-05
3.70068e-05
3.71756e-05
3.73327e-05
3.7479e-05
3.76153e-05
3.77424e-05
3.78611e-05
3.79721e-05
3.81036e-05
3.8385e-05
3.84236e-05
3.84379e-05
3.84525e-05
3.84672e-05
3.84821e-05
3.84972e-05
3.85124e-05
3.85278e-05
3.85431e-05
3.85585e-05
3.85739e-05
3.85891e-05
3.86041e-05
3.86189e-05
3.86332e-05
3.86472e-05
3.86605e-05
3.86731e-05
3.86849e-05
2.24218e-05
2.94967e-05
3.0127e-05
3.07262e-05
3.12943e-05
3.18317e-05
3.23388e-05
3.28165e-05
3.32655e-05
3.36869e-05
3.40817e-05
3.4451e-05
3.47961e-05
3.51182e-05
3.54185e-05
3.56983e-05
3.59588e-05
3.62012e-05
3.64266e-05
3.66363e-05
3.68312e-05
3.70124e-05
3.7181e-05
3.73379e-05
3.74839e-05
3.762e-05
3.7747e-05
3.78655e-05
3.79763e-05
3.81076e-05
3.83883e-05
3.84269e-05
3.84414e-05
3.84561e-05
3.8471e-05
3.84862e-05
3.85015e-05
3.8517e-05
3.85326e-05
3.85483e-05
3.85641e-05
3.85798e-05
3.85955e-05
3.8611e-05
3.86262e-05
3.86412e-05
3.86556e-05
3.86696e-05
3.86828e-05
3.86952e-05
2.24325e-05
2.95073e-05
3.01375e-05
3.07366e-05
3.13045e-05
3.18417e-05
3.23487e-05
3.28261e-05
3.32749e-05
3.3696e-05
3.40905e-05
3.44596e-05
3.48044e-05
3.51262e-05
3.54263e-05
3.57058e-05
3.59659e-05
3.6208e-05
3.64332e-05
3.66426e-05
3.68372e-05
3.70182e-05
3.71866e-05
3.73432e-05
3.7489e-05
3.76249e-05
3.77516e-05
3.78699e-05
3.79806e-05
3.81117e-05
3.83916e-05
3.84303e-05
3.84449e-05
3.84598e-05
3.84749e-05
3.84903e-05
3.85058e-05
3.85216e-05
3.85376e-05
3.85536e-05
3.85698e-05
3.85859e-05
3.86021e-05
3.86181e-05
3.86339e-05
3.86493e-05
3.86644e-05
3.8679e-05
3.86928e-05
3.87059e-05
2.24435e-05
2.95181e-05
3.01483e-05
3.07473e-05
3.13151e-05
3.18521e-05
3.23589e-05
3.28361e-05
3.32846e-05
3.37054e-05
3.40997e-05
3.44685e-05
3.4813e-05
3.51345e-05
3.54342e-05
3.57134e-05
3.59733e-05
3.62151e-05
3.644e-05
3.6649e-05
3.68434e-05
3.70241e-05
3.71922e-05
3.73486e-05
3.74942e-05
3.76298e-05
3.77563e-05
3.78745e-05
3.7985e-05
3.81159e-05
3.83949e-05
3.84337e-05
3.84485e-05
3.84635e-05
3.84788e-05
3.84944e-05
3.85102e-05
3.85263e-05
3.85426e-05
3.8559e-05
3.85756e-05
3.85922e-05
3.86088e-05
3.86253e-05
3.86417e-05
3.86578e-05
3.86735e-05
3.86887e-05
3.87033e-05
3.87171e-05
2.24548e-05
2.95293e-05
3.01594e-05
3.07583e-05
3.13259e-05
3.18628e-05
3.23693e-05
3.28463e-05
3.32946e-05
3.37151e-05
3.41091e-05
3.44776e-05
3.48218e-05
3.5143e-05
3.54424e-05
3.57213e-05
3.59809e-05
3.62224e-05
3.64469e-05
3.66557e-05
3.68498e-05
3.70302e-05
3.7198e-05
3.73542e-05
3.74995e-05
3.76349e-05
3.77612e-05
3.78791e-05
3.79894e-05
3.81201e-05
3.83982e-05
3.84372e-05
3.8452e-05
3.84672e-05
3.84827e-05
3.84985e-05
3.85147e-05
3.8531e-05
3.85477e-05
3.85645e-05
3.85815e-05
3.85985e-05
3.86157e-05
3.86328e-05
3.86497e-05
3.86665e-05
3.86829e-05
3.86988e-05
3.87142e-05
3.87287e-05
2.24663e-05
2.95407e-05
3.01707e-05
3.07695e-05
3.1337e-05
3.18737e-05
3.238e-05
3.28568e-05
3.33048e-05
3.37251e-05
3.41187e-05
3.44869e-05
3.48308e-05
3.51517e-05
3.54508e-05