/*--------------------------------*- C++ -*----------------------------------*\
  =========                 |
  \\      /  F ield         | OpenFOAM: The Open Source CFD Toolbox
   \\    /   O peration     | Website:  https://openfoam.org
    \\  /    A nd           | Version:  9
     \\/     M anipulation  |
\*---------------------------------------------------------------------------*/
FoamFile
{
    format      ascii;
    class       surfaceVectorField;
    location    "0.01";
    object      Uf;
}
// * * * * * * * * * * * * * * * * * * * * * * * * * * * * * * * * * * * * * //

dimensions      [0 1 -1 0 0 0 0];

internalField   nonuniform List<vector> 
9850
(
(-6.65796e-06 0 -0.000482035)
(-2.57254e-05 0 -0.000315988)
(-6.28948e-06 0 -0.000813751)
(-2.3355e-05 0 -0.000655916)
(-6.1455e-06 0 -0.00114915)
(-2.30716e-05 0 -0.000979996)
(-6.01035e-06 0 -0.00150758)
(-2.27527e-05 0 -0.00132662)
(-5.86526e-06 0 -0.00189138)
(-2.23652e-05 0 -0.00169768)
(-5.71824e-06 0 -0.0023018)
(-2.20051e-05 0 -0.00209519)
(-5.56983e-06 0 -0.00273911)
(-2.16734e-05 0 -0.00251958)
(-5.40989e-06 0 -0.00320353)
(-2.13521e-05 0 -0.00297097)
(-5.23148e-06 0 -0.00369552)
(-2.10169e-05 0 -0.00344969)
(-5.03236e-06 0 -0.00421573)
(-2.0655e-05 0 -0.00395632)
(-4.81218e-06 0 -0.00476487)
(-2.02606e-05 0 -0.00449156)
(-4.57083e-06 0 -0.00534376)
(-1.98302e-05 0 -0.00505615)
(-4.30805e-06 0 -0.00595329)
(-1.93609e-05 0 -0.00565096)
(-4.02352e-06 0 -0.00659449)
(-1.88504e-05 0 -0.00627694)
(-3.7171e-06 0 -0.00726851)
(-1.82971e-05 0 -0.00693517)
(-3.3887e-06 0 -0.00797665)
(-1.76998e-05 0 -0.00762689)
(-3.03819e-06 0 -0.00872034)
(-1.70579e-05 0 -0.00835346)
(-2.66529e-06 0 -0.00950115)
(-1.63708e-05 0 -0.00911638)
(-2.26957e-06 0 -0.0103208)
(-1.56375e-05 0 -0.00991731)
(-1.85038e-06 0 -0.0111811)
(-1.48571e-05 0 -0.010758)
(-1.4068e-06 0 -0.0120842)
(-1.40282e-05 0 -0.0116405)
(-9.37594e-07 0 -0.013032)
(-1.31484e-05 0 -0.0125667)
(-4.41308e-07 0 -0.0140268)
(-1.22154e-05 0 -0.0135388)
(8.36445e-08 0 -0.0150711)
(-1.1226e-05 0 -0.0145592)
(6.38923e-07 0 -0.0161673)
(-1.01769e-05 0 -0.0156304)
(1.22624e-06 0 -0.017318)
(-9.06474e-06 0 -0.0167548)
(1.84748e-06 0 -0.018526)
(-7.8862e-06 0 -0.0179351)
(2.50509e-06 0 -0.0197943)
(-6.63817e-06 0 -0.0191743)
(3.20348e-06 0 -0.0211259)
(-5.31296e-06 0 -0.0204754)
(3.94334e-06 0 -0.0225226)
(-3.88582e-06 0 -0.0218414)
(4.76157e-06 0 -0.0242271)
(-2.32481e-06 0 -0.0233948)
(5.60559e-06 0 -0.0259238)
(-6.53123e-07 0 -0.025097)
(6.44696e-06 0 -0.0276125)
(1.06058e-06 0 -0.0267912)
(7.27319e-06 0 -0.0292925)
(2.7616e-06 0 -0.0284773)
(8.07582e-06 0 -0.0309621)
(4.43555e-06 0 -0.0301541)
(8.84661e-06 0 -0.0326189)
(6.07077e-06 0 -0.0318193)
(9.57693e-06 0 -0.0342597)
(7.65391e-06 0 -0.0334704)
(1.02572e-05 0 -0.0358811)
(9.16998e-06 0 -0.0351038)
(1.08772e-05 0 -0.0374792)
(1.06022e-05 0 -0.036716)
(1.14256e-05 0 -0.0390496)
(1.19322e-05 0 -0.0383026)
(1.18907e-05 0 -0.0405873)
(1.31403e-05 0 -0.0398593)
(1.22601e-05 0 -0.0420873)
(1.42053e-05 0 -0.0413808)
(1.2521e-05 0 -0.0435439)
(1.51056e-05 0 -0.0428617)
(1.26608e-05 0 -0.0449509)
(1.58189e-05 0 -0.0442963)
(1.26672e-05 0 -0.046302)
(1.63235e-05 0 -0.0456781)
(1.25284e-05 0 -0.0475902)
(1.65988e-05 0 -0.0470006)
(1.22348e-05 0 -0.0488086)
(1.66268e-05 0 -0.0482568)
(1.17773e-05 0 -0.0499496)
(1.63908e-05 0 -0.0494394)
(1.11343e-05 0 -0.0510056)
(1.58602e-05 0 -0.0505409)
(1.50222e-05 0 -0.0515531)
(-4.2192e-05 0 -0.000481948)
(-7.19939e-05 0 -0.000318904)
(-4.07244e-05 0 -0.000814805)
(-6.80372e-05 0 -0.000660483)
(-3.98118e-05 0 -0.00114973)
(-6.70858e-05 0 -0.000982706)
(-3.91237e-05 0 -0.00150856)
(-6.61523e-05 0 -0.00132857)
(-3.85176e-05 0 -0.00189288)
(-6.52449e-05 0 -0.00169932)
(-3.79743e-05 0 -0.00230389)
(-6.44417e-05 0 -0.0020966)
(-3.74731e-05 0 -0.00274191)
(-6.3731e-05 0 -0.00252082)
(-3.69772e-05 0 -0.00320716)
(-6.3062e-05 0 -0.00297213)
(-3.64586e-05 0 -0.00370009)
(-6.23871e-05 0 -0.00345085)
(-3.59017e-05 0 -0.00422131)
(-6.16794e-05 0 -0.00395751)
(-3.52975e-05 0 -0.00477156)
(-6.09235e-05 0 -0.00449278)
(-3.46398e-05 0 -0.00535164)
(-6.01083e-05 0 -0.00505742)
(-3.39234e-05 0 -0.00596244)
(-5.9225e-05 0 -0.00565227)
(-3.31445e-05 0 -0.00660499)
(-5.82668e-05 0 -0.00627829)
(-3.23008e-05 0 -0.00728046)
(-5.72282e-05 0 -0.00693657)
(-3.13904e-05 0 -0.00799012)
(-5.61055e-05 0 -0.00762832)
(-3.04122e-05 0 -0.00873542)
(-5.4896e-05 0 -0.00835493)
(-2.93652e-05 0 -0.00951795)
(-5.35972e-05 0 -0.00911788)
(-2.82479e-05 0 -0.0103394)
(-5.22071e-05 0 -0.00991884)
(-2.70587e-05 0 -0.0112016)
(-5.0723e-05 0 -0.0107596)
(-2.57947e-05 0 -0.0121067)
(-4.91415e-05 0 -0.011642)
(-2.44526e-05 0 -0.0130566)
(-4.74582e-05 0 -0.0125683)
(-2.30279e-05 0 -0.0140537)
(-4.56678e-05 0 -0.0135404)
(-2.1516e-05 0 -0.0151003)
(-4.37641e-05 0 -0.0145609)
(-1.99118e-05 0 -0.0161989)
(-4.17407e-05 0 -0.015632)
(-1.82101e-05 0 -0.0173522)
(-3.95907e-05 0 -0.0167564)
(-1.64056e-05 0 -0.018563)
(-3.73078e-05 0 -0.0179368)
(-1.44912e-05 0 -0.0198341)
(-3.48882e-05 0 -0.019176)
(-1.2456e-05 0 -0.0211687)
(-3.23282e-05 0 -0.0204771)
(-1.02794e-05 0 -0.0225686)
(-2.95823e-05 0 -0.0218431)
(-7.76722e-06 0 -0.024277)
(-2.64514e-05 0 -0.0233965)
(-5.19277e-06 0 -0.0259775)
(-2.30177e-05 0 -0.0250988)
(-2.62026e-06 0 -0.0276699)
(-1.95526e-05 0 -0.0267929)
(-6.9902e-08 0 -0.0293536)
(-1.61126e-05 0 -0.028479)
(2.43923e-06 0 -0.0310269)
(-1.27011e-05 0 -0.0301557)
(4.88971e-06 0 -0.0326872)
(-9.33272e-06 0 -0.031821)
(7.26213e-06 0 -0.0343317)
(-6.0277e-06 0 -0.0334719)
(9.53414e-06 0 -0.0359566)
(-2.8097e-06 0 -0.0351053)
(1.16809e-05 0 -0.0375582)
(2.94119e-07 0 -0.0367174)
(1.36752e-05 0 -0.0391319)
(3.25327e-06 0 -0.038304)
(1.54883e-05 0 -0.040673)
(6.03457e-06 0 -0.0398605)
(1.70895e-05 0 -0.0421763)
(8.60296e-06 0 -0.0413818)
(1.84472e-05 0 -0.043636)
(1.09219e-05 0 -0.0428626)
(1.95304e-05 0 -0.045046)
(1.29538e-05 0 -0.044297)
(2.03089e-05 0 -0.0464)
(1.46619e-05 0 -0.0456786)
(2.07541e-05 0 -0.0476911)
(1.60116e-05 0 -0.0470009)
(2.08424e-05 0 -0.0489121)
(1.69746e-05 0 -0.0482569)
(2.05517e-05 0 -0.0500556)
(1.75221e-05 0 -0.0494392)
(1.98292e-05 0 -0.0511139)
(1.75922e-05 0 -0.0505404)
(1.72046e-05 0 -0.0515523)
(-9.73894e-05 0 -0.000489159)
(-0.000135539 0 -0.000324993)
(-9.52391e-05 0 -0.000820728)
(-0.000131593 0 -0.000667176)
(-9.35801e-05 0 -0.00115373)
(-0.000130163 0 -0.000987634)
(-9.22884e-05 0 -0.00151144)
(-0.000128641 0 -0.00133224)
(-9.11892e-05 0 -0.00189511)
(-0.000127241 0 -0.0017023)
(-9.02269e-05 0 -0.0023056)
(-0.000126038 0 -0.00209908)
(-8.93501e-05 0 -0.00274321)
(-0.000124979 0 -0.00252298)
(-8.85017e-05 0 -0.00320815)
(-0.000123981 0 -0.00297412)
(-8.76382e-05 0 -0.00370082)
(-0.000122983 0 -0.00345278)
(-8.67323e-05 0 -0.00422182)
(-0.000121948 0 -0.00395943)
(-8.57665e-05 0 -0.00477184)
(-0.000120853 0 -0.00449473)
(-8.47271e-05 0 -0.00535169)
(-0.000119681 0 -0.00505941)
(-8.36034e-05 0 -0.00596226)
(-0.000118418 0 -0.00565432)
(-8.23867e-05 0 -0.00660457)
(-0.000117055 0 -0.0062804)
(-8.10703e-05 0 -0.00727977)
(-0.00011558 0 -0.00693874)
(-7.96494e-05 0 -0.00798917)
(-0.000113989 0 -0.00763056)
(-7.81204e-05 0 -0.00873419)
(-0.000112274 0 -0.00835723)
(-7.64799e-05 0 -0.00951641)
(-0.000110431 0 -0.00912024)
(-7.47245e-05 0 -0.0103376)
(-0.000108456 0 -0.00992126)
(-7.28501e-05 0 -0.0111995)
(-0.000106343 0 -0.0107621)
(-7.08516e-05 0 -0.0121041)
(-0.000104087 0 -0.0116446)
(-6.8723e-05 0 -0.0130537)
(-0.000101681 0 -0.0125708)
(-6.64568e-05 0 -0.0140504)
(-9.91152e-05 0 -0.013543)
(-6.40449e-05 0 -0.0150966)
(-9.63807e-05 0 -0.0145635)
(-6.14791e-05 0 -0.0161948)
(-9.34675e-05 0 -0.0156347)
(-5.87515e-05 0 -0.0173476)
(-9.03654e-05 0 -0.0167592)
(-5.58548e-05 0 -0.0185579)
(-8.70647e-05 0 -0.0179396)
(-5.27808e-05 0 -0.0198285)
(-8.35599e-05 0 -0.0191788)
(-4.95341e-05 0 -0.0211626)
(-7.98578e-05 0 -0.0204799)
(-4.61382e-05 0 -0.022562)
(-7.59129e-05 0 -0.0218459)
(-4.16955e-05 0 -0.0242698)
(-7.12468e-05 0 -0.0233994)
(-3.73619e-05 0 -0.0259695)
(-6.60165e-05 0 -0.0251016)
(-3.30468e-05 0 -0.0276611)
(-6.08086e-05 0 -0.0267958)
(-2.87451e-05 0 -0.0293439)
(-5.56235e-05 0 -0.0284818)
(-2.44728e-05 0 -0.0310163)
(-5.04399e-05 0 -0.0301586)
(-2.02478e-05 0 -0.0326759)
(-4.52701e-05 0 -0.0318238)
(-1.60941e-05 0 -0.0343194)
(-4.01348e-05 0 -0.0334747)
(-1.20405e-05 0 -0.0359435)
(-3.50602e-05 0 -0.035108)
(-8.12005e-06 0 -0.0375441)
(-3.00782e-05 0 -0.03672)
(-4.36915e-06 0 -0.0391169)
(-2.52252e-05 0 -0.0383065)
(-8.27122e-07 0 -0.0406571)
(-2.05413e-05 0 -0.0398628)
(2.46422e-06 0 -0.0421593)
(-1.60689e-05 0 -0.041384)
(5.46245e-06 0 -0.043618)
(-1.18525e-05 0 -0.0428646)
(8.12466e-06 0 -0.0450271)
(-7.93811e-06 0 -0.0442988)
(1.04098e-05 0 -0.0463801)
(-4.37114e-06 0 -0.0456802)
(1.22796e-05 0 -0.0476702)
(-1.19331e-06 0 -0.0470022)
(1.37006e-05 0 -0.0488902)
(1.56221e-06 0 -0.0482578)
(1.46468e-05 0 -0.0500328)
(3.86259e-06 0 -0.0494398)
(1.50699e-05 0 -0.0510901)
(5.61475e-06 0 -0.0505407)
(6.89917e-06 0 -0.0515522)
(-0.000169441 0 -0.000494932)
(-0.000217045 0 -0.000329581)
(-0.000167321 0 -0.000826575)
(-0.000213515 0 -0.000673776)
(-0.000165328 0 -0.00115812)
(-0.000211962 0 -0.000993554)
(-0.000163601 0 -0.00151455)
(-0.000210031 0 -0.00133713)
(-0.00016212 0 -0.00189722)
(-0.000208238 0 -0.0017063)
(-0.000160829 0 -0.00230691)
(-0.000206707 0 -0.00210241)
(-0.000159647 0 -0.00274388)
(-0.00020535 0 -0.00252588)
(-0.0001585 0 -0.0032083)
(-0.000204064 0 -0.00297681)
(-0.000157331 0 -0.00370052)
(-0.000202774 0 -0.00345538)
(-0.000156108 0 -0.00422108)
(-0.000201435 0 -0.00396202)
(-0.000154808 0 -0.00477066)
(-0.000200022 0 -0.00449735)
(-0.000153415 0 -0.00535005)
(-0.000198513 0 -0.00506208)
(-0.000151914 0 -0.00596014)
(-0.000196894 0 -0.00565705)
(-0.000150295 0 -0.00660193)
(-0.000195151 0 -0.00628321)
(-0.000148547 0 -0.00727658)
(-0.000193273 0 -0.00694163)
(-0.000146663 0 -0.00798538)
(-0.000191249 0 -0.00763354)
(-0.000144636 0 -0.00872976)
(-0.000189071 0 -0.00836028)
(-0.000142462 0 -0.00951129)
(-0.000186733 0 -0.00912338)
(-0.000140132 0 -0.0103317)
(-0.000184227 0 -0.00992447)
(-0.000137641 0 -0.0111928)
(-0.000181545 0 -0.0107653)
(-0.000134981 0 -0.0120967)
(-0.000178678 0 -0.0116479)
(-0.000132142 0 -0.0130453)
(-0.000175615 0 -0.0125742)
(-0.000129113 0 -0.0140411)
(-0.000172345 0 -0.0135465)
(-0.000125882 0 -0.0150863)
(-0.000168853 0 -0.0145671)
(-0.000122438 0 -0.0161834)
(-0.000165126 0 -0.0156383)
(-0.000118768 0 -0.0173352)
(-0.000161149 0 -0.0167628)
(-0.000114865 0 -0.0185443)
(-0.000156908 0 -0.0179432)
(-0.00011072 0 -0.0198137)
(-0.00015239 0 -0.0191825)
(-0.000106323 0 -0.0211464)
(-0.000147595 0 -0.0204837)
(-0.000101638 0 -0.0225445)
(-0.000142482 0 -0.0218497)
(-9.55278e-05 0 -0.0242506)
(-0.000136379 0 -0.0234035)
(-8.94582e-05 0 -0.0259486)
(-0.000129475 0 -0.0251057)
(-8.33993e-05 0 -0.0276386)
(-0.000122577 0 -0.0267998)
(-7.73311e-05 0 -0.0293199)
(-0.000115647 0 -0.0284859)
(-7.12509e-05 0 -0.0309907)
(-0.000108658 0 -0.0301626)
(-6.51705e-05 0 -0.0326486)
(-0.000101619 0 -0.0318279)
(-5.9113e-05 0 -0.0342906)
(-9.45448e-05 0 -0.0334788)
(-5.31082e-05 0 -0.0359131)
(-8.74594e-05 0 -0.035112)
(-4.71915e-05 0 -0.0375121)
(-8.03935e-05 0 -0.036724)
(-4.14025e-05 0 -0.0390834)
(-7.33836e-05 0 -0.0383103)
(-3.57845e-05 0 -0.0406219)
(-6.64701e-05 0 -0.0398665)
(-3.0384e-05 0 -0.0421226)
(-5.96965e-05 0 -0.0413876)
(-2.52487e-05 0 -0.0435798)
(-5.31086e-05 0 -0.042868)
(-2.04258e-05 0 -0.0449874)
(-4.67545e-05 0 -0.0443019)
(-1.59612e-05 0 -0.0463388)
(-4.0681e-05 0 -0.0456831)
(-1.18976e-05 0 -0.0476274)
(-3.4931e-05 0 -0.0470049)
(-8.27159e-06 0 -0.048846)
(-2.95382e-05 0 -0.0482602)
(-5.11082e-06 0 -0.0499872)
(-2.45326e-05 0 -0.0494419)
(-2.45001e-06 0 -0.0510431)
(-2.00354e-05 0 -0.0505424)
(-1.59005e-05 0 -0.0515536)
(-0.000261004 0 -0.000500141)
(-0.000318711 0 -0.000333484)
(-0.000258967 0 -0.000832971)
(-0.000315297 0 -0.000680119)
(-0.000256752 0 -0.0011641)
(-0.000313753 0 -0.00100013)
(-0.000254681 0 -0.00151966)
(-0.000311564 0 -0.001343)
(-0.000252865 0 -0.00190149)
(-0.000309483 0 -0.00171121)
(-0.000251271 0 -0.00231057)
(-0.000307679 0 -0.00210652)
(-0.000249807 0 -0.00274718)
(-0.000306062 0 -0.00252948)
(-0.000248378 0 -0.00321143)
(-0.000304519 0 -0.00298016)
(-0.00024692 0 -0.00370357)
(-0.000302965 0 -0.00345863)
(-0.000245394 0 -0.0042241)
(-0.00030135 0 -0.00396526)
(-0.000243774 0 -0.00477368)
(-0.000299643 0 -0.00450061)
(-0.000242043 0 -0.00535307)
(-0.000297822 0 -0.0050654)
(-0.000240184 0 -0.00596316)
(-0.000295873 0 -0.00566045)
(-0.000238184 0 -0.00660495)
(-0.000293779 0 -0.00628669)
(-0.000236032 0 -0.00727959)
(-0.000291526 0 -0.0069452)
(-0.000233717 0 -0.00798837)
(-0.000289105 0 -0.0076372)
(-0.000231231 0 -0.00873272)
(-0.000286504 0 -0.00836404)
(-0.000228565 0 -0.0095142)
(-0.000283712 0 -0.00912722)
(-0.00022571 0 -0.0103345)
(-0.000280722 0 -0.00992841)
(-0.000222656 0 -0.0111956)
(-0.00027752 0 -0.0107694)
(-0.000219392 0 -0.0120993)
(-0.000274096 0 -0.011652)
(-0.000215904 0 -0.0130479)
(-0.000270433 0 -0.0125784)
(-0.000212177 0 -0.0140435)
(-0.000266518 0 -0.0135508)
(-0.000208195 0 -0.0150885)
(-0.000262332 0 -0.0145714)
(-0.000203942 0 -0.0161855)
(-0.000257856 0 -0.0156427)
(-0.000199402 0 -0.017337)
(-0.00025307 0 -0.0167673)
(-0.000194558 0 -0.0185459)
(-0.000247955 0 -0.0179478)
(-0.000189395 0 -0.019815)
(-0.000242487 0 -0.0191871)
(-0.000183874 0 -0.0211476)
(-0.000236643 0 -0.0204884)
(-0.00017791 0 -0.0225453)
(-0.000230376 0 -0.0218546)
(-0.00017033 0 -0.024251)
(-0.000222928 0 -0.0234086)
(-0.000162625 0 -0.0259488)
(-0.000214476 0 -0.0251108)
(-0.000154852 0 -0.0276385)
(-0.000205929 0 -0.026805)
(-0.000147 0 -0.0293196)
(-0.000197247 0 -0.0284912)
(-0.000139055 0 -0.0309902)
(-0.000188413 0 -0.030168)
(-0.000131023 0 -0.0326479)
(-0.000179425 0 -0.0318332)
(-0.000122921 0 -0.0342896)
(-0.00017029 0 -0.0334842)
(-0.000114775 0 -0.0359118)
(-0.000161023 0 -0.0351175)
(-0.000106616 0 -0.0375105)
(-0.000151649 0 -0.0367294)
(-9.84799e-05 0 -0.0390814)
(-0.000142199 0 -0.0383157)
(-9.0409e-05 0 -0.0406197)
(-0.000132705 0 -0.0398719)
(-8.24472e-05 0 -0.04212)
(-0.000123206 0 -0.0413929)
(-7.46402e-05 0 -0.0435768)
(-0.000113743 0 -0.0428732)
(-6.70333e-05 0 -0.0449839)
(-0.000104359 0 -0.044307)
(-5.9671e-05 0 -0.046335)
(-9.50948e-05 0 -0.045688)
(-5.25929e-05 0 -0.0476231)
(-8.59888e-05 0 -0.0470096)
(-4.58364e-05 0 -0.0488412)
(-7.70693e-05 0 -0.0482647)
(-3.94274e-05 0 -0.049982)
(-6.83603e-05 0 -0.0494462)
(-3.33781e-05 0 -0.0510374)
(-5.99923e-05 0 -0.0505465)
(-5.17753e-05 0 -0.0515573)
(-0.000372941 0 -0.000505173)
(-0.000440573 0 -0.000337101)
(-0.000370958 0 -0.000839616)
(-0.000437189 0 -0.000686291)
(-0.000368654 0 -0.00117079)
(-0.000435775 0 -0.00100697)
(-0.00036639 0 -0.00152567)
(-0.000433522 0 -0.00134941)
(-0.000364344 0 -0.00190667)
(-0.000431302 0 -0.00171674)
(-0.000362517 0 -0.00231513)
(-0.000429324 0 -0.00211123)
(-0.000360819 0 -0.00275142)
(-0.000427518 0 -0.00253365)
(-0.000359151 0 -0.00321557)
(-0.000425776 0 -0.00298405)
(-0.000357442 0 -0.00370775)
(-0.00042401 0 -0.00346243)
(-0.000355649 0 -0.0042284)
(-0.000422167 0 -0.00396905)
(-0.000353744 0 -0.00477813)
(-0.000420214 0 -0.00450445)
(-0.000351709 0 -0.00535771)
(-0.00041813 0 -0.0050693)
(-0.000349527 0 -0.00596801)
(-0.000415897 0 -0.00566443)
(-0.000347183 0 -0.00661002)
(-0.000413499 0 -0.00629077)
(-0.000344665 0 -0.0072849)
(-0.000410922 0 -0.00694938)
(-0.00034196 0 -0.00799391)
(-0.000408152 0 -0.00764148)
(-0.000339058 0 -0.00873851)
(-0.000405178 0 -0.00836843)
(-0.000335947 0 -0.00952024)
(-0.000401986 0 -0.00913172)
(-0.000332614 0 -0.0103408)
(-0.000398564 0 -0.00993301)
(-0.000329048 0 -0.0112021)
(-0.000394898 0 -0.0107741)
(-0.000325232 0 -0.0121061)
(-0.000390973 0 -0.0116568)
(-0.000321149 0 -0.013055)
(-0.000386769 0 -0.0125833)
(-0.000316782 0 -0.0140508)
(-0.000382269 0 -0.0135558)
(-0.000312109 0 -0.0150962)
(-0.000377449 0 -0.0145765)
(-0.000307109 0 -0.0161934)
(-0.000372286 0 -0.0156479)
(-0.000301758 0 -0.0173453)
(-0.000366754 0 -0.0167726)
(-0.000296031 0 -0.0185544)
(-0.000360826 0 -0.0179532)
(-0.000289899 0 -0.0198239)
(-0.00035447 0 -0.0191926)
(-0.00028331 0 -0.0211568)
(-0.000347642 0 -0.020494)
(-0.000276165 0 -0.022555)
(-0.000340275 0 -0.0218604)
(-0.000267117 0 -0.0242612)
(-0.000331534 0 -0.0234146)
(-0.000257829 0 -0.0259594)
(-0.000321571 0 -0.025117)
(-0.000248363 0 -0.0276495)
(-0.000311384 0 -0.0268113)
(-0.000238701 0 -0.0293309)
(-0.000300939 0 -0.0284976)
(-0.000228827 0 -0.0310019)
(-0.000290216 0 -0.0301745)
(-0.000218738 0 -0.03266)
(-0.000279196 0 -0.03184)
(-0.00020844 0 -0.034302)
(-0.000267873 0 -0.033491)
(-0.000197949 0 -0.0359246)
(-0.000256251 0 -0.0351245)
(-0.000187285 0 -0.0375237)
(-0.00024434 0 -0.0367365)
(-0.000176477 0 -0.0390949)
(-0.000232158 0 -0.0383229)
(-0.000165556 0 -0.0406334)
(-0.000219727 0 -0.0398792)
(-0.000154558 0 -0.0421339)
(-0.000207071 0 -0.0414002)
(-0.000143519 0 -0.0435909)
(-0.000194219 0 -0.0428805)
(-0.000132478 0 -0.0449982)
(-0.000181202 0 -0.0443143)
(-0.000121469 0 -0.0463494)
(-0.000168051 0 -0.0456953)
(-0.000110523 0 -0.0476376)
(-0.00015479 0 -0.0470169)
(-9.9669e-05 0 -0.0488558)
(-0.000141439 0 -0.0482719)
(-8.89243e-05 0 -0.0499965)
(-0.000128012 0 -0.0494534)
(-7.82952e-05 0 -0.051052)
(-0.000114626 0 -0.0505536)
(-0.000101084 0 -0.0515643)
(-0.000504787 0 -0.00050989)
(-0.000582223 0 -0.000340365)
(-0.000502951 0 -0.000846023)
(-0.000578911 0 -0.000692006)
(-0.000500733 0 -0.00117747)
(-0.000577754 0 -0.00101356)
(-0.000498463 0 -0.00153179)
(-0.000575603 0 -0.00135583)
(-0.000496333 0 -0.00191198)
(-0.000573387 0 -0.00172248)
(-0.000494377 0 -0.00231979)
(-0.000571339 0 -0.00211626)
(-0.000492524 0 -0.00275569)
(-0.000569417 0 -0.00253818)
(-0.000490685 0 -0.00321968)
(-0.000567534 0 -0.00298834)
(-0.000488788 0 -0.00371184)
(-0.000565612 0 -0.00346665)
(-0.000486788 0 -0.00423255)
(-0.000563596 0 -0.00397328)
(-0.000484659 0 -0.00478238)
(-0.000561453 0 -0.00450874)
(-0.000482381 0 -0.00536208)
(-0.000559162 0 -0.00507368)
(-0.000479935 0 -0.00597252)
(-0.000556703 0 -0.00566891)
(-0.000477307 0 -0.0066147)
(-0.000554059 0 -0.00629536)
(-0.000474483 0 -0.00728975)
(-0.000551215 0 -0.00695409)
(-0.000471447 0 -0.00799895)
(-0.000548157 0 -0.00764631)
(-0.000468188 0 -0.00874373)
(-0.000544869 0 -0.00837337)
(-0.000464691 0 -0.00952566)
(-0.000541337 0 -0.00913679)
(-0.000460942 0 -0.0103465)
(-0.000537546 0 -0.00993819)
(-0.000456924 0 -0.011208)
(-0.000533478 0 -0.0107794)
(-0.000452618 0 -0.0121122)
(-0.000529114 0 -0.0116622)
(-0.000448005 0 -0.0130612)
(-0.000524434 0 -0.0125889)
(-0.00044306 0 -0.0140573)
(-0.000519413 0 -0.0135614)
(-0.000437759 0 -0.0151029)
(-0.000514025 0 -0.0145823)
(-0.000432075 0 -0.0162004)
(-0.000508243 0 -0.0156538)
(-0.000425977 0 -0.0173525)
(-0.000502032 0 -0.0167786)
(-0.000419431 0 -0.0185619)
(-0.000495358 0 -0.0179594)
(-0.000412397 0 -0.0198317)
(-0.000488182 0 -0.019199)
(-0.000404813 0 -0.021165)
(-0.000480445 0 -0.0205005)
(-0.000396572 0 -0.0225636)
(-0.000472055 0 -0.0218672)
(-0.000386039 0 -0.0242703)
(-0.000462063 0 -0.0234216)
(-0.000375174 0 -0.0259688)
(-0.000450597 0 -0.0251243)
(-0.000364009 0 -0.0276593)
(-0.000438776 0 -0.0268188)
(-0.000352509 0 -0.0293411)
(-0.00042656 0 -0.0285053)
(-0.000340644 0 -0.0310124)
(-0.000413907 0 -0.0301825)
(-0.000328394 0 -0.0326708)
(-0.000400779 0 -0.0318481)
(-0.000315752 0 -0.0343133)
(-0.00038715 0 -0.0334995)
(-0.000302715 0 -0.0359361)
(-0.000373005 0 -0.0351331)
(-0.000289289 0 -0.0375355)
(-0.000358337 0 -0.0367454)
(-0.000275485 0 -0.039107)
(-0.000343143 0 -0.0383321)
(-0.000261321 0 -0.0406458)
(-0.000327426 0 -0.0398886)
(-0.000246816 0 -0.0421467)
(-0.00031119 0 -0.0414098)
(-0.00023199 0 -0.0436039)
(-0.000294448 0 -0.0428904)
(-0.000216866 0 -0.0450114)
(-0.000277209 0 -0.0443244)
(-0.000201465 0 -0.0463627)
(-0.000259487 0 -0.0457056)
(-0.000185802 0 -0.0476511)
(-0.000241288 0 -0.0470273)
(-0.000169891 0 -0.0488695)
(-0.000222615 0 -0.0482826)
(-0.000153739 0 -0.0500103)
(-0.000203472 0 -0.0494641)
(-0.000137354 0 -0.0510659)
(-0.000183954 0 -0.0505645)
(-0.00016386 0 -0.0515753)
(-0.000656348 0 -0.000514082)
(-0.000743589 0 -0.000343183)
(-0.000654729 0 -0.000851865)
(-0.000740369 0 -0.000697043)
(-0.00065271 0 -0.00118376)
(-0.000739523 0 -0.00101955)
(-0.000650556 0 -0.00153779)
(-0.000737554 0 -0.00136192)
(-0.000648446 0 -0.00191738)
(-0.000735421 0 -0.00172817)
(-0.000646433 0 -0.00232462)
(-0.000733365 0 -0.00212142)
(-0.00064448 0 -0.00276016)
(-0.000731373 0 -0.00254296)
(-0.000642515 0 -0.00322398)
(-0.000729385 0 -0.00299292)
(-0.000640476 0 -0.00371611)
(-0.00072734 0 -0.00347117)
(-0.00063832 0 -0.00423684)
(-0.000725188 0 -0.00397784)
(-0.000636018 0 -0.00478673)
(-0.000722897 0 -0.00451337)
(-0.00063355 0 -0.00536651)
(-0.000720443 0 -0.00507842)
(-0.000630897 0 -0.00597705)
(-0.000717805 0 -0.00567377)
(-0.000628042 0 -0.00661933)
(-0.000714966 0 -0.00630035)
(-0.000624969 0 -0.00729448)
(-0.000711908 0 -0.00695921)
(-0.000621664 0 -0.00800379)
(-0.000708615 0 -0.00765157)
(-0.000618109 0 -0.00874868)
(-0.00070507 0 -0.00837877)
(-0.000614289 0 -0.00953072)
(-0.000701256 0 -0.00914233)
(-0.000610185 0 -0.0103516)
(-0.000697154 0 -0.00994387)
(-0.00060578 0 -0.0112132)
(-0.000692745 0 -0.0107852)
(-0.000601049 0 -0.0121176)
(-0.000688007 0 -0.0116682)
(-0.00059597 0 -0.0130667)
(-0.000682915 0 -0.012595)
(-0.000590516 0 -0.0140629)
(-0.000677442 0 -0.0135677)
(-0.000584657 0 -0.0151086)
(-0.000671557 0 -0.0145886)
(-0.00057836 0 -0.0162063)
(-0.000665226 0 -0.0156603)
(-0.000571587 0 -0.0173585)
(-0.00065841 0 -0.0167853)
(-0.000564295 0 -0.0185681)
(-0.000651064 0 -0.0179662)
(-0.000556433 0 -0.0198381)
(-0.00064314 0 -0.019206)
(-0.000547923 0 -0.0211716)
(-0.000634565 0 -0.0205078)
(-0.000538639 0 -0.0225705)
(-0.000625224 0 -0.0218748)
(-0.000526673 0 -0.0242775)
(-0.000614043 0 -0.0234296)
(-0.000514249 0 -0.0259763)
(-0.000601116 0 -0.0251326)
(-0.000501386 0 -0.0276669)
(-0.000587688 0 -0.0268274)
(-0.000488026 0 -0.029349)
(-0.000573703 0 -0.0285142)
(-0.000474116 0 -0.0310206)
(-0.000559092 0 -0.0301917)
(-0.000459614 0 -0.0326793)
(-0.000543792 0 -0.0318578)
(-0.00044449 0 -0.034322)
(-0.000527752 0 -0.0335095)
(-0.000428721 0 -0.0359452)
(-0.000510932 0 -0.0351436)
(-0.000412289 0 -0.0375449)
(-0.000493301 0 -0.0367564)
(-0.000395184 0 -0.0391167)
(-0.00047483 0 -0.0383435)
(-0.000377401 0 -0.0406558)
(-0.000455496 0 -0.0399004)
(-0.000358935 0 -0.0421569)
(-0.000435279 0 -0.0414221)
(-0.000339786 0 -0.0436144)
(-0.000414163 0 -0.0429032)
(-0.000319955 0 -0.0450222)
(-0.000392133 0 -0.0443376)
(-0.000299439 0 -0.0463739)
(-0.00036918 0 -0.0457193)
(-0.000278236 0 -0.0476626)
(-0.000345284 0 -0.0470414)
(-0.000256337 0 -0.0488812)
(-0.000320425 0 -0.0482972)
(-0.000233738 0 -0.0500223)
(-0.000294599 0 -0.0494792)
(-0.000210441 0 -0.0510781)
(-0.000267874 0 -0.05058)
(-0.000240024 0 -0.0515914)
(-0.000827646 0 -0.000517685)
(-0.000924674 0 -0.000345582)
(-0.000826245 0 -0.000857012)
(-0.000921513 0 -0.000701398)
(-0.000824445 0 -0.00118952)
(-0.000920954 0 -0.00102488)
(-0.000822445 0 -0.00154353)
(-0.000919166 0 -0.00136757)
(-0.000820395 0 -0.00192279)
(-0.000917134 0 -0.00173368)
(-0.00081836 0 -0.00232966)
(-0.000915093 0 -0.00212663)
(-0.000816333 0 -0.00276494)
(-0.000913051 0 -0.00254791)
(-0.000814266 0 -0.00322865)
(-0.000910978 0 -0.00299773)
(-0.000812111 0 -0.00372076)
(-0.000908831 0 -0.00347595)
(-0.000809828 0 -0.00424155)
(-0.000906568 0 -0.00398266)
(-0.000807388 0 -0.00479152)
(-0.000904156 0 -0.00451829)
(-0.000804768 0 -0.00537141)
(-0.000901571 0 -0.00508345)
(-0.000801948 0 -0.00598206)
(-0.00089879 0 -0.00567894)
(-0.000798911 0 -0.00662446)
(-0.000895795 0 -0.00630566)
(-0.000795638 0 -0.00729974)
(-0.000892565 0 -0.00696468)
(-0.000792111 0 -0.00800917)
(-0.000889083 0 -0.00765719)
(-0.000788314 0 -0.00875418)
(-0.000885329 0 -0.00838455)
(-0.000784225 0 -0.00953634)
(-0.000881284 0 -0.00914826)
(-0.000779826 0 -0.0103574)
(-0.000876927 0 -0.00994995)
(-0.000775094 0 -0.0112191)
(-0.000872235 0 -0.0107914)
(-0.000770003 0 -0.0121235)
(-0.000867184 0 -0.0116746)
(-0.000764526 0 -0.0130728)
(-0.000861745 0 -0.0126015)
(-0.000758632 0 -0.0140691)
(-0.000855887 0 -0.0135744)
(-0.000752287 0 -0.015115)
(-0.000849576 0 -0.0145955)
(-0.000745451 0 -0.0162127)
(-0.000842772 0 -0.0156674)
(-0.000738078 0 -0.0173651)
(-0.000835428 0 -0.0167926)
(-0.000730116 0 -0.0185749)
(-0.000827489 0 -0.0179738)
(-0.000721498 0 -0.019845)
(-0.000818893 0 -0.0192138)
(-0.000712129 0 -0.0211788)
(-0.000809552 0 -0.0205159)
(-0.000701856 0 -0.022578)
(-0.00079933 0 -0.0218832)
(-0.000688545 0 -0.0242854)
(-0.00078704 0 -0.0234385)
(-0.000674616 0 -0.0259844)
(-0.000772726 0 -0.0251419)
(-0.000660077 0 -0.0276754)
(-0.000757741 0 -0.0268371)
(-0.000644851 0 -0.0293578)
(-0.000742005 0 -0.0285244)
(-0.000628857 0 -0.0310298)
(-0.000725423 0 -0.0302024)
(-0.000612026 0 -0.0326889)
(-0.000707901 0 -0.031869)
(-0.000594299 0 -0.0343321)
(-0.000689361 0 -0.0335213)
(-0.000575626 0 -0.0359558)
(-0.000669732 0 -0.0351561)
(-0.000555962 0 -0.037556)
(-0.000648949 0 -0.0367694)
(-0.000535267 0 -0.0391283)
(-0.000626954 0 -0.0383573)
(-0.000513506 0 -0.0406679)
(-0.000603691 0 -0.0399149)
(-0.000490647 0 -0.0421696)
(-0.000579108 0 -0.0414374)
(-0.00046666 0 -0.0436276)
(-0.000553156 0 -0.0429192)
(-0.000441517 0 -0.045036)
(-0.00052579 0 -0.0443544)
(-0.000415189 0 -0.0463882)
(-0.000496968 0 -0.0457368)
(-0.000387649 0 -0.0476775)
(-0.000466642 0 -0.0470598)
(-0.000358864 0 -0.0488967)
(-0.000434765 0 -0.0483164)
(-0.000328809 0 -0.0500384)
(-0.000401316 0 -0.0494992)
(-0.000297473 0 -0.0510948)
(-0.000366334 0 -0.0506009)
(-0.000329557 0 -0.0516131)
(-0.0010186 0 -0.000520791)
(-0.00112533 0 -0.000347674)
(-0.00101737 0 -0.000861534)
(-0.00112218 0 -0.000705228)
(-0.00101575 0 -0.00119474)
(-0.00112184 0 -0.00102968)
(-0.00101388 0 -0.00154896)
(-0.00112019 0 -0.00137284)
(-0.00101189 0 -0.00192812)
(-0.00111823 0 -0.00173903)
(-0.00100984 0 -0.0023348)
(-0.0011162 0 -0.00213186)
(-0.00100775 0 -0.00276992)
(-0.00111412 0 -0.00255299)
(-0.0010056 0 -0.00323357)
(-0.00111198 0 -0.00300272)
(-0.00100335 0 -0.0037257)
(-0.00110974 0 -0.00348093)
(-0.00100096 0 -0.00424656)
(-0.00110738 0 -0.00398771)
(-0.000998407 0 -0.00479666)
(-0.00110487 0 -0.00452343)
(-0.000995666 0 -0.00537668)
(-0.00110218 0 -0.00508873)
(-0.000992714 0 -0.00598748)
(-0.00109929 0 -0.00568436)
(-0.000989531 0 -0.00663004)
(-0.00109617 0 -0.00631124)
(-0.000986098 0 -0.00730548)
(-0.00109281 0 -0.00697043)
(-0.000982395 0 -0.00801507)
(-0.00108918 0 -0.00766311)
(-0.000978401 0 -0.00876024)
(-0.00108526 0 -0.00839063)
(-0.000974096 0 -0.00954256)
(-0.00108103 0 -0.00915451)
(-0.000969455 0 -0.0103637)
(-0.00107647 0 -0.00995637)
(-0.000964453 0 -0.0112256)
(-0.00107155 0 -0.010798)
(-0.000959064 0 -0.0121302)
(-0.00106625 0 -0.0116813)
(-0.000953255 0 -0.0130797)
(-0.00106053 0 -0.0126085)
(-0.000946991 0 -0.0140762)
(-0.00105435 0 -0.0135815)
(-0.000940234 0 -0.0151222)
(-0.00104769 0 -0.0146029)
(-0.000932937 0 -0.0162202)
(-0.00104049 0 -0.015675)
(-0.000925045 0 -0.0173728)
(-0.0010327 0 -0.0168004)
(-0.000916492 0 -0.0185828)
(-0.00102425 0 -0.0179818)
(-0.000907196 0 -0.0198532)
(-0.00101507 0 -0.0192222)
(-0.000897044 0 -0.0211873)
(-0.00100505 0 -0.0205246)
(-0.000885856 0 -0.0225869)
(-0.000994021 0 -0.0218923)
(-0.00087129 0 -0.0242948)
(-0.00098071 0 -0.0234483)
(-0.000855925 0 -0.0259943)
(-0.000965094 0 -0.0251522)
(-0.000839752 0 -0.0276858)
(-0.000948616 0 -0.0268479)
(-0.000822671 0 -0.0293687)
(-0.000931164 0 -0.0285358)
(-0.00080457 0 -0.0310413)
(-0.000912615 0 -0.0302145)
(-0.000785349 0 -0.0327011)
(-0.000892841 0 -0.0318818)
(-0.000764916 0 -0.034345)
(-0.00087173 0 -0.0335349)
(-0.000743188 0 -0.0359694)
(-0.000849174 0 -0.0351705)
(-0.000720083 0 -0.0375704)
(-0.000825072 0 -0.0367848)
(-0.000695528 0 -0.0391435)
(-0.000799327 0 -0.0383736)
(-0.000669452 0 -0.040684)
(-0.000771844 0 -0.0399323)
(-0.000641787 0 -0.0421866)
(-0.000742534 0 -0.0414558)
(-0.000612468 0 -0.0436456)
(-0.000711307 0 -0.0429387)
(-0.000581434 0 -0.0450549)
(-0.000678082 0 -0.0443751)
(-0.000548622 0 -0.0464081)
(-0.000642781 0 -0.0457587)
(-0.000513975 0 -0.0476984)
(-0.000605318 0 -0.0470829)
(-0.00047743 0 -0.0489186)
(-0.000565614 0 -0.0483407)
(-0.000438936 0 -0.0500614)
(-0.000523627 0 -0.0495249)
(-0.000398462 0 -0.0511189)
(-0.000479368 0 -0.0506279)
(-0.000432526 0 -0.0516414)
(-0.00122899 0 -0.000523566)
(-0.00134527 0 -0.000349582)
(-0.00122786 0 -0.000865625)
(-0.00134209 0 -0.000708729)
(-0.00122635 0 -0.00119958)
(-0.0013419 0 -0.00103415)
(-0.00122456 0 -0.00155415)
(-0.00134032 0 -0.00137786)
(-0.0012226 0 -0.00193338)
(-0.0013384 0 -0.00174427)
(-0.00122054 0 -0.00233999)
(-0.00133637 0 -0.00213713)
(-0.0012184 0 -0.00277504)
(-0.00133425 0 -0.0025582)
(-0.00121617 0 -0.00323866)
(-0.00133204 0 -0.00300788)
(-0.00121384 0 -0.00373082)
(-0.00132972 0 -0.0034861)
(-0.00121136 0 -0.00425177)
(-0.00132729 0 -0.00399293)
(-0.00120872 0 -0.00480198)
(-0.00132469 0 -0.00452876)
(-0.00120588 0 -0.00538216)
(-0.00132192 0 -0.00509419)
(-0.00120283 0 -0.00599312)
(-0.00131894 0 -0.00568998)
(-0.00119953 0 -0.00663585)
(-0.00131572 0 -0.00631703)
(-0.00119598 0 -0.00731147)
(-0.00131226 0 -0.00697638)
(-0.00119214 0 -0.00802124)
(-0.00130852 0 -0.00766924)
(-0.00118799 0 -0.0087666)
(-0.00130448 0 -0.00839695)
(-0.00118352 0 -0.0095491)
(-0.00130011 0 -0.009161)
(-0.00117869 0 -0.0103705)
(-0.0012954 0 -0.00996304)
(-0.00117348 0 -0.0112325)
(-0.00129031 0 -0.0108049)
(-0.00116785 0 -0.0121373)
(-0.00128482 0 -0.0116884)
(-0.00116178 0 -0.013087)
(-0.00127888 0 -0.0126157)
(-0.00115522 0 -0.0140837)
(-0.00127247 0 -0.013589)
(-0.00114813 0 -0.0151299)
(-0.00126554 0 -0.0146106)
(-0.00114046 0 -0.0162282)
(-0.00125803 0 -0.0156829)
(-0.00113213 0 -0.0173811)
(-0.00124988 0 -0.0168086)
(-0.00112307 0 -0.0185914)
(-0.00124101 0 -0.0179904)