/*--------------------------------*- C++ -*----------------------------------*\
  =========                 |
  \\      /  F ield         | OpenFOAM: The Open Source CFD Toolbox
   \\    /   O peration     | Website:  https://openfoam.org
    \\  /    A nd           | Version:  9
     \\/     M anipulation  |
\*---------------------------------------------------------------------------*/
FoamFile
{
    format      ascii;
    class       surfaceScalarField;
    location    "0.06";
    object      alphaPhi0.water;
}
// * * * * * * * * * * * * * * * * * * * * * * * * * * * * * * * * * * * * * //

dimensions      [0 3 -1 0 0 0 0];

internalField   nonuniform List<scalar> 
39700
(
0
0
0
0
0
0
0
0
0
0
0
0
4.94066e-324
2.47033e-323
3.45846e-323
2.2233e-322
3.11261e-322
2.0899e-321
2.90017e-321
2.02863e-320
2.79938e-320
2.05022e-319
2.81331e-319
2.15521e-318
2.94236e-318
2.3573e-317
3.20362e-317
2.6835e-316
3.63253e-316
3.18053e-315
4.29133e-315
3.92634e-314
5.28472e-314
5.05112e-313
6.78866e-313
6.77593e-312
9.104e-312
9.4857e-311
1.27587e-310
1.3871e-309
1.87085e-309
2.12128e-308
2.87457e-308
3.39749e-307
4.63604e-307
5.70815e-306
7.86271e-306
1.00783e-304
1.40496e-304
1.87328e-303
2.6494e-303
3.67119e-302
5.27847e-302
7.5929e-301
1.11131e-300
1.65719e-299
2.46971e-299
3.81096e-298
5.77692e-298
9.20261e-297
1.41889e-296
2.70929e-295
4.16555e-295
7.75057e-294
1.19606e-293
2.15896e-292
3.30778e-292
5.76044e-291
8.6006e-291
1.43786e-289
2.00941e-289
3.23556e-288
3.89974e-288
6.18142e-287
6.00318e-287
9.22121e-286
7.88496e-286
1.01054e-284
1.22004e-284
8.31969e-284
4.6838e-279
-8.33824e-280
-4.19623e-278
-3.73347e-278
9.76047e-278
3.32761e-276
1.02291e-275
2.52287e-274
1.67881e-273
2.7063e-272
4.58581e-271
1.19572e-270
-1.14951e-275
2.70886e-270
3.70743e-274
1.66227e-272
3.28176e-272
1.07544e-270
3.08195e-270
8.59174e-269
4.16128e-268
8.52007e-267
5.45681e-266
2.17523e-265
4.95674e-266
7.40934e-265
1.07101e-267
4.82891e-266
5.97738e-266
2.0556e-264
5.79578e-264
1.66076e-262
8.61012e-262
1.68257e-260
1.87206e-259
4.81731e-259
1.61429e-260
2.91879e-259
1.13683e-262
5.67008e-261
1.02566e-264
3.79026e-263
1.0447e-266
3.31836e-265
1.17684e-268
3.36281e-267
2.12635e-270
5.39602e-269
8.43101e-269
1.57444e-267
1.41912e-266
4.59146e-266
7.07487e-268
1.91667e-266
5.0005e-270
2.42266e-268
4.82957e-272
1.60577e-270
6.15169e-274
1.48591e-272
1.73389e-275
1.74248e-274
3.82487e-276
1.24131e-276
-2.72625e-282
3.70941e-277
1.74157e-282
6.25816e-281
1.98029e-283
3.63142e-282
2.20054e-284
3.15283e-283
2.52073e-285
3.19134e-284
2.61396e-286
3.08143e-285
2.50033e-287
2.8048e-286
2.30693e-288
2.48288e-287
2.12841e-289
2.20368e-288
2.01003e-290
2.00303e-289
1.96886e-291
1.88786e-290
2.01344e-292
1.85661e-291
2.15544e-293
1.91016e-292
2.41712e-294
2.05737e-293
2.83869e-295
2.31926e-294
3.48918e-296
2.73486e-295
4.48541e-297
3.37109e-296
6.02612e-298
4.34068e-297
8.45531e-299
5.83463e-298
1.23822e-299
8.18227e-299
1.89142e-300
1.19644e-299
3.01201e-301
1.82322e-300
4.99794e-302
2.89403e-301
8.63768e-303
4.78297e-302
1.55421e-303
8.22727e-303
2.91046e-304
1.47234e-303
5.66282e-305
2.73653e-304
5.12198e-305
0
0
0
0
0
0
0
0
0
9.88131e-324
1.97626e-323
1.03754e-322
1.4822e-322
8.94259e-322
1.2401e-321
7.92481e-321
1.09337e-320
7.3181e-320
1.0032e-319
7.02418e-319
9.56926e-319
7.00862e-318
9.4925e-318
7.27074e-317
9.79454e-317
7.84369e-316
1.05147e-315
8.80148e-315
1.17475e-314
1.02754e-313
1.3664e-313
1.24849e-312
1.65529e-312
1.57936e-311
2.08958e-311
2.08109e-310
2.75045e-310
2.85804e-309
3.77787e-309
4.09382e-308
5.42003e-308
6.12147e-307
8.13128e-307
9.56554e-306
1.27727e-305
1.56393e-304
2.10371e-304
2.67882e-303
3.6382e-303
4.8133e-302
6.61484e-302
9.08178e-301
1.26543e-300
1.80038e-299
2.54732e-299
3.74881e-298
5.39063e-298
8.1867e-297
1.19635e-296
1.86927e-295
2.78194e-295
5.18484e-294
7.71287e-294
1.39249e-292
2.09084e-292
3.63698e-291
5.46041e-291
9.09936e-290
1.33941e-289
2.13236e-288
2.94576e-288
4.51135e-287
5.48771e-287
8.10805e-286
8.90625e-286
1.15291e-284
1.41659e-284
1.31418e-283
3.38524e-283
1.75008e-282
1.66991e-278
1.72565e-278
-5.84984e-278
1.8287e-277
1.30641e-277
4.42772e-276
1.25168e-275
2.36365e-274
1.60153e-273
1.87779e-272
8.31323e-271
3.46686e-270
-6.26401e-274
8.79151e-270
5.97014e-274
4.02054e-272
5.36771e-272
1.68307e-270
4.36809e-270
9.34749e-269
4.56845e-268
6.59308e-267
1.37091e-265
8.05619e-265
-9.58545e-268
2.68469e-264
1.24192e-267
8.65063e-266
9.70564e-266
3.27553e-264
7.89489e-264
1.78204e-262
8.92931e-262
1.24344e-260
4.63945e-259
1.41205e-258
-2.8796e-263
9.13673e-259
1.46646e-263
1.96225e-261
3.69257e-265
1.74092e-263
7.02618e-267
2.25504e-265
1.34433e-268
3.31922e-267
3.81148e-270
7.21732e-269
9.36137e-269
1.23614e-267
3.06045e-266
1.31642e-265
-1.43685e-270
5.35859e-266
6.38177e-271
8.14761e-269
1.89167e-272
7.1286e-271
4.96109e-274
1.02346e-272
2.33184e-275
1.83036e-274
6.58833e-276
2.28983e-275
-9.41365e-281
2.01566e-276
-2.7329e-283
1.06458e-279
1.35406e-282
3.86855e-281
2.1735e-283
3.65129e-282
2.74437e-284
3.73028e-283
3.25728e-285
3.98171e-284
3.63266e-286
4.16006e-285
3.86323e-287
4.21171e-286
4.02362e-288
4.20146e-287
4.19949e-289
4.20884e-288
4.46311e-290
4.2954e-289
4.87896e-291
4.50859e-290
5.51904e-292
4.89519e-291
6.48203e-293
5.51597e-292
7.91867e-294
6.46213e-293
1.0071e-294
7.87812e-294
1.33393e-295
9.99846e-295
1.84019e-296
1.32114e-295
2.64373e-297
1.81735e-296
3.95466e-298
2.60211e-297
6.15787e-299
3.87712e-298
9.97839e-300
6.01001e-299
1.6822e-300
9.68959e-300
2.94966e-301
1.62438e-300
5.37834e-302
2.8309e-301
1.01956e-302
5.12746e-302
2.00641e-303
9.63666e-303
1.82243e-303
0
0
0
0
0
4.94066e-324
4.94066e-324
2.96439e-323
4.44659e-323
2.37152e-322
3.31024e-322
1.92192e-321
2.65807e-321
1.62597e-320
2.23021e-320
1.42859e-319
1.94533e-319
1.30387e-318
1.76345e-318
1.23642e-317
1.66142e-317
1.2183e-316
1.62712e-316
1.24755e-315
1.65673e-315
1.32782e-314
1.75415e-314
1.46919e-313
1.93177e-313
1.69024e-312
2.21326e-312
2.02235e-311
2.63899e-311
2.5172e-310
3.27596e-310
3.26049e-309
4.23589e-309
4.39683e-308
5.70841e-308
6.17618e-307
8.02358e-307
9.04297e-306
1.17728e-305
1.38119e-304
1.80505e-304
2.20263e-303
2.89513e-303
3.67105e-302
4.86283e-302
6.40031e-301
8.56179e-301
1.16812e-299
1.58109e-299
2.23244e-298
3.06246e-298
4.46577e-297
6.21633e-297
9.33711e-296
1.31957e-295
2.03479e-294
2.92958e-294
5.37317e-293
7.736e-293
1.37051e-291
1.99568e-291
3.39792e-290
4.95784e-290
8.07469e-289
1.15804e-288
1.80074e-287
2.44101e-287
3.64315e-286
4.44988e-286
6.3456e-285
7.40669e-285
9.04629e-284
1.28493e-283
1.14679e-282
4.31253e-282
2.11358e-281
4.90328e-278
8.74305e-278
-3.06947e-278
8.30972e-277
1.59466e-277
4.58473e-276
1.02542e-275
1.74949e-274
9.80403e-274
1.0441e-272
1.17207e-270
6.66086e-270
-1.18605e-273
1.89005e-269
9.85274e-274
6.65738e-272
6.93906e-272
2.02611e-270
4.40488e-270
8.30689e-269
3.58437e-268
4.51384e-267
2.53681e-265
1.94188e-264
-2.93469e-267
6.36945e-264
2.01864e-267
1.71703e-265
1.31541e-265
4.41014e-264
7.7738e-264
1.64399e-262
6.18742e-262
7.82455e-261
6.36804e-259
2.80569e-258
-1.64472e-263
1.81878e-258
2.32189e-265
6.67696e-262
9.63735e-266
5.79099e-264
3.14812e-267
1.02745e-265
9.05017e-269
2.05346e-267
3.54167e-270
6.04431e-269
6.89248e-269
8.14446e-268
4.33465e-266
2.55483e-265
-7.11739e-271
1.01142e-265
2.71695e-272
2.69051e-269
4.95716e-273
2.32686e-271
2.09806e-274
4.57204e-273
1.48446e-275
1.17941e-274
1.16546e-275
1.14279e-274
-1.10076e-279
8.39187e-276
-4.51407e-282
1.17236e-278
1.13552e-281
3.75796e-280
1.81002e-282
3.26129e-281
2.33429e-283
3.30233e-282
2.78791e-284
3.48276e-283
3.28814e-285
3.80574e-284
3.78834e-286
4.14689e-285
4.28065e-287
4.47058e-286
4.81062e-288
4.81059e-287
5.45177e-289
5.2271e-288
6.2967e-290
5.79046e-289
7.46611e-291
6.58467e-290
9.13169e-292
7.72172e-291
1.15557e-292
9.36564e-292
1.51582e-293
1.1771e-292
2.06348e-294
1.53476e-293
2.91703e-295
2.0774e-294
4.28381e-296
2.92021e-295
6.53638e-297
4.26388e-296
1.03629e-297
6.46717e-297
1.70701e-298
1.01889e-297
2.92127e-299
1.66726e-298
5.19326e-300
2.83337e-299
9.58976e-301
5.00013e-300
1.83924e-301
9.16171e-301
3.65872e-302
1.74038e-301
3.32451e-302
0
0
0
4.94066e-324
9.88131e-324
4.94066e-323
7.41098e-323
3.85371e-322
5.33591e-322
2.98416e-321
4.0958e-321
2.40264e-320
3.27318e-320
2.00946e-319
2.71706e-319
1.74537e-318
2.34271e-318
1.57442e-317
2.09844e-317
1.47508e-316
1.95291e-316
1.43555e-315
1.88854e-315
1.45132e-314
1.89793e-314
1.52439e-313
1.98247e-313
1.66367e-312
2.15266e-312
1.88681e-311
2.43036e-311
2.22407e-310
2.85358e-310
2.72528e-309
3.48547e-309
3.47232e-308
4.43037e-308
4.60157e-307
5.86302e-307
6.34509e-306
8.08254e-306
9.10803e-305
1.16148e-304
1.36182e-303
1.74121e-303
2.12232e-302
2.72544e-302
3.44996e-301
4.45804e-301
5.85363e-300
7.62602e-300
1.03721e-298
1.36492e-298
1.91962e-297
2.5561e-297
3.70922e-296
5.00493e-296
7.47344e-295
1.02281e-294
1.56638e-293
2.18336e-293
3.97328e-292
5.53589e-292
9.72721e-291
1.37159e-290
2.31788e-289
3.27714e-289
5.31076e-288
7.38936e-288
1.14881e-286
1.51762e-286
2.28028e-285
2.73953e-285
3.98792e-284
4.6977e-284
5.93589e-283
9.09945e-283
8.39546e-282
3.66826e-281
1.82963e-280
1.2584e-277
3.16399e-277
-3.18776e-279
2.50824e-276
2.1019e-277
5.34061e-276
9.13283e-276
1.47335e-274
6.20616e-274
6.5037e-273
1.5527e-270
1.08998e-269
-1.46927e-273
3.47244e-269
1.74486e-273
1.01961e-271
9.04144e-272
2.42866e-270
4.55849e-270
7.98739e-269
3.04334e-268
3.6633e-267
4.24316e-265
3.86505e-264
-6.00033e-267
1.26852e-263
3.92332e-267
3.49709e-265
2.01219e-265
6.75268e-264
9.00315e-264
1.89362e-262
4.89705e-262
6.23152e-261
6.96171e-259
4.76679e-258
-6.36349e-264
2.98506e-258
-7.00197e-267
2.23606e-262
2.65894e-266
1.88782e-264
1.23779e-267
4.13715e-266
4.82506e-269
1.06793e-267
2.63819e-270
4.39907e-269
4.71086e-269
5.48979e-268
5.66551e-266
4.28703e-265
-2.46399e-271
1.6252e-265
-2.28176e-274
8.77119e-270
1.20375e-273
7.39668e-272
7.91254e-275
1.87419e-273
1.5755e-275
1.36602e-274
2.65762e-275
4.23261e-274
-7.58595e-279
3.45464e-275
-1.27502e-281
1.00174e-277
1.09586e-280
3.03026e-279
1.50699e-281
2.55979e-280
1.81747e-282
2.50996e-281
2.09932e-283
2.58796e-282
2.4547e-284
2.81192e-283
2.90261e-285
3.1459e-284
3.42475e-286
3.54013e-285
4.03699e-287
3.99402e-286
4.79194e-288
4.54401e-287
5.7759e-289
5.25177e-288
7.11718e-290
6.20492e-289
9.00968e-291
7.5297e-290
1.17574e-291
9.41637e-291
1.58537e-292
1.21635e-291
2.21231e-293
1.6255e-292
3.19824e-294
2.24974e-293
4.79316e-295
3.22699e-294
7.45018e-296
4.7993e-295
1.20131e-296
7.40271e-296
2.00976e-297
1.1844e-296
3.48872e-298
1.96577e-297
6.28396e-299
3.38456e-298
1.17452e-299
6.04523e-299
2.27796e-300
1.12007e-299
4.57853e-301
2.14979e-300
4.14733e-301
0
9.88131e-324
1.4822e-323
6.91692e-323
9.88131e-323
5.03947e-322
6.96633e-322
3.74502e-321
5.10864e-321
2.87497e-320
3.8883e-320
2.29039e-319
3.07284e-319
1.8942e-318
2.52163e-318
1.62643e-317
2.14901e-317
1.45001e-316
1.90214e-316
1.34231e-315
1.74875e-315
1.29036e-314
1.67003e-314
1.28813e-313
1.6568e-313
1.33545e-312
1.70767e-312
1.43795e-311
1.82882e-311
1.60818e-310
2.03529e-310
1.86828e-309
2.35418e-309
2.25483e-308
2.83074e-308
2.8276e-307
3.53929e-307
3.68504e-306
4.60294e-306
4.99231e-305
6.22929e-305
7.03305e-304
8.77705e-304
1.03075e-302
1.28834e-302
1.57235e-301
1.97142e-301
2.49784e-300
3.14703e-300
4.13457e-299
5.24403e-299
7.13381e-298
9.12564e-298
1.28321e-296
1.65854e-296
2.40557e-295
3.14657e-295
4.69527e-294
6.22324e-294
9.52445e-293
1.28494e-292
2.33837e-291
3.15098e-291
5.54605e-290
7.56482e-290
1.28485e-288
1.75795e-288
2.88015e-287
3.88128e-287
6.15943e-286
7.91478e-286
1.22908e-284
1.45106e-284
2.22265e-283
2.62782e-283
3.55733e-282
5.70737e-282
5.53145e-281
2.29912e-280
1.21429e-279
3.00957e-277
1.01331e-276
8.26186e-278
6.71412e-276
2.99472e-277
7.14886e-276
9.88621e-276
1.56402e-274
5.09561e-274
5.49414e-273
2.02082e-270
1.6584e-269
-1.17912e-273
5.94855e-269
3.01487e-273
1.45075e-271
1.18937e-271
2.95822e-270
5.03889e-270
8.48636e-269
2.96916e-268
3.59725e-267
6.56437e-265
6.83047e-264
-8.84195e-267
2.30904e-263
7.96565e-267
6.57458e-265
3.2502e-265
1.09609e-263
1.23037e-263
2.65684e-262
5.12431e-262
6.94256e-261
7.45855e-259
7.41087e-258
-2.06771e-264
4.44808e-258
-3.10742e-267
7.51096e-263
8.43919e-267
6.44952e-265
5.11121e-268
1.75365e-266
2.798e-269
6.26191e-268
2.46107e-270
4.19202e-269
3.27197e-269
3.96626e-268
7.24838e-266
6.7153e-265
-7.53815e-272
2.37977e-265
-1.363e-274
2.9664e-270
3.88312e-274
2.94632e-272
5.2227e-275
1.29431e-273
4.58429e-275
4.31581e-274
8.89627e-275
1.39118e-273
-3.05579e-278
1.37385e-274
6.88558e-279
6.83641e-277
9.89078e-280
2.18825e-278
1.13753e-280
1.76299e-279
1.25737e-281
1.65118e-280
1.40095e-282
1.67176e-281
1.60324e-283
1.79292e-282
1.89749e-284
2.01584e-283
2.28317e-285
2.31824e-284
2.77093e-286
2.69568e-285
3.3973e-287
3.16955e-286
4.2294e-288
3.78475e-287
5.3746e-289
4.61238e-288
7.00191e-290
5.76075e-289
9.38237e-291
7.39778e-290
1.29621e-291
9.79106e-291
1.84948e-292
1.33789e-291
2.7288e-293
1.8898e-292
4.16689e-294
2.76185e-293
6.5892e-295
4.17874e-294
1.07947e-295
6.54838e-295
1.83256e-296
1.06313e-295
3.22448e-297
1.7885e-296
5.88129e-298
3.1181e-297
1.11211e-298
5.63428e-298
2.18032e-299
1.05523e-298
4.42633e-300
2.04576e-299
3.98552e-300
1.97626e-323
8.39912e-323
1.18576e-322
5.78057e-322
7.90505e-322
4.0711e-321
5.50389e-321
2.97576e-320
3.98958e-320
2.25773e-319
3.00219e-319
1.77815e-318
2.34549e-318
1.45375e-317
1.90261e-317
1.23382e-316
1.60254e-316
1.08708e-315
1.4016e-315
9.94326e-315
1.27296e-314
9.4419e-314
1.20059e-313
9.30803e-313
1.17593e-312
9.52639e-312
1.19617e-311
1.01223e-310
1.26372e-310
1.11665e-309
1.38673e-309
1.27896e-308
1.58071e-308
1.52099e-307
1.87193e-307
1.87824e-306
2.30344e-306
2.40871e-305
2.94589e-305
3.20851e-304
3.91688e-304
4.44022e-303
5.4165e-303
6.3859e-302
7.79398e-302
9.54812e-301
1.16762e-300
1.48483e-299
1.82223e-299
2.40264e-298
2.96421e-298
4.04678e-297
5.02821e-297
7.09618e-296
8.89627e-296
1.29533e-294
1.6414e-294
2.46001e-293
3.15574e-293
4.85551e-292
6.33548e-292
1.16137e-290
1.51287e-290
2.69112e-289
3.55106e-289
6.12769e-288
8.1259e-288
1.36352e-286
1.78736e-286
2.93995e-285
3.70328e-285
6.05189e-284
7.17382e-284
1.16643e-282
1.41431e-282
2.07436e-281
3.48169e-281
3.56657e-280
1.29333e-279
7.38982e-279
6.75986e-277
3.03588e-276
2.5681e-277
1.73657e-275
4.358e-277
1.01901e-275
1.17452e-275
1.87305e-274
5.08745e-274
5.75836e-273
2.60889e-270
2.434e-269
-2.66567e-274
9.72945e-269
4.78899e-273
1.89056e-271
1.51962e-271
3.53608e-270
5.6287e-270
9.32629e-269
3.04914e-268
3.79977e-267
9.83713e-265
1.12447e-263
-9.39731e-267
3.95007e-263
1.68718e-266
1.18285e-264
6.58169e-265
2.21733e-263
3.43737e-263
7.74773e-262
3.60777e-261
5.34153e-260
7.61136e-259
1.07944e-257
-7.08556e-265
6.27378e-258
-1.15731e-267
2.96273e-263
4.41257e-267
3.32981e-265
3.67017e-268
1.28978e-266
3.13716e-269
7.27827e-268
4.09226e-270
7.37435e-269
2.38452e-269
3.09546e-268
8.98876e-266
1.01367e-264
-3.13713e-272
3.30832e-265
-1.20684e-274
1.4885e-270
3.58012e-274
2.9909e-272
9.86308e-275
2.46964e-273
1.68029e-274
1.65477e-273
3.17289e-274
4.19063e-273
-4.61171e-278
5.12423e-274
1.05386e-277
4.00042e-276
8.20835e-279
1.52243e-277
7.62191e-280
1.09254e-278
7.62923e-281
9.5599e-280
8.19855e-282
9.46378e-281
9.22553e-283
1.00474e-281
1.0883e-283
1.13004e-282
1.32384e-284
1.31632e-283
1.63862e-285
1.5629e-284
2.05747e-286
1.88327e-285
2.62669e-287
2.30712e-286
3.42242e-288
2.88362e-287
4.56727e-289
3.68998e-288
6.26099e-290
4.84829e-289
8.83638e-291
6.55574e-290
1.28615e-291
9.13855e-291
1.93308e-292
1.31499e-291
3.00301e-293
1.95516e-292
4.82517e-294
3.00586e-293
8.02297e-295
4.78085e-294
1.38096e-295
7.86964e-295
2.46131e-296
1.34102e-295
4.54341e-297
2.36612e-296
8.68779e-298
4.32349e-297
1.7211e-298
8.18222e-298
3.52823e-299
1.60183e-298
3.15139e-299
1.23516e-322
5.82997e-322
8.05327e-322
3.99205e-321
5.34579e-321
2.77961e-320
3.68869e-320
2.00788e-319
2.64246e-319
1.50564e-318
1.96529e-318
1.17199e-317
1.51753e-317
9.46994e-317
1.21658e-316
7.94291e-316
1.0126e-315
6.91533e-315
8.75038e-315
6.24937e-314
7.8507e-314
5.86189e-313
7.31269e-313
5.70694e-312
7.07183e-312
5.76661e-311
7.10023e-311
6.04751e-310
7.4012e-310
6.58204e-309
8.00994e-309
7.43472e-308
9.00055e-308
8.71537e-307
1.05014e-306
1.06031e-305
1.27236e-305
1.33882e-304
1.6011e-304
1.75466e-303
2.093e-303
2.38734e-302
2.84306e-302
3.37267e-301
4.01454e-301
4.94878e-300
5.89547e-300
7.54468e-299
9.00876e-299
1.19556e-297
1.43323e-297
1.96999e-296
2.37524e-296
3.37645e-295
4.10232e-295
6.02068e-294
7.3861e-294
1.11698e-292
1.38652e-292
2.15613e-291
2.72241e-291
5.05857e-290
6.38678e-290
1.15658e-288
1.48652e-288
2.62787e-287
3.43018e-287
5.94812e-286
7.83463e-286
1.34632e-284
1.76896e-284
3.05435e-283
4.00538e-283
6.94556e-282
1.0047e-281
1.58995e-280
3.50323e-280
3.80649e-279
1.8573e-278
1.17141e-277
1.45122e-276
8.96116e-276
5.04235e-277
4.40608e-275
6.84784e-277
1.62192e-275
1.38578e-275
2.26987e-274
5.25884e-274
6.29385e-273
3.35299e-270
3.52086e-269
1.91113e-270
1.5408e-268
2.82436e-272
9.38066e-271
1.8555e-271
4.08348e-270
6.15329e-270
1.01424e-268
3.1002e-268
3.98985e-267
1.44944e-264
1.76994e-263
-4.5754e-267
6.50235e-263
3.60187e-266
2.10373e-264
1.49634e-264
4.98176e-263
9.44286e-263
2.22084e-261
1.02237e-260
1.65529e-259
7.75192e-259
1.50796e-257
-4.8401e-265
8.54775e-258
-2.47806e-268
2.54715e-263
6.54969e-267
4.59071e-265
6.36624e-268
2.27773e-266
6.51991e-269
1.59396e-267
1.18142e-269
2.30469e-268
4.11278e-268
5.80999e-267
1.10184e-265
1.48977e-264
-3.46155e-272
4.49853e-265
-1.28758e-274
2.09186e-270
7.99679e-274
6.46759e-272
2.70523e-274
6.68618e-273
6.11441e-274
6.17161e-273
1.03825e-273
1.19914e-272
4.04434e-275
1.80972e-273
1.33626e-276
3.24945e-275
6.621e-278
1.08233e-276
4.70983e-279
6.36439e-278
4.18433e-280
5.05558e-279
4.28169e-281
4.8097e-280
4.7416e-282
5.04499e-281
5.58566e-283
5.67615e-282
6.85331e-284
6.67534e-283
8.61242e-285
8.05093e-284
1.10186e-285
9.88781e-285
1.43561e-286
1.23645e-285
1.90973e-287
1.578e-286
2.60118e-288
2.06112e-287
3.63688e-289
2.76224e-288
5.23041e-290
3.80615e-289
7.74983e-291
5.4012e-290
1.18452e-291
7.90377e-291
1.86939e-292
1.19385e-291
3.04849e-293
1.8628e-292
5.13969e-294
3.00424e-293
8.96265e-295
5.01001e-294
1.61706e-295
8.64215e-295
3.01938e-296
1.54241e-295
5.83601e-297
2.84883e-296
1.16787e-297
5.44614e-297
2.417e-298
1.0764e-297
2.13855e-298
7.46039e-322
3.56715e-321
4.82702e-321
2.41746e-320
3.16993e-320
1.66169e-319
2.1602e-319
1.18553e-318
1.52867e-318
8.78156e-318
1.12323e-317
6.75315e-317
8.56918e-317
5.39116e-316
6.78746e-316
4.46756e-315
5.5815e-315
3.84274e-314
4.76485e-314
3.43054e-313
4.2226e-313
3.17837e-312
3.88439e-312
3.05587e-311
3.70898e-311
3.04875e-310
3.67586e-310
3.15598e-309
3.7811e-309
3.38955e-308
4.03662e-308
3.77674e-307
4.47253e-307
4.36551e-306
5.14309e-306
5.23456e-305
6.13827e-305
6.51097e-304
7.60423e-304
8.40126e-303
9.77941e-303
1.12464e-301
1.30591e-301
1.56211e-300
1.81129e-300
2.2519e-299
2.61048e-299
3.37022e-298
3.91139e-298
5.23865e-297
6.09661e-297
8.46151e-296
9.8925e-296
1.42099e-294
1.67246e-294
2.48287e-293
2.94922e-293
4.5181e-292
5.43307e-292
8.57664e-291
1.05119e-290
1.98959e-289
2.45227e-289
4.54483e-288
5.76966e-288
1.05056e-286
1.38244e-286
2.48887e-285
3.40183e-285
6.1251e-284
8.61391e-284
1.57191e-282
2.2584e-282
4.14786e-281
6.53149e-281
1.09872e-279
2.49415e-279
2.89182e-278
1.17391e-277
8.42867e-277
3.0308e-276
2.67181e-275
6.78359e-277
1.15335e-274
1.9546e-276
4.81679e-275
6.56608e-275
1.12077e-273
9.29748e-273
1.18142e-271
4.3162e-270
5.0605e-269
5.79328e-270
2.38263e-268
1.06961e-271
3.08637e-270
2.18243e-271
4.58243e-270
6.56334e-270
1.08092e-268
3.07657e-268
4.08386e-267
2.10827e-264
2.70482e-263
8.03742e-265
1.04059e-262
8.00601e-266
3.95331e-264
3.24436e-264
1.05487e-262
2.0845e-262
5.05685e-261
1.97413e-260
3.44731e-259
8.58268e-259
2.04425e-257
-6.73375e-265
1.13977e-257
1.6223e-265
5.03891e-263
1.67882e-266
1.05856e-264
1.51049e-267
5.45382e-266
1.56074e-268
4.05759e-267
3.55493e-269
7.5857e-268
1.48084e-267
2.3094e-266
1.29161e-265
2.14917e-264
-5.8946e-272
6.11952e-265
5.37944e-273
4.82829e-270
2.18481e-273
1.52811e-271
7.85898e-274
1.8851e-272
2.13859e-273
2.20381e-272
3.12402e-273
3.32433e-272
2.82748e-274
5.89892e-273
1.02692e-275
1.93234e-274
4.44939e-277
6.65192e-276
2.64393e-278
3.4177e-277
2.10495e-279
2.47264e-278
2.04398e-280
2.24619e-279
2.22819e-281
2.32408e-280
2.62449e-282
2.61604e-281
3.24295e-283
3.09848e-282
4.12319e-284
3.78037e-283
5.35309e-285
4.71078e-284
7.08993e-286
5.98732e-285
9.59504e-287
7.77283e-286
1.32979e-287
1.03293e-286
1.89132e-288
1.40806e-287
2.76551e-289
1.97252e-288
4.16343e-290
2.84396e-289
6.46108e-291
4.22529e-290
1.03453e-291
6.47497e-291
1.71033e-292
1.02423e-291
2.92124e-293
1.67337e-292
5.157e-294
2.82501e-293
9.41295e-295
4.9299e-294
1.77698e-295
8.89562e-295
3.47046e-296
1.66015e-295
7.01333e-297
3.205e-296
1.46505e-297
6.39388e-297
1.28287e-297
4.06616e-321
1.96292e-320
2.59434e-320
1.31135e-319
1.68071e-319
8.89417e-319
1.13049e-318
6.26288e-318
7.89792e-318
4.57995e-317
5.73037e-317
3.47781e-316
4.31747e-316
2.7419e-315
3.37759e-315
2.24412e-314
2.74329e-314
1.90649e-313
2.31305e-313
1.681e-312
2.02442e-312
1.53813e-311
1.83899e-311
1.46037e-310
1.73373e-310
1.43854e-309
1.69616e-309
1.47002e-308
1.72188e-308
1.55819e-307
1.81365e-307
1.71301e-306
1.98195e-306
1.95302e-305
2.24697e-305
2.30897e-304
2.6428e-304
2.83055e-303
3.22478e-303
3.59795e-302
4.08268e-302
4.74228e-301
5.36377e-301
6.48208e-300
7.31462e-300
9.19029e-299
1.03582e-298
1.352e-297
1.52403e-297
2.06475e-296
2.3316e-296
3.27567e-295
3.71298e-295
5.40379e-294
6.16405e-294
9.28307e-293
1.06932e-292
1.66456e-291
1.94594e-291
3.12829e-290
3.74733e-290
7.24829e-289
8.82878e-289
1.67989e-287
2.14597e-287
4.03395e-286
5.46247e-286
1.02197e-284
1.4631e-284
2.75466e-283
4.0643e-283
7.78612e-282
1.15811e-281
2.2232e-280
3.52017e-280
6.16826e-279
1.29712e-278
1.6172e-277
4.90627e-277
4.14604e-276
6.88564e-276
8.44967e-275
1.16546e-277
3.3426e-274
8.08636e-276
2.14869e-274
2.52369e-274
4.53709e-273
3.12382e-272
4.21553e-271
5.67682e-270
7.27049e-269
1.22862e-269
3.6181e-268
2.97467e-271
7.41454e-270
3.21485e-271
6.46495e-270
1.73566e-269
2.86017e-268
3.07294e-267
4.19967e-266
3.03517e-264
4.04797e-263
2.91404e-264
1.62764e-262
1.77315e-265
7.57921e-264
6.45038e-264
2.0279e-262
3.94973e-262
9.72892e-261
3.22078e-260
5.94764e-259
1.04686e-258
2.70839e-257
-8.52917e-265
1.49737e-257
8.51121e-265
1.14534e-262
4.72672e-266
2.64985e-264
3.70874e-267
1.33531e-265
3.81201e-268
1.05944e-266
9.58415e-269
2.23002e-267
3.377e-267
5.86404e-266
1.44682e-265
3.07527e-264
-8.81407e-272
8.44977e-265
5.72716e-272
1.12198e-269
6.53326e-273
3.68399e-271
2.45056e-273
5.58855e-272
7.15271e-273
7.50931e-272
8.808e-273
9.03501e-272
1.15956e-273
1.8035e-272
5.14731e-275
8.2481e-274
2.31655e-276
3.24311e-275
1.30239e-277
1.62589e-276
9.74023e-279
1.11799e-277
9.10302e-280
9.81502e-279
9.81267e-281
1.00529e-279
1.15553e-281
1.13128e-280
1.43365e-282
1.34485e-281
1.83651e-283
1.65239e-282
2.40928e-284
2.07973e-283
3.23113e-285
2.67559e-284
4.43344e-286
3.52062e-285
6.23348e-287
4.74529e-286
8.99585e-288
6.56237e-287
1.33452e-288
9.32546e-288
2.03767e-289
1.3635e-288
3.20575e-290
2.05349e-289
5.20104e-291
3.18835e-290
8.708e-292
5.1073e-291
1.50542e-292
8.44536e-292
2.68847e-293
1.44227e-292
4.96157e-294
2.54473e-293
9.46544e-295
4.64018e-294
1.86721e-295
8.74679e-295
3.80952e-296
1.70478e-295
8.03099e-297
3.43225e-296
6.95483e-297
2.02073e-320
9.85661e-320
1.27034e-319
6.48896e-319
8.11315e-319
4.33904e-318
5.38222e-318
3.01341e-317
3.70979e-317
2.17413e-316
2.65632e-316
1.62925e-315
1.97552e-315
1.26791e-314
1.52575e-314
1.02449e-313
1.22355e-313
8.59347e-313
1.01866e-312
7.48173e-312
8.80327e-312
6.75981e-311
7.89599e-311
6.33718e-310
7.34948e-310
6.16335e-309
7.09801e-309
6.2177e-308
7.112e-308
6.50532e-307
7.39215e-307
7.05779e-306
7.96941e-306
7.93908e-305
8.91087e-305
9.25806e-304
1.0333e-303
1.11912e-302
1.24261e-302
1.40222e-301
1.54979e-301
1.82114e-300
2.00492e-300
2.4519e-299
2.69109e-299
3.42288e-298
3.74937e-298
4.95663e-297
5.42614e-297
7.45024e-296
8.16559e-296
1.16355e-294
1.27986e-294
1.89118e-293
2.09489e-293
3.20738e-292
3.59646e-292
5.70126e-291
6.52374e-291
1.07036e-289
1.26744e-289
2.5103e-288
3.07333e-288
6.01165e-287
7.87435e-287
1.52874e-285
2.15357e-285
4.18016e-284
6.21735e-284
1.21797e-282
1.83626e-282
3.65612e-281
5.4523e-281
1.0794e-279
1.67342e-279
3.01611e-278
5.71413e-278
7.71583e-277
1.73041e-276
1.77261e-275
1.6058e-275
2.87007e-274
-2.86654e-276
1.1126e-273
3.81669e-275
1.13006e-273
7.87016e-274
1.50266e-272
7.23459e-272
1.03004e-270
7.82862e-270
1.05214e-268
2.28207e-269
5.41789e-268
7.02628e-271
1.56012e-269
6.17784e-271
1.19352e-269
5.2673e-269
8.6881e-268
1.06347e-266
1.49372e-265
4.34876e-264
5.97245e-263
6.46666e-264
2.50226e-262
3.65036e-265
1.38152e-263
1.18982e-263
3.59903e-262
6.79814e-262
1.67687e-260
4.82946e-260
9.23569e-259
1.37578e-258
3.52329e-257
-3.78269e-265
1.94493e-257
2.84934e-264
2.41967e-262
1.28185e-265
6.37925e-264
9.20182e-267
3.24969e-265
9.90672e-268
2.86422e-266
2.42514e-268
6.04835e-267
6.24324e-267
1.20143e-265
1.6577e-265
4.39129e-264
-1.51385e-271
1.19509e-264
4.99335e-271
4.90764e-269
3.41313e-272
1.51397e-270
9.71772e-273
2.0596e-271
2.33239e-272
2.47321e-271
2.40734e-272
2.42855e-271
3.97343e-273
5.298e-272
2.11728e-274
3.03828e-273
1.03468e-275
1.37331e-274
5.88393e-277
7.12645e-276
4.28739e-278
4.81846e-277
3.91338e-279
4.14384e-278
4.16703e-280
4.19509e-279
4.87622e-281
4.69e-280
6.0362e-282
5.55973e-281
7.74694e-283
6.84005e-282
1.02201e-283
8.65281e-283
1.3822e-284
1.12208e-283
1.91614e-285
1.49119e-284
2.72511e-286
2.03241e-285
3.98046e-287
2.84409e-286
5.97812e-288
4.09087e-287
9.24113e-289
6.05461e-288
1.47165e-289
9.22895e-289
2.41622e-290
1.44995e-289
4.09255e-291
2.3495e-290
7.15491e-292
3.92868e-291
1.29168e-292
6.78203e-292
2.40882e-293
1.20913e-292
4.64184e-294
2.22699e-293
9.24565e-295
4.23859e-294
1.90389e-295
8.33811e-295
4.04988e-296
1.69387e-295
3.46646e-296
9.29436e-320
4.58686e-319
5.75335e-319
2.97321e-318
3.61962e-318
1.95842e-317
2.36643e-317
1.34038e-316
1.60811e-316
9.53425e-316
1.13562e-315
7.04654e-315
8.33195e-315
5.40993e-314
6.34993e-314
4.31354e-313
5.02586e-313
3.57114e-312
4.13032e-312
3.06912e-311
3.52375e-311
2.73756e-310
3.12028e-310
2.53376e-309
2.86728e-309
2.43295e-308
2.73375e-308
2.42315e-307
2.70388e-307
2.50279e-306
2.77387e-306
2.68031e-305
2.95116e-305
2.9757e-304
3.25579e-304
3.42429e-303
3.72421e-303
4.08392e-302
4.41683e-302
5.04755e-301
5.43129e-301
6.46522e-300
6.92593e-300
8.58304e-299
9.16172e-299
1.18136e-297
1.25791e-297
1.68675e-296
1.79439e-296
2.50067e-295
2.66359e-295
3.85552e-294
4.12515e-294
6.19836e-293
6.69503e-293
1.04369e-291
1.14718e-291
1.85467e-290
2.10073e-290
3.52228e-289
4.19093e-289
8.50728e-288
1.06748e-287
2.14718e-286
2.92589e-286
5.86083e-285
8.58707e-285
1.72441e-283
2.62363e-283
5.31913e-282
8.03152e-282
1.64827e-280
2.42366e-280
4.90845e-279
7.3464e-279
1.35748e-277
2.2849e-277
3.36605e-276
5.65191e-276
7.11496e-275
3.83099e-275
1.0212e-273
-2.86529e-275
4.07722e-273
1.74703e-274
6.01956e-273
2.35456e-273
4.82483e-272
1.49994e-271
2.22618e-270
1.16029e-269
1.55262e-268
4.00704e-269
8.02823e-268
1.62063e-270
3.2483e-269
1.28023e-270
2.37592e-269
1.2749e-268
2.10506e-267
2.40515e-266
3.46259e-265
6.2458e-264
8.73318e-263
1.22111e-263
3.79296e-262
7.08565e-265
2.42277e-263
2.08254e-263
6.0552e-262
1.102e-261
2.6985e-260
6.91978e-260
1.34575e-258
1.87833e-258
4.51344e-257
1.75851e-259
2.49814e-257
1.08948e-261
6.79344e-260
9.08324e-264
4.02825e-262
1.11265e-265
3.80262e-264
3.75301e-267
1.10514e-265
6.26631e-268
1.63143e-266
1.03406e-266
2.16014e-265
2.05085e-265
6.27418e-264
6.46849e-267
1.73364e-264
3.93639e-269
2.40851e-267
6.54548e-271
2.30063e-269
6.47671e-272
1.2575e-270
7.74967e-272
8.18587e-271
6.57541e-272
6.51581e-271
1.256e-272
1.51755e-271
8.38294e-274
1.10427e-272
4.46376e-275
5.63971e-274
2.62696e-276
3.08684e-275
1.90399e-277
2.09332e-276
1.6941e-278
1.76001e-277
1.75675e-279
1.73645e-278
2.01432e-280
1.90191e-279
2.4621e-281
2.22521e-280
3.14225e-282
2.72095e-281
4.14525e-283
3.44025e-282
5.62836e-284
4.47697e-283
7.85459e-285
5.98717e-284
1.12651e-285
8.22668e-285
1.66118e-286
1.16193e-285
2.52037e-287
1.68804e-286
3.93722e-288
2.52434e-287
6.33713e-289
3.88846e-288
1.05157e-289
6.17374e-289
1.79995e-290
1.01088e-289
3.1795e-291
1.70776e-290
5.79829e-292
2.97789e-291
1.09203e-292
5.36152e-292
2.12465e-293
9.9699e-293
4.27151e-294
1.91529e-293
8.8759e-295
3.80192e-294
1.90482e-295
7.7922e-295
1.61059e-295
4.05919e-319
2.02854e-318
2.46135e-318
1.28804e-317
1.5196e-317
8.32572e-317
9.7647e-317
5.60068e-316
6.52962e-316
3.92018e-315
4.54143e-315
2.85354e-314
3.28384e-314
2.15913e-313
2.46774e-313
1.69755e-312
1.92666e-312
1.38633e-311
1.56233e-311
1.17565e-310
1.31548e-310
1.03499e-309
1.14984e-309
9.45628e-309
1.04309e-308
8.96445e-308
9.81865e-308
8.81538e-307
9.58808e-307
8.9903e-306
9.71132e-306
9.5067e-305
1.02004e-304
1.04213e-303
1.11093e-303
1.18408e-302
1.2544e-302
1.39427e-301
1.46844e-301
1.70137e-300
1.78226e-300
2.15156e-299
2.24323e-299
2.82031e-298
2.92932e-298
3.83377e-297
3.97202e-297
5.4088e-296
5.60062e-296
7.93147e-295
8.23223e-295
1.2119e-293
1.26675e-293
1.93774e-292
2.05532e-292
3.26587e-291
3.55825e-291
5.8725e-290
6.69254e-290
1.14758e-288
1.40004e-288
2.91366e-287
3.81518e-287
7.88849e-286
1.12527e-285
2.32261e-284
3.51109e-284
7.27608e-283
1.11627e-282
2.33359e-281
3.48779e-281
7.34893e-280
1.05673e-279
2.18816e-278
3.131e-278
5.97748e-277
8.827e-277
1.44351e-275
1.82147e-275
2.85442e-274
8.91958e-275
3.6478e-273
-1.99483e-274
1.52346e-272
6.84815e-274
2.97044e-272
7.27709e-273
1.61985e-271
3.09802e-271
4.73392e-270
1.866e-269
2.37635e-268
6.90022e-269
1.18298e-267
3.90972e-270
7.15584e-269
2.81729e-270
5.02342e-269
2.82875e-268
4.67716e-267
4.7179e-266
6.93888e-265
9.03239e-264
1.27104e-262
2.12298e-263