/*--------------------------------*- C++ -*----------------------------------*\
  =========                 |
  \\      /  F ield         | OpenFOAM: The Open Source CFD Toolbox
   \\    /   O peration     | Website:  https://openfoam.org
    \\  /    A nd           | Version:  9
     \\/     M anipulation  |
\*---------------------------------------------------------------------------*/
FoamFile
{
    format      ascii;
    class       volScalarField;
    location    "0.06";
    object      alpha.water;
}
// * * * * * * * * * * * * * * * * * * * * * * * * * * * * * * * * * * * * * //

dimensions      [0 0 0 0 0 0 0];

internalField   nonuniform List<scalar> 
20000
(
6.04993e-319
5.78393e-319
5.52919e-319
5.28532e-319
5.05162e-319
9.65592e-319
9.22781e-318
8.1127e-317
7.21287e-316
6.69516e-315
6.46642e-314
6.49776e-313
6.79493e-312
7.39712e-311
8.38601e-310
9.90496e-309
1.21951e-307
1.56617e-306
2.09973e-305
2.94167e-304
4.31186e-303
6.62235e-302
1.06751e-300
1.80944e-299
3.231e-298
6.08778e-297
1.21164e-295
2.54761e-294
5.65197e-293
1.31912e-291
3.22951e-290
9.44152e-289
2.69602e-287
7.40499e-286
1.9137e-284
4.48545e-283
8.86624e-282
1.28863e-280
1.25438e-279
8.97614e-279
7.69412e-273
9.60007e-272
2.63762e-271
1.86637e-269
1.86325e-267
1.09824e-264
2.72782e-264
1.11912e-267
7.47515e-266
5.86535e-264
5.57079e-262
1.39507e-259
4.77854e-259
3.09959e-261
1.37168e-259
1.10463e-257
1.08317e-255
3.55478e-253
1.82256e-253
3.69349e-256
2.66535e-258
2.43657e-260
2.48421e-262
3.85067e-264
1.05248e-262
3.16562e-260
1.14115e-260
1.64089e-263
1.19316e-265
1.1703e-267
1.8505e-269
6.28521e-270
6.45552e-271
9.31247e-276
5.67837e-277
5.43679e-278
5.96895e-279
6.11786e-280
5.83326e-281
5.3754e-282
4.95485e-283
4.67491e-284
4.57494e-285
4.67439e-286
4.99997e-287
5.60284e-288
6.57567e-289
8.07781e-290
1.03789e-290
1.39377e-291
1.95485e-292
2.86179e-293
4.3702e-294
6.95768e-295
1.15428e-295
1.99454e-296
3.58834e-297
6.7188e-298
1.30707e-298
2.56051e-299
6.05033e-319
5.78432e-319
5.52958e-319
5.28551e-319
4.54668e-318
4.05566e-317
3.3775e-316
2.86466e-315
2.52747e-314
2.31817e-313
2.21062e-312
2.19216e-311
2.26106e-310
2.42627e-309
2.70944e-308
3.14975e-307
3.81336e-306
4.81051e-305
6.32696e-304
8.68261e-303
1.2444e-301
1.86469e-300
2.9251e-299
4.81011e-298
8.3031e-297
1.50624e-295
2.87351e-294
5.76443e-293
1.21451e-291
2.68039e-290
6.18305e-289
1.69722e-287
4.54487e-286
1.17067e-284
2.83999e-283
6.25358e-282
1.1631e-280
1.62826e-279
1.69223e-278
2.06674e-277
2.12395e-272
2.32755e-271
3.65955e-271
1.79381e-269
1.33878e-267
1.88103e-264
5.29742e-264
2.78919e-267
1.18948e-265
6.47985e-264
4.41496e-262
3.6342e-259
1.28079e-258
5.69392e-261
2.21821e-259
1.2028e-257
8.23176e-256
7.68879e-253
3.76727e-253
1.30652e-256
1.24041e-258
1.67087e-260
2.47446e-262
5.21999e-264
8.47538e-263
6.35029e-260
2.21848e-260
5.65899e-264
5.39224e-266
8.22423e-268
2.05954e-269
2.21752e-269
1.41828e-270
1.71317e-274
6.30364e-276
6.43288e-277
7.04503e-278
7.93804e-279
8.66764e-280
9.12657e-281
9.45185e-282
9.8269e-283
1.04125e-283
1.13544e-284
1.28165e-285
1.5025e-286
1.83253e-287
2.32734e-288
3.07882e-289
4.24275e-290
6.08972e-291
9.10211e-292
1.41634e-292
2.29374e-293
3.865e-294
6.77432e-295
1.23478e-295
2.34e-296
4.6032e-297
9.11062e-298
6.05102e-319
5.78492e-319
1.65903e-318
1.26865e-317
9.75099e-317
7.61468e-316
6.15382e-315
5.16441e-314
4.50349e-313
4.08076e-312
3.84292e-311
3.76165e-310
3.82792e-309
4.05037e-308
4.45724e-307
5.10253e-306
6.07835e-305
7.53752e-304
9.73454e-303
1.31008e-301
1.83855e-300
2.69289e-299
4.12039e-298
6.593e-297
1.10431e-295
1.93784e-294
3.56414e-293
6.86922e-292
1.38574e-290
2.91917e-289
6.41139e-288
1.67162e-286
4.24977e-285
1.03981e-283
2.40014e-282
5.05067e-281
9.10951e-280
1.293e-278
1.52934e-277
2.73403e-276
5.71018e-272
4.82522e-271
3.94649e-271
1.36371e-269
7.72864e-268
2.51733e-264
7.96184e-264
4.76909e-267
1.45965e-265
5.87039e-264
3.10655e-262
6.5139e-259
2.32636e-258
1.16277e-260
3.03991e-259
1.12912e-257
5.34594e-256
1.14983e-252
5.44536e-253
4.55676e-257
4.19325e-259
7.71475e-261
1.55113e-262
4.44038e-264
5.74264e-263
9.12947e-260
3.10164e-260
1.92004e-264
1.79567e-266
3.75918e-268
1.40583e-269
6.02973e-269
3.89607e-270
2.04054e-273
6.38201e-275
5.88033e-276
6.3108e-277
6.98412e-278
7.95304e-279
9.00064e-280
1.0067e-280
1.12393e-281
1.26772e-282
1.45884e-283
1.72458e-284
2.10395e-285
2.65663e-286
3.47822e-287
4.72704e-288
6.67276e-289
9.78706e-290
1.49174e-290
2.36284e-291
3.88912e-292
6.65117e-293
1.18175e-293
2.18116e-294
4.18146e-295
8.31418e-296
1.66211e-296
6.05201e-319
2.89292e-318
2.26769e-317
1.67592e-316
1.23699e-315
9.51845e-315
7.60472e-314
6.31004e-313
5.4383e-312
4.86882e-311
4.52856e-310
4.37645e-309
4.39499e-308
4.58697e-307
4.97612e-306
5.61214e-305
6.58164e-304
8.0283e-303
1.01893e-301
1.34612e-300
1.8521e-299
2.65561e-298
3.97099e-297
6.19738e-296
1.01025e-294
1.72118e-293
3.06576e-292
5.70779e-291
1.10968e-289
2.24843e-288
4.74402e-287
1.18731e-285
2.90132e-284
6.84423e-283
1.53193e-281
3.16032e-280
5.72362e-279
8.56948e-278
1.15641e-276
2.57875e-275
1.49727e-271
9.76243e-271
4.78082e-271
1.17924e-269
4.98762e-268
3.20089e-264
1.13702e-263
7.53434e-267
1.785e-265
5.76054e-264
2.5896e-262
1.032e-258
3.73589e-258
2.43542e-260
4.74068e-259
1.32381e-257
4.38821e-256
1.53625e-252
7.10718e-253
1.56408e-257
1.39129e-259
3.15413e-261
8.18854e-263
3.2834e-264
3.97765e-263
1.21864e-259
3.95447e-260
6.4173e-265
5.81862e-267
1.57918e-268
1.71371e-269
1.59823e-268
1.26713e-269
1.86786e-272
5.35395e-274
4.71324e-275
4.84769e-276
5.21839e-277
5.89369e-278
6.83974e-279
7.98039e-280
9.33835e-281
1.10267e-281
1.32371e-282
1.62573e-283
2.05231e-284
2.67182e-285
3.59517e-286
5.00776e-287
7.22798e-288
1.08175e-288
1.67937e-289
2.70511e-290
4.52157e-291
7.84304e-292
1.41181e-292
2.63733e-293
5.11258e-294
1.02711e-294
2.07364e-295
4.2374e-318
3.29867e-317
2.30138e-316
1.62762e-315
1.19276e-314
9.07512e-314
7.169e-313
5.88046e-312
5.00895e-311
4.43095e-310
4.07091e-309
3.88474e-308
3.85068e-307
3.96509e-306
4.2418e-305
4.71496e-304
5.44626e-303
6.53867e-302
8.1612e-301
1.05931e-299
1.43044e-298
2.01044e-297
2.94264e-296
4.48817e-295
7.13767e-294
1.18418e-292
2.05012e-291
3.70328e-290
6.97504e-289
1.36792e-287
2.79364e-286
6.77386e-285
1.60925e-283
3.71338e-282
8.21266e-281
1.70166e-279
3.18564e-278
5.17471e-277
7.85579e-276
1.84644e-274
3.91345e-271
2.03598e-270
6.64348e-271
1.28459e-269
4.34759e-268
4.06459e-264
1.62615e-263
1.10302e-266
2.21709e-265
6.2423e-264
2.6042e-262
1.53253e-258
5.75516e-258
4.69568e-260
7.82999e-259
1.88858e-257
5.0195e-256
1.97799e-252
8.96449e-253
5.37425e-258
4.83828e-260
1.35788e-261
4.87528e-263
3.17648e-264
2.94549e-263
1.60739e-259
4.8558e-260
2.2161e-265
2.359e-267
1.11906e-268
5.65812e-269
4.27969e-268
4.34556e-269
1.34455e-271
4.00478e-273
3.30527e-274
3.218e-275
3.38662e-276
3.7673e-277
4.38922e-278
5.23085e-279
6.30694e-280
7.69531e-281
9.54354e-282
1.20892e-282
1.57068e-283
2.09969e-284
2.89475e-285
4.12274e-286
6.07297e-287
9.26023e-288
1.46251e-288
2.39334e-289
4.05928e-290
7.13679e-291
1.30083e-291
2.45833e-292
4.81714e-293
9.775e-294
1.99288e-294
4.11757e-317
2.7439e-316
1.85102e-315
1.29271e-314
9.36671e-314
7.04587e-313
5.50239e-312
4.46127e-311
3.75555e-310
3.28255e-309
2.9791e-308
2.80741e-307
2.74717e-306
2.79153e-305
2.94571e-304
3.22818e-303
3.67431e-302
4.34403e-301
5.33548e-300
6.8094e-299
9.03272e-298
1.24582e-296
1.78735e-295
2.66868e-294
4.14897e-293
6.71964e-292
1.13413e-290
1.9949e-289
3.65608e-288
6.97694e-287
1.38817e-285
3.28837e-284
7.6772e-283
1.75792e-281
3.91689e-280
8.36318e-279
1.66871e-277
3.03351e-276
5.21446e-275
1.19865e-273
1.01188e-270
4.44366e-270
9.82196e-271
1.5774e-269
4.6833e-268
5.21618e-264
2.3297e-263
1.47584e-266
2.69845e-265
6.98482e-264
2.80776e-262
2.20611e-258
8.64946e-258
8.63574e-260
1.60852e-258
5.58913e-257
3.94727e-255
2.47937e-252
1.12104e-252
2.16354e-258
2.53973e-260
1.01348e-261
5.74873e-263
5.66377e-264
2.3498e-263
2.12528e-259
5.9065e-260
1.13126e-265
2.43302e-267
2.19263e-268
2.25666e-268
1.12832e-267
1.46441e-268
8.16576e-271
2.8687e-272
2.07964e-273
1.87771e-274
1.92481e-275
2.11566e-276
2.46356e-277
2.97254e-278
3.65878e-279
4.57449e-280
5.81988e-281
7.56071e-282
1.0064e-282
1.37648e-283
1.93875e-284
2.81678e-285
4.2268e-286
6.55691e-287
1.05223e-287
1.74766e-288
3.0053e-289
5.352e-290
9.87244e-291
1.88664e-291
3.73558e-292
7.65456e-293
1.57589e-293
2.90758e-316
1.90172e-315
1.26449e-314
8.72289e-314
6.24682e-313
4.64428e-312
3.58459e-311
2.87224e-310
2.38926e-309
2.06329e-308
1.84973e-307
1.72147e-306
1.66315e-305
1.668e-304
1.73658e-303
1.87684e-302
2.10574e-301
2.45271e-300
2.96611e-299
3.72463e-298
4.85754e-297
6.58117e-296
9.26602e-295
1.35635e-293
2.06511e-292
3.27212e-291
5.39803e-290
9.2755e-289
1.66068e-287
3.09932e-286
6.04839e-285
1.41356e-283
3.29226e-282
7.66468e-281
1.79127e-279
4.21079e-278
9.91361e-277
2.33413e-275
5.7176e-274
2.00233e-272
2.65094e-270
1.00024e-269
1.62145e-270
1.95862e-269
5.24472e-268
6.80226e-264
3.34086e-263
7.50984e-266
3.16688e-265
7.71822e-264
3.00053e-262
3.12364e-258
1.28503e-257
1.56553e-259
3.66137e-258
1.62238e-256
1.24522e-254
3.0639e-252
1.40015e-252
1.89444e-258
3.5533e-260
1.81354e-261
1.27513e-262
1.79051e-263
4.49737e-262
2.8148e-259
7.24731e-260
1.61316e-265
5.33675e-267
6.0953e-268
8.7223e-268
2.95118e-267
4.8044e-268
6.78898e-270
2.08679e-271
1.227e-272
9.998e-274
9.81747e-275
1.06441e-275
1.2389e-276
1.50861e-277
1.8858e-278
2.40285e-279
3.12025e-280
4.13886e-281
5.62325e-282
7.84461e-283
1.12591e-283
1.66525e-284
2.54113e-285
4.00464e-286
6.52228e-287
1.09842e-287
1.91358e-288
3.44961e-289
6.43647e-290
1.2433e-290
2.48671e-291
5.14422e-292
1.06948e-292
1.78105e-315
1.15164e-314
7.55966e-314
5.15052e-313
3.64362e-312
2.67625e-311
2.04082e-310
1.61565e-309
1.32779e-308
1.13273e-307
1.00304e-306
9.21889e-306
8.79393e-305
8.7058e-304
8.94406e-303
9.53549e-302
1.05492e-300
1.21106e-299
1.44274e-298
1.78367e-297
2.28875e-296
3.04882e-295
4.21733e-294
6.06019e-293
9.05095e-292
1.4058e-290
2.27239e-289
3.82617e-288
6.71914e-287
1.23314e-285
2.37924e-284
5.55442e-283
1.31567e-281
3.2042e-280
8.13505e-279
2.16122e-277
5.90669e-276
1.61805e-274
4.44862e-273
1.49785e-271
7.14415e-270
2.40231e-269
4.99669e-270
9.90318e-269
1.00636e-266
9.00364e-264
4.79353e-263
2.53198e-265
3.60498e-265
8.34085e-264
3.11808e-262
4.38249e-258
1.89243e-257
2.99204e-259
7.83714e-258
3.73353e-256
2.63128e-254
3.75545e-252
1.75075e-252
3.80983e-258
8.29603e-260
4.39187e-261
3.28057e-262
5.94959e-263
1.81818e-261
3.73063e-259
9.12052e-260
3.77298e-265
1.27745e-266
1.76267e-267
3.21433e-267
7.69096e-267
1.48135e-267
4.08868e-269
1.30511e-270
6.66097e-272
4.92e-273
4.60034e-274
4.91298e-275
5.7168e-276
7.00825e-277
8.86035e-278
1.14534e-278
1.51156e-279
2.03946e-280
2.81905e-281
4.00006e-282
5.8367e-283
8.77064e-284
1.35882e-284
2.17247e-285
3.58694e-286
6.11945e-287
1.07921e-287
1.96815e-288
3.7127e-289
7.24628e-290
1.46358e-290
3.056e-291
6.41607e-292
9.79481e-315
6.24759e-314
4.0464e-313
2.72103e-312
1.9004e-311
1.37833e-310
1.03802e-309
8.11627e-309
6.5881e-308
5.55104e-307
4.8546e-306
4.4061e-305
4.14987e-304
4.05557e-303
4.11215e-302
4.32561e-301
4.72016e-300
5.34284e-299
6.27311e-298
7.64008e-297
9.65275e-296
1.26536e-294
1.72147e-293
2.43158e-292
3.56802e-291
5.44329e-290
8.64322e-289
1.43082e-287
2.47587e-286
4.49828e-285
8.66758e-284
2.05251e-282
5.04873e-281
1.31412e-279
3.65134e-278
1.06758e-276
3.15955e-275
9.11042e-274
2.53658e-272
7.55336e-271
2.08188e-269
6.51585e-269
2.31239e-269
4.10514e-268
3.66505e-266
1.21093e-263
6.87764e-263
6.23534e-265
5.14575e-265
2.23329e-263
3.24837e-261
6.11347e-258
2.76353e-257
5.82401e-259
1.52017e-257
7.24753e-256
4.59447e-254
4.57826e-252
2.19047e-252
8.78855e-258
2.09784e-259
1.08547e-260
8.63529e-262
1.76317e-262
4.68224e-261
4.96744e-259
1.19009e-259
8.88112e-265
3.1175e-266
5.3499e-267
1.12446e-266
1.99977e-266
4.34012e-267
1.75494e-268
6.44656e-270
3.19862e-271
2.23712e-272
2.01678e-273
2.12939e-274
2.47541e-275
3.04463e-276
3.87555e-277
5.05934e-278
6.75807e-279
9.24147e-280
1.29557e-280
1.86491e-281
2.76031e-282
4.20623e-283
6.60566e-284
1.07002e-284
1.78904e-285
3.08911e-286
5.51088e-287
1.01611e-287
1.93695e-288
3.81838e-289
7.78595e-290
1.64064e-290
3.4786e-291
4.91825e-314
3.09157e-313
1.97412e-312
1.3093e-311
9.02179e-311
6.45746e-310
4.80033e-309
3.70553e-308
2.96982e-307
2.47086e-306
2.13371e-305
1.9122e-304
1.77819e-303
1.71557e-302
1.71701e-301
1.78243e-300
1.91902e-299
2.14257e-298
2.48057e-297
2.978e-296
3.70744e-295
4.78706e-294
6.41255e-293
8.91594e-292
1.28765e-290
1.93379e-289
3.02528e-288
4.9441e-287
8.48053e-286
1.53907e-284
3.00128e-283
7.34181e-282
1.9117e-280
5.36771e-279
1.61117e-277
5.00024e-276
1.53156e-274
4.46702e-273
1.22771e-271
3.26758e-270
6.60528e-269
2.06197e-268
1.26032e-268
1.39265e-267
9.13546e-266
1.66338e-263
9.85131e-263
1.34489e-264
9.59258e-265
6.85067e-263
1.16815e-260
8.50704e-258
4.01026e-257
1.0763e-258
2.71801e-257
1.25877e-255
7.20684e-254
5.55864e-252
2.73799e-252
1.88145e-257
5.09078e-259
2.66199e-260
2.34912e-261
4.81338e-262
9.70127e-261
6.66782e-259
1.61779e-259
3.9362e-264
1.29613e-265
2.0139e-266
3.77959e-266
5.19808e-266
1.23315e-266
6.47134e-268
2.75623e-269
1.41336e-270
9.6923e-272
8.54239e-273
8.90455e-274
1.0277e-274
1.25999e-275
1.60558e-276
2.10635e-277
2.83577e-278
3.91621e-279
5.55138e-280
8.08563e-281
1.21133e-281
1.8684e-282
2.96969e-283
4.86748e-284
8.23221e-285
1.43735e-285
2.59194e-286
4.82896e-287
9.29775e-288
1.85063e-288
3.80863e-289
8.09775e-290
1.73395e-290
2.28878e-313
1.41658e-312
8.91049e-312
5.82406e-311
3.95655e-310
2.79302e-309
2.04835e-308
1.56031e-307
1.23425e-306
1.01367e-305
8.64183e-305
7.64622e-304
7.02004e-303
6.68663e-302
6.60658e-301
6.76985e-300
7.19367e-299
7.92574e-298
9.05334e-297
1.07212e-295
1.31635e-294
1.67595e-293
2.21348e-292
3.03446e-291
4.32242e-290
6.40831e-289
9.91595e-288
1.60885e-286
2.75867e-285
5.06394e-284
1.01679e-282
2.62072e-281
7.32196e-280
2.21111e-278
7.02259e-277
2.24915e-275
6.95607e-274
2.01532e-272
5.40595e-271
1.3134e-269
2.21867e-268
7.26807e-268
6.94021e-268
4.5829e-267
2.0156e-265
2.36035e-263
1.40688e-262
2.86943e-264
1.92509e-264
1.67268e-262
2.73308e-260
1.18443e-257
5.78556e-257
1.91128e-258
4.60138e-257
2.03912e-255
1.05944e-253
6.72423e-252
3.40754e-252
5.34563e-255
3.23451e-257
3.13397e-259
9.10658e-261
1.30537e-261
1.75956e-260
9.03225e-259
2.28534e-259
1.95888e-262
1.99139e-264
1.25267e-265
1.26913e-265
1.35791e-265
3.43717e-266
2.34784e-267
1.1398e-268
6.16425e-270
4.23101e-271
3.63979e-272
3.69377e-273
4.17398e-274
5.04875e-275
6.39273e-276
8.38084e-277
1.13216e-277
1.57325e-278
2.24817e-279
3.30481e-280
5.00041e-281
7.79278e-282
1.25165e-282
2.07317e-283
3.54293e-284
6.24967e-285
1.13835e-285
2.14171e-286
4.16324e-287
8.3638e-288
1.73687e-288
3.7256e-289
8.05701e-290
1.01223e-312
6.13699e-312
3.78818e-311
2.43364e-310
1.62689e-309
1.13112e-308
8.17558e-308
6.14085e-307
4.79178e-306
3.88328e-305
3.2675e-304
2.85391e-303
2.58685e-302
2.43283e-301
2.37341e-300
2.40143e-299
2.5196e-298
2.74093e-297
3.0912e-296
3.61418e-295
4.38112e-294
5.50758e-293
7.18384e-292
9.73114e-291
1.37104e-289
2.01437e-288
3.09992e-287
5.03408e-286
8.73374e-285
1.64947e-283
3.48095e-282
9.62155e-281
2.89863e-279
9.31618e-278
3.07529e-276
1.00082e-274
3.09774e-273
8.88882e-272
2.32835e-270
5.23881e-269
7.54878e-268
2.6337e-267
3.5267e-267
1.57863e-266
4.38366e-265
3.5183e-263
2.00741e-262
6.47011e-264
4.09787e-264
3.73709e-262
5.51958e-260
1.65454e-257
8.30141e-257
3.32431e-258
7.56538e-257
3.17376e-255
1.49784e-253
8.10183e-252
4.21973e-252
1.96148e-254
1.68297e-256
1.79462e-258
3.77013e-260
3.64565e-261
2.91772e-260
1.23399e-258
3.32383e-259
1.47627e-261
2.15517e-263
9.74865e-265
4.43341e-265
3.58641e-265
9.45007e-266
8.30947e-267
4.82196e-268
2.82454e-269
1.94281e-270
1.60616e-271
1.55365e-272
1.68796e-273
1.98807e-274
2.47852e-275
3.2258e-276
4.35097e-277
6.06011e-278
8.70239e-279
1.28774e-279
1.96361e-280
3.08623e-281
5.00156e-282
8.36097e-283
1.44226e-283
2.56813e-284
4.72183e-285
8.96714e-286
1.75944e-286
3.56787e-287
7.47992e-288
1.62046e-288
3.54607e-289
6.07354e-312
3.24434e-311
1.80725e-310
1.07569e-309
6.79859e-309
4.53414e-308
3.17515e-307
2.32616e-306
1.77825e-305
1.4159e-304
1.17278e-303
1.0096e-302
9.02707e-302
8.37919e-301
8.07138e-300
8.06593e-299
8.36027e-298
8.98607e-297
1.00153e-295
1.15745e-294
1.38726e-293
1.72506e-292
2.22727e-291
2.9899e-290
4.18293e-289
6.12357e-288
9.44549e-287
1.55279e-285
2.76931e-284
5.48601e-283
1.23796e-281
3.69229e-280
1.18827e-278
3.98994e-277
1.34467e-275
4.39279e-274
1.35177e-272
3.83164e-271
9.8145e-270
2.09939e-268
2.50059e-267
9.27891e-267
1.6042e-266
5.78901e-266
9.93709e-265
5.59845e-263
2.89153e-262
1.41483e-263
9.96512e-264
8.67748e-262
1.08797e-259
2.32497e-257
1.18525e-256
5.7372e-258
1.23129e-256
4.84404e-255
2.07198e-253
9.72363e-252
5.1982e-252
4.29464e-254
4.77626e-256
5.964e-258
1.26909e-259
1.02498e-260
4.55944e-260
1.69714e-258
4.94581e-259
4.83411e-261
1.10001e-262
5.707e-264
1.58621e-264
9.58869e-265
2.5737e-265
2.77817e-266
1.94817e-267
1.27089e-268
8.98284e-270
7.22396e-271
6.64365e-272
6.86912e-273
7.78874e-274
9.46911e-275
1.21442e-275
1.62628e-276
2.26057e-277
3.2511e-278
4.82969e-279
7.4057e-280
1.17185e-280
1.91367e-281
3.22588e-282
5.61525e-283
1.00983e-283
1.87759e-284
3.61327e-285
7.20953e-286
1.49567e-286
3.2404e-287
7.37169e-288
1.72732e-288
2.25142e-310
9.16958e-310
3.74756e-309
1.62333e-308
7.54894e-308
3.80929e-307
2.10224e-306
1.27194e-305
8.40611e-305
6.01852e-304
4.62183e-303
3.77137e-302
3.24529e-301
2.92861e-300
2.76084e-299
2.71188e-298
2.77086e-297
2.94181e-296
3.24343e-295
3.71261e-294
4.41254e-293
5.44837e-292
6.99698e-291
9.36538e-290
1.31124e-288
1.93217e-287
3.02716e-286
5.12312e-285
9.5718e-284
2.02078e-282
4.89882e-281
1.5594e-279
5.25048e-278
1.80492e-276
6.12748e-275
1.9983e-273
6.12141e-272
1.71688e-270
4.23758e-269
7.98375e-268
8.11782e-267
3.1473e-266
6.53882e-266
2.15946e-265
2.38485e-264
9.61587e-263
4.25042e-262
2.87039e-263
2.80129e-263
2.1631e-261
2.17327e-259
3.29381e-257
1.68465e-256
9.89489e-258
2.00561e-256
7.3401e-255
2.83613e-253
1.16296e-251
6.35926e-252
7.56268e-254
1.02433e-255
1.49674e-257
3.60548e-259
2.82803e-260
6.90299e-260
2.34373e-258
7.46841e-259
1.24099e-260
4.19002e-262
2.60696e-263
5.53735e-264
2.57924e-264
6.94024e-265
8.77361e-266
7.29869e-267
5.35229e-268
3.98983e-269
3.20933e-270
2.85453e-271
2.81912e-272
3.06262e-273
3.60316e-274
4.52022e-275
5.97418e-276
8.25076e-277
1.18475e-277
1.76385e-278
2.7192e-279
4.34013e-280
7.1787e-281
1.23317e-281
2.20895e-282
4.154e-283
8.28722e-284
1.77968e-284
4.18456e-285
1.09299e-285
3.18737e-286
1.02619e-286
3.40179e-287
1.80399e-308
7.04773e-308
2.71413e-307
1.08024e-306
4.46379e-306
1.92195e-305
8.6647e-305
4.1178e-304
2.08133e-303
1.13098e-302
6.68144e-302
4.32976e-301
3.08931e-300
2.42011e-299
2.06476e-298
1.89856e-297
1.86266e-296
1.93403e-295
2.11287e-294
2.4195e-293
2.8982e-292
3.62916e-291
4.75406e-290
6.52899e-289
9.43839e-288
1.44567e-286
2.36952e-285
4.21333e-284
8.26128e-283
1.81247e-281
4.4848e-280
1.4283e-278
4.73578e-277
1.59059e-275
5.26785e-274
1.67963e-272
4.97471e-271
1.30552e-269
2.85503e-268
4.45884e-267
3.79785e-266
1.39327e-265
3.05182e-265
9.02167e-265
6.77306e-264
1.96553e-262
6.54176e-262
5.54976e-263
8.56973e-263
5.5914e-261
4.38054e-259
4.70944e-257
2.38359e-256
1.71556e-257
3.28034e-256
1.11007e-254
3.866e-253
1.38613e-251
7.71878e-252
1.18096e-253
1.88055e-255
3.21574e-257
9.21225e-259
7.52673e-260
1.04362e-259
3.24674e-258
1.12761e-258
3.0022e-260
1.3917e-261
9.87655e-263
1.80909e-263
6.89879e-264
1.84886e-264
2.64145e-265
2.5448e-266
2.09409e-267
1.67433e-268
1.38382e-269
1.22162e-270
1.17181e-271
1.22738e-272
1.39712e-273
1.71137e-274
2.23275e-275
3.07866e-276
4.46877e-277
6.83026e-278
1.10471e-278
1.90975e-279
3.58148e-280
7.41084e-281
1.71424e-281
4.44422e-282
1.27883e-282
4.01414e-283
1.34976e-283
4.79045e-284
1.77512e-284
6.78944e-285
2.5256e-285
1.29226e-306
5.00104e-306
1.90975e-305
7.52865e-305
3.07536e-304
1.30492e-303
5.77043e-303
2.67152e-302
1.3032e-301
6.75626e-301
3.76264e-300
2.27733e-299
1.51305e-298
1.10927e-297
8.95998e-297
7.91424e-296
7.56438e-295
7.74174e-294
8.41122e-293
9.6419e-292
1.16169e-290
1.46841e-289
1.94714e-288
2.71287e-287
3.98498e-286
6.20641e-285
1.03344e-283
1.86028e-282
3.66704e-281
8.00757e-280
1.951e-278
6.06844e-277
1.95804e-275
6.4056e-274
2.07276e-272
6.37898e-271
1.7769e-269
4.24537e-268
8.10904e-267
1.06932e-265
7.78811e-265
2.57978e-264
5.36556e-264
1.32983e-263
6.71524e-263
1.2642e-261
1.4289e-261
1.20958e-262
2.66272e-262
1.43267e-260
8.76823e-259
6.79264e-257
3.36139e-256
2.97622e-257
5.37614e-256
1.67493e-254
5.25752e-253
1.64583e-251
9.30275e-252
1.71311e-253
3.14252e-255
6.33149e-257
2.20721e-258
1.91845e-259
1.62643e-259
4.51551e-258
1.68148e-258
6.72076e-260
3.93922e-261
3.11203e-262
5.40886e-263
1.84067e-263
4.98302e-264
7.93304e-265
8.76856e-266
8.16716e-267
7.19761e-268
6.378e-269
5.88725e-270
5.79346e-271
6.16977e-272
7.16839e-273
9.11854e-274
1.27309e-274
1.95934e-275
3.34603e-276
6.37932e-277
1.35968e-277
3.22035e-278
8.37212e-279
2.35398e-279
7.06e-280
2.23371e-280
7.39484e-281
2.54693e-281
9.08986e-282
3.35219e-282
1.2744e-282
4.96741e-283
1.88348e-283
7.98475e-305
3.06519e-304
1.1635e-303
4.56059e-303
1.85257e-302
7.81835e-302
3.43934e-301
1.58434e-300
7.69123e-300
3.96837e-299
2.19918e-298
1.32399e-297
8.74408e-297
6.36735e-296
5.10496e-295
4.47389e-294
4.24235e-293
4.30834e-292
4.64653e-291
5.28978e-290
6.33309e-289
7.95997e-288
1.05038e-286
1.45779e-285
2.1359e-284
3.32379e-283
5.54197e-282
1.00145e-280
1.98622e-279
4.36919e-278
1.07174e-276
3.34996e-275
1.08308e-273
3.53979e-272
1.12783e-270
3.34517e-269
8.84022e-268
1.97565e-266
3.47496e-265
4.20059e-264
2.91674e-263
1.00147e-262
2.31336e-262
5.97128e-262
2.72097e-261
3.42666e-260
1.40197e-260
7.20494e-262
8.11625e-262
3.53151e-260
1.71868e-258
9.86603e-257
4.7296e-256
5.1403e-257
8.77606e-256
2.51127e-254
7.12245e-253
1.94567e-251
1.11476e-251
2.36966e-253
4.96143e-255
1.18989e-256
5.0708e-258
4.66737e-259
2.67539e-259
6.31431e-258
2.478e-258
1.3664e-259
9.54476e-261
8.4192e-262
1.60518e-262
6.09748e-263
1.90474e-263
3.67667e-264
5.05834e-265
5.87187e-266
6.3851e-267
6.87921e-268
7.58687e-269
8.76181e-270
1.07905e-270
1.43896e-271
2.10391e-272
3.40289e-273
6.11498e-274
1.21956e-274
2.68268e-275
6.44512e-276
1.6724e-276
4.63725e-277
1.36152e-277
4.20192e-278
1.35537e-278
4.5496e-279
1.584e-279
5.7056e-280
2.12201e-280
8.13384e-281
3.19854e-281
1.22916e-281
4.33922e-303
1.65211e-302
6.23393e-302
2.42975e-301
9.81625e-301
4.12111e-300
1.80391e-299
8.27079e-299
3.99714e-298
2.05329e-297
1.13265e-296
6.78343e-296
4.4521e-295
3.21769e-294
2.5574e-293
2.21998e-292
2.08433e-291
2.09592e-290
2.23886e-289
2.52567e-288
2.99819e-287
3.73927e-286
4.9008e-285
6.7642e-284
9.87333e-283
1.53435e-281
2.56286e-280
4.65627e-279
9.31615e-278
2.07113e-276
5.13091e-275
1.61501e-273
5.22924e-272
1.6853e-270
5.19213e-269
1.47213e-267
3.68931e-266
7.76771e-265
1.27872e-263
1.45688e-262
9.88993e-262
3.59473e-261
9.33661e-261
2.61426e-260
1.17545e-259
1.0356e-258
3.14994e-259
1.22742e-260
2.58797e-261
8.27592e-260
3.27875e-258
1.44322e-256
6.6473e-256
8.81248e-257
1.41696e-255
3.72186e-254
9.58082e-253
2.28891e-251
1.33029e-251
3.18116e-253
7.6087e-255
2.19849e-256
1.12912e-257
1.08319e-258
4.69665e-259
9.01766e-258
3.78029e-258
2.66232e-259
2.15462e-260
2.42622e-261
9.38347e-262
6.3575e-262
2.66666e-262
6.50168e-263
1.10895e-263
1.55859e-264
1.99478e-265
2.45839e-266
3.0196e-267
3.79194e-268
4.97508e-269
6.95206e-270
1.05172e-270
1.74366e-271
3.18964e-272
6.44191e-273
1.42945e-273
3.45537e-274
9.00784e-275
2.50783e-275
7.39292e-276
2.29161e-276
7.42801e-277
2.50695e-277
8.78046e-278
3.18317e-278
1.19202e-278
4.60241e-279
1.82467e-279
7.10236e-280
2.1103e-301
7.96683e-301
2.98788e-300
1.15783e-299
4.65131e-299
1.94203e-298
8.45521e-298
3.85604e-297
1.85343e-296
9.46521e-296
5.18643e-295
3.08143e-294
2.00307e-293
1.43157e-292
1.12379e-291
9.62983e-291
8.92575e-290
8.86486e-289
9.35949e-288
1.04445e-286
1.22757e-285
1.5174e-284
1.97358e-283
2.70777e-282
3.93799e-281
6.11676e-280
1.02529e-278
1.87748e-277
3.79923e-276
8.54974e-275
2.13659e-273
6.73913e-272
2.14922e-270
6.6994e-269
1.97564e-267
5.32995e-266
1.26654e-264
2.52221e-263
3.92387e-262
4.30673e-261
2.87395e-260
1.1087e-259
3.19829e-259
9.71923e-259
4.38483e-258
2.74041e-257
6.9134e-258
2.2696e-259
1.24883e-260
1.92059e-259
6.30263e-258
2.21492e-256
9.40881e-256
1.50201e-256
2.25109e-255
5.42851e-254
1.27537e-252
2.67925e-251
1.584e-251
4.20387e-253
1.15853e-254
4.06758e-256
2.44615e-257
2.40251e-258
9.25238e-259
1.62328e-257
1.011e-257
8.3857e-259
8.51127e-260
2.14077e-260
1.95936e-260
1.61874e-260
7.34941e-261
1.96113e-261
3.68718e-262
5.67397e-263
7.84941e-264
1.03129e-264
1.33283e-265
1.73994e-266
2.34746e-267
3.34156e-268
5.11052e-269
8.51741e-270
1.56045e-270
3.14996e-271
6.98162e-272
1.68618e-272
4.39573e-273
1.22518e-273
3.62008e-274
1.12595e-274
3.66559e-275
1.24357e-275
4.38121e-276
1.59859e-276
6.02779e-277
2.34445e-277
9.37076e-278
3.69367e-278
9.31662e-300
3.48593e-299
1.29913e-298
5.00402e-298
1.99844e-297
8.29568e-297
3.59095e-296
1.62803e-295
7.77619e-295
3.94325e-294
2.14272e-293
1.26019e-292
8.09213e-292
5.70196e-291
4.40742e-290
3.71722e-289
3.39221e-288
3.3197e-287
3.45717e-286
3.80973e-285
4.4272e-284
5.41846e-283
6.99065e-282
9.53786e-281
1.38424e-279
2.15532e-278
3.63987e-277
6.7451e-276
1.38325e-274
3.14601e-273
7.88869e-272
2.44884e-270
7.55963e-269
2.25717e-267
6.33913e-266
1.62453e-264
3.66305e-263
6.92221e-262
1.02464e-260
1.0926e-259
7.25273e-259
2.96888e-258
9.41432e-258
3.0981e-257
1.4019e-256
6.32442e-256
1.36676e-256
3.90105e-258
1.44175e-259
6.8203e-259
1.79249e-257
5.46492e-256
1.468e-255
2.57123e-256
3.51058e-255
7.77757e-254
1.6777e-252
3.12744e-251
1.88899e-251
5.57696e-253
1.791e-254
7.6058e-256
5.16151e-257
5.14931e-258
3.24987e-258
9.69448e-257
1.23196e-256
1.15349e-257
1.48316e-258
5.63946e-259
5.4802e-259
4.36923e-259
2.01175e-259
5.67015e-260
1.14431e-260
1.89114e-261
2.7921e-262
3.88162e-263
5.25971e-264
7.13287e-265
9.9071e-266
1.4397e-266
2.23161e-267
3.74846e-268
6.89469e-269
1.39419e-269
3.09252e-270
7.47449e-271
1.95102e-271
5.44934e-272
1.61504e-272
5.04319e-273
1.64976e-273
5.62806e-274
1.9951e-274
7.32852e-275
2.78312e-275
1.09062e-275
4.39513e-276
1.75407e-276
3.79191e-298
1.40534e-297
5.20224e-297
1.99106e-296
7.90201e-296
3.25992e-295
1.40236e-294
6.31714e-294
2.99648e-293
1.50754e-292
8.11499e-292
4.71806e-291
2.98784e-290
2.07178e-289
1.5736e-288
1.30346e-287
1.16871e-286
1.12489e-285
1.15372e-284
1.25407e-283
1.44004e-282
1.74529e-281
2.23592e-280
3.04002e-279
4.41628e-278
6.91936e-277
1.18199e-275
2.22345e-274
4.61562e-273
1.05092e-271
2.59252e-270
7.80435e-269
2.31097e-267
6.57583e-266
1.75441e-264
4.26635e-263
9.13094e-262
1.64136e-260
2.32473e-259
2.42282e-258
1.61522e-257
7.01051e-257
2.42389e-256
8.60386e-256
3.86454e-255
1.29118e-254
2.46095e-255
6.61364e-257
2.91992e-258
8.79835e-258
1.82961e-256
5.10853e-255
4.51743e-255
4.82408e-256
5.39053e-255
1.09932e-253
2.19554e-252
3.69925e-251
2.30078e-251
7.63067e-253
2.88655e-254
1.45222e-255
1.06875e-256
1.16686e-257
3.91482e-257
1.60062e-255
2.5425e-255
2.70883e-256
4.00841e-257
1.62902e-257
1.45418e-257
1.09347e-257
5.05301e-258
1.4881e-258
3.19401e-259
5.62933e-260
8.8285e-261
1.29626e-261
1.84354e-262
2.60637e-263
3.74628e-264
5.59019e-265
8.83031e-266
1.50152e-266
2.78191e-267
5.64875e-268
1.25636e-268
3.04382e-269
7.96661e-270
2.23255e-270
6.6435e-271
2.08444e-271
6.85598e-272
2.35305e-272
8.39633e-273
3.10586e-273
1.18822e-273
4.69218e-274
1.90666e-274
7.70336e-275
1.43919e-296
5.28099e-296
1.94091e-295
7.3784e-295
2.909e-294
1.19227e-293
5.0954e-293
2.27983e-292
1.07362e-291
5.35749e-291
2.85613e-290
1.64112e-289
1.02458e-288
6.9873e-288
5.21059e-287
4.23457e-286
3.7261e-285
3.52323e-284
3.55552e-283
3.81047e-282
4.32496e-281
5.19821e-280
6.63201e-279
9.02487e-278
1.31945e-276
2.09018e-275
3.61421e-274
6.84764e-273
1.41806e-271
3.1807e-270
7.63056e-269
2.21043e-267
6.25379e-266
1.69303e-264
4.2879e-263
9.89267e-262
2.011e-260
3.44653e-259
4.69254e-258
4.79961e-257
3.23487e-256
1.48612e-255
5.55905e-255
2.1146e-254
9.28789e-254
2.36029e-253
4.14727e-254
1.16235e-255
7.15515e-257
2.03707e-256
3.54914e-255
8.65451e-254
4.49634e-254
1.58507e-255
8.33173e-255
1.58026e-253
3.00235e-252
4.88716e-251
3.22715e-251
1.19891e-252
5.28518e-254
3.0137e-255
2.28625e-256
4.72249e-257
7.55925e-256
2.97167e-254
5.23144e-254
6.33486e-255
1.05992e-255
4.38899e-256
3.57542e-256
2.5379e-256
1.17148e-256
3.57729e-257
8.10072e-258
1.51312e-258
2.51134e-259
3.88751e-260
5.80223e-261
8.56607e-262
1.27887e-262
1.97048e-263
3.1933e-264
5.53428e-265
1.03889e-265
2.1276e-266
4.75883e-267
1.15782e-267
3.04209e-268
8.56017e-269
2.55911e-269
8.07154e-270
2.67035e-270
9.22356e-271
3.31381e-271
1.2347e-271
4.75947e-272
1.89424e-272
7.76167e-273
3.17399e-273
5.19113e-295
1.88543e-294
6.87419e-294
2.59388e-293
1.01535e-292
4.13245e-292
1.75391e-291
7.79279e-291
3.64285e-290
1.80307e-289
9.52169e-289
5.40929e-288
3.33137e-287
2.23608e-286
1.63844e-285
1.30736e-284
1.12986e-283
1.0506e-282
1.04467e-281
1.10591e-280
1.24362e-279
1.4859e-278
1.89137e-277
2.57726e-276
3.78319e-275
6.01964e-274
1.04243e-272
1.96444e-271
4.00789e-270
8.76738e-269
2.03301e-267
5.6517e-266
1.52683e-264
3.93352e-263
9.4615e-262
2.07224e-260
4.00578e-259
6.56116e-258
8.62892e-257
8.66275e-256
5.92797e-255
2.87577e-254
1.1556e-253
4.67221e-253
1.97454e-252
3.93239e-252
6.61066e-253
2.0698e-254
1.81033e-255
4.95215e-255
7.18184e-254
1.51719e-252
6.46869e-253
1.44332e-254
1.45754e-254
2.70789e-253
5.48995e-252
1.06282e-250
8.18466e-251
3.26554e-252
1.56501e-253
9.08989e-255
6.48288e-256
5.64858e-256
1.47822e-254
5.33676e-253
1.02919e-252
1.42011e-253
2.66086e-254
1.10355e-254
8.22857e-255
5.52479e-255
2.53777e-255
7.98291e-256
1.89372e-256
3.72592e-257