/*--------------------------------*- C++ -*----------------------------------*\
  =========                 |
  \\      /  F ield         | OpenFOAM: The Open Source CFD Toolbox
   \\    /   O peration     | Website:  https://openfoam.org
    \\  /    A nd           | Version:  9
     \\/     M anipulation  |
\*---------------------------------------------------------------------------*/
FoamFile
{
    format      ascii;
    class       volScalarField;
    location    "0.06";
    object      p;
}
// * * * * * * * * * * * * * * * * * * * * * * * * * * * * * * * * * * * * * //

dimensions      [1 -1 -2 0 0 0 0];

internalField   nonuniform List<scalar> 
20000
(
1.14909
1.14909
1.1491
1.14912
1.14915
1.14917
1.14918
1.14919
1.14919
1.14918
1.14915
1.14911
1.14904
1.14894
1.14881
1.14864
1.14842
1.14815
1.1478
1.14738
1.14685
1.14621
1.14543
1.14448
1.14333
1.14193
1.14023
1.13813
1.13553
1.13227
1.12777
1.12165
1.11409
1.1047
1.0932
1.08034
1.07153
1.08164
1.11528
1.04204
1.14524
1.15446
0.978526
0.899314
0.59295
0.139557
0.0699759
0.537914
0.775657
0.762618
0.549496
0.242273
0.19823
0.515503
0.720152
0.717089
0.493881
0.223868
0.172136
0.562777
0.835298
0.913561
0.921086
0.856587
0.591657
0.243529
0.216455
0.636569
0.918553
0.989184
0.942732
0.955886
0.355421
0.828501
1.05952
1.11265
1.12955
1.13554
1.13874
1.14116
1.14318
1.14489
1.14631
1.14746
1.14837
1.14907
1.1496
1.14997
1.15023
1.15039
1.15046
1.15047
1.15042
1.15032
1.15019
1.15004
1.14986
1.14966
1.14945
1.14922
1.14716
1.14722
1.1473
1.1474
1.1475
1.14761
1.14773
1.14785
1.14797
1.14809
1.14821
1.14832
1.14842
1.14851
1.14858
1.14862
1.14864
1.14863
1.14857
1.14846
1.14828
1.14803
1.14769
1.14723
1.14663
1.14587
1.14491
1.14369
1.14215
1.14023
1.13761
1.13418
1.13024
1.12601
1.12221
1.12066
1.12524
1.14109
1.17817
1.20516
1.19523
1.18827
1.14268
0.965298
0.716683
0.452419
0.4307
0.652403
0.78571
0.771579
0.612542
0.447594
0.438975
0.596692
0.742833
0.739836
0.579701
0.452171
0.41361
0.645192
0.850728
0.907686
0.91353
0.866872
0.671322
0.495872
0.4836
0.723056
0.942691
1.00255
1.06099
1.01848
0.810046
0.991949
1.08033
1.11653
1.13715
1.14666
1.1511
1.15326
1.1543
1.15477
1.15494
1.15491
1.15475
1.15449
1.15415
1.15374
1.1533
1.15282
1.15231
1.15179
1.15125
1.1507
1.15015
1.14959
1.14904
1.14849
1.14795
1.14741
1.14525
1.14541
1.14557
1.14575
1.14594
1.14614
1.14634
1.14656
1.14678
1.14701
1.14724
1.14747
1.1477
1.14794
1.14816
1.14838
1.14859
1.14878
1.14895
1.14909
1.14919
1.14925
1.14926
1.1492
1.14906
1.14882
1.14848
1.148
1.14737
1.14658
1.14553
1.14433
1.14331
1.14302
1.14448
1.1496
1.16245
1.18768
1.2387
1.33926
1.29542
1.26059
1.27526
1.08144
0.94695
0.749468
0.732701
0.864948
0.883407
0.861554
0.784621
0.668752
0.670241
0.777717
0.839655
0.838353
0.782331
0.700155
0.643859
0.810455
0.919028
0.947157
0.952832
0.938422
0.851321
0.747912
0.730416
0.898889
1.02791
1.07162
1.22544
1.16152
1.08587
1.1594
1.15366
1.15556
1.16014
1.16204
1.16277
1.16271
1.16217
1.16139
1.1605
1.15957
1.1586
1.15763
1.15665
1.15568
1.15473
1.1538
1.15289
1.15199
1.1511
1.15023
1.14938
1.14855
1.14775
1.14698
1.14624
1.14553
1.14333
1.14358
1.14383
1.14409
1.14437
1.14466
1.14496
1.14528
1.1456
1.14594
1.14629
1.14665
1.14702
1.1474
1.14779
1.14818
1.14857
1.14897
1.14936
1.14975
1.15013
1.1505
1.15085
1.15118
1.15149
1.15178
1.15205
1.15231
1.15257
1.15288
1.15333
1.1542
1.15583
1.15891
1.16461
1.17489
1.19425
1.22738
1.28039
1.39256
1.36383
1.31361
1.34051
1.17834
1.12971
0.9883
0.967445
1.03948
0.993989
0.971973
0.951523
0.872745
0.879889
0.951513
0.951939
0.951796
0.968964
0.916356
0.857081
0.963702
0.996224
1.00931
1.01561
1.02103
1.01198
0.962777
0.943114
1.05579
1.11554
1.14096
1.29758
1.2535
1.23267
1.25121
1.20966
1.19612
1.18725
1.18079
1.17652
1.17325
1.17055
1.16822
1.16614
1.16422
1.16243
1.16074
1.15914
1.15763
1.1562
1.15483
1.15352
1.15224
1.15101
1.14982
1.14868
1.14759
1.14654
1.14554
1.14458
1.14367
1.14142
1.14175
1.14209
1.14244
1.14282
1.14321
1.14361
1.14404
1.14448
1.14494
1.14542
1.14592
1.14643
1.14697
1.14752
1.1481
1.14869
1.14931
1.14994
1.15059
1.15126
1.15195
1.15266
1.1534
1.15418
1.15501
1.15591
1.15692
1.15807
1.15946
1.16136
1.16418
1.16821
1.1742
1.18345
1.19773
1.22083
1.25724
1.30275
1.39988
1.39503
1.33922
1.3613
1.24011
1.24132
1.15354
1.13025
1.15826
1.08741
1.06855
1.07696
1.03212
1.04509
1.08324
1.04977
1.04888
1.10162
1.07611
1.02631
1.07868
1.06619
1.07421
1.0806
1.09071
1.12614
1.11944
1.09812
1.16243
1.17899
1.18982
1.30599
1.28836
1.29082
1.28507
1.23998
1.22295
1.20812
1.19746
1.18988
1.18403
1.17938
1.17552
1.1722
1.16926
1.16661
1.16418
1.16194
1.15987
1.15793
1.1561
1.15435
1.15268
1.15109
1.14957
1.14812
1.14674
1.14542
1.14417
1.14297
1.14182
1.1395
1.13992
1.14035
1.14079
1.14126
1.14176
1.14227
1.14281
1.14337
1.14396
1.14457
1.14521
1.14588
1.14657
1.1473
1.14807
1.14887
1.1497
1.15058
1.15149
1.15246
1.15347
1.15455
1.1557
1.15695
1.15831
1.15983
1.16156
1.16357
1.16598
1.16922
1.17379
1.17987
1.18824
1.20009
1.21696
1.2411
1.27809
1.31597
1.39647
1.40435
1.34842
1.36975
1.28245
1.31077
1.25996
1.23568
1.24318
1.16505
1.14871
1.16824
1.14692
1.16339
1.17953
1.13108
1.12857
1.19235
1.18459
1.14718
1.16322
1.1276
1.13273
1.13925
1.14772
1.20596
1.22178
1.20116
1.22978
1.22195
1.22572
1.30545
1.29697
1.30559
1.29433
1.25593
1.23817
1.22148
1.20954
1.20044
1.19313
1.18716
1.18215
1.17781
1.17399
1.17056
1.16747
1.16464
1.16203
1.1596
1.15731
1.15515
1.15309
1.15115
1.14931
1.14755
1.14589
1.14431
1.1428
1.14136
1.13997
1.13758
1.13809
1.1386
1.13914
1.13971
1.1403
1.14092
1.14157
1.14225
1.14296
1.14371
1.14449
1.14531
1.14617
1.14707
1.14802
1.14902
1.15007
1.15118
1.15236
1.15361
1.15494
1.15637
1.15792
1.15962
1.16149
1.16359
1.16599
1.16879
1.17212
1.17655
1.18259
1.19033
1.20046
1.21399
1.23231
1.25636
1.29218
1.32474
1.3914
1.40402
1.35116
1.37688
1.31623
1.35861
1.32877
1.30498
1.30799
1.23102
1.21672
1.23856
1.23079
1.24456
1.25253
1.19957
1.19551
1.25659
1.25714
1.23267
1.22867
1.18147
1.18336
1.19028
1.19591
1.26506
1.28819
1.26719
1.27399
1.25287
1.25268
1.30443
1.29814
1.30557
1.29483
1.26458
1.24687
1.23012
1.21794
1.20814
1.20008
1.19333
1.18753
1.18246
1.17796
1.17393
1.17029
1.16695
1.16387
1.16099
1.15829
1.15575
1.15335
1.15109
1.14895
1.14692
1.145
1.14316
1.14141
1.13973
1.13812
1.13566
1.13625
1.13685
1.13748
1.13814
1.13884
1.13956
1.14032
1.14112
1.14195
1.14283
1.14375
1.14471
1.14573
1.1468
1.14793
1.14913
1.15039
1.15174
1.15316
1.15469
1.15632
1.15809
1.16001
1.16212
1.16447
1.16711
1.17012
1.17362
1.17776
1.18318
1.19042
1.19942
1.2108
1.22528
1.24417
1.26729
1.29978
1.33145
1.38455
1.40038
1.35154
1.38152
1.34302
1.39098
1.3732
1.35308
1.35735
1.28532
1.27338
1.29363
1.29202
1.30248
1.30872
1.25615
1.25093
1.30221
1.30564
1.29508
1.28035
1.22787
1.22657
1.23376
1.23596
1.30862
1.33024
1.31014
1.30448
1.27479
1.27145
1.30178
1.29669
1.30115
1.29114
1.26802
1.25148
1.23578
1.22382
1.21376
1.20529
1.19805
1.19173
1.18614
1.18116
1.17668
1.17259
1.16883
1.16533
1.16207
1.15901
1.15614
1.15344
1.15089
1.14849
1.1462
1.14403
1.14196
1.13998
1.13808
1.13626
1.13374
1.13442
1.1351
1.13582
1.13657
1.13736
1.13819
1.13906
1.13997
1.14093
1.14193
1.14299
1.1441
1.14526
1.1465
1.14781
1.14919
1.15066
1.15222
1.15389
1.15568
1.1576
1.15968
1.16195
1.16445
1.16724
1.17036
1.17393
1.17804
1.18287
1.18913
1.19732
1.20726
1.21945
1.23443
1.25331
1.27531
1.30488
1.33379
1.37584
1.39109
1.35535
1.38487
1.36059
1.41004
1.40003
1.38598
1.39226
1.32935
1.3181
1.33529
1.3366
1.34476
1.35002
1.30051
1.29464
1.334
1.33796
1.33909
1.31949
1.26652
1.26231
1.26917
1.26764
1.33738
1.35378
1.3381
1.32506
1.28883
1.28282
1.29646
1.29288
1.29498
1.28545
1.26782
1.25317
1.23913
1.2277
1.21774
1.20913
1.20161
1.19497
1.18904
1.18371
1.17887
1.17441
1.17029
1.16645
1.16285
1.15949
1.15633
1.15336
1.15056
1.14791
1.14539
1.14299
1.14069
1.1385
1.13641
1.1344
1.13182
1.13258
1.13334
1.13415
1.13499
1.13588
1.13681
1.13778
1.13881
1.13988
1.14101
1.14219
1.14344
1.14476
1.14616
1.14763
1.1492
1.15087
1.15264
1.15454
1.15657
1.15877
1.16115
1.16374
1.1666
1.16978
1.17335
1.1774
1.18205
1.18747
1.19441
1.20334
1.21395
1.22665
1.24178
1.26031
1.28116
1.30799
1.33369
1.36741
1.3823
1.35732
1.38612
1.37046
1.41937
1.41447
1.40728
1.41757
1.36146
1.35139
1.36546
1.36829
1.37512
1.37906
1.3337
1.32786
1.35593
1.35933
1.36759
1.34837
1.29744
1.29066
1.29571
1.29241
1.35294
1.36296
1.35586
1.33849
1.29684
1.28791
1.29072
1.28826
1.28795
1.27952
1.26581
1.25306
1.24066
1.22995
1.22032
1.21179
1.2042
1.19739
1.19125
1.18567
1.18053
1.17578
1.17135
1.16722
1.16335
1.15973
1.15632
1.15312
1.15008
1.1472
1.14446
1.14185
1.13936
1.13697
1.1347
1.13252
1.12989
1.13073
1.13158
1.13247
1.1334
1.13438
1.13541
1.13648
1.13762
1.1388
1.14005
1.14136
1.14275
1.14421
1.14576
1.1474
1.14914
1.15099
1.15297
1.15508
1.15735
1.1598
1.16245
1.16535
1.16853
1.17207
1.17603
1.1805
1.18561
1.19152
1.19901
1.20851
1.21958
1.23256
1.24763
1.2656
1.28533
1.30969
1.33275
1.35996
1.37462
1.35796
1.38471
1.37587
1.42278
1.42117
1.41983
1.43569
1.38318
1.37533
1.38647
1.39014
1.39591
1.39894
1.35806
1.35254
1.37126
1.3736
1.38513
1.36914
1.32132
1.3126
1.31491
1.31097
1.35863
1.36276
1.36603
1.34727
1.30112
1.28935
1.28527
1.2832
1.28196
1.27458
1.2634
1.25216
1.24105
1.23102
1.22181
1.21349
1.20595
1.1991
1.19283
1.18705
1.18169
1.1767
1.17203
1.16767
1.16358
1.15974
1.15612
1.1527
1.14945
1.14637
1.14342
1.14062
1.13794
1.13539
1.13296
1.13063
1.12796
1.12888
1.1298
1.13077
1.13179
1.13286
1.13398
1.13516
1.13639
1.13769
1.13905
1.14049
1.142
1.1436
1.14529
1.14709
1.14899
1.15102
1.15319
1.1555
1.15799
1.16067
1.16358
1.16674
1.17022
1.17408
1.17838
1.18322
1.18872
1.19503
1.20295
1.21287
1.22424
1.23732
1.25221
1.26953
1.28823
1.31045
1.33156
1.35414
1.36738
1.35757
1.38112
1.37916
1.42255
1.4237
1.42588
1.44661
1.39695
1.39199
1.40056
1.40475
1.4092
1.41194
1.37556
1.37071
1.38229
1.38356
1.396
1.383
1.33912
1.32931
1.32921
1.32375
1.3582
1.35773
1.37069
1.35253
1.30329
1.28914
1.28055
1.27871
1.27715
1.27064
1.2611
1.25096
1.24082
1.23138
1.22257
1.21449
1.20706
1.2002
1.19384
1.18792
1.18239
1.17722
1.17238
1.16784
1.16357
1.15954
1.15573
1.15211
1.14867
1.14539
1.14227
1.1393
1.13646
1.13376
1.13119
1.12874
1.12603
1.12703
1.12802
1.12906
1.13016
1.13132
1.13253
1.1338
1.13513
1.13653
1.13801
1.13956
1.14119
1.14292
1.14475
1.14669
1.14875
1.15095
1.15329
1.15579
1.15848
1.16138
1.16451
1.16792
1.17166
1.1758
1.1804
1.18555
1.19137
1.198
1.20625
1.21646
1.228
1.24108
1.25572
1.27239
1.29015
1.31054
1.3299
1.34937
1.36128
1.35605
1.37603
1.38057
1.42112
1.42412
1.42708
1.44927
1.40404
1.40253
1.40935
1.4142
1.41674
1.41935
1.38773
1.38371
1.3903
1.39069
1.4022
1.39126
1.35185
1.34161
1.33924
1.33242
1.35468
1.35091
1.37134
1.35474
1.30401
1.28838
1.27699
1.27518
1.27326
1.26738
1.25893
1.24961
1.24023
1.2313
1.22287
1.215
1.20766
1.2008
1.19438
1.18836
1.18272
1.17742
1.17245
1.16777
1.16334
1.15915
1.15516
1.15137
1.14775
1.14431
1.14102
1.1379
1.13493
1.1321
1.12941
1.12683
1.12409
1.12516
1.12622
1.12734
1.12852
1.12975
1.13105
1.13241
1.13383
1.13533
1.13691
1.13857
1.14032
1.14217
1.14413
1.14621
1.14842
1.15076
1.15327
1.15594
1.15882
1.16191
1.16525
1.16888
1.17285
1.17723
1.18209
1.1875
1.19358
1.20046
1.20896
1.21936
1.23097
1.24396
1.2583
1.27435
1.2913
1.31017
1.32805
1.34543
1.35618
1.35386
1.37072
1.38151
1.4194
1.42266
1.42345
1.44445
1.40581
1.40774
1.414
1.41999
1.41983
1.42232
1.39551
1.39243
1.39595
1.39562
1.4048
1.39522
1.36045
1.35024
1.34602
1.3377
1.35009
1.34403
1.36863
1.35475
1.30378
1.28738
1.27462
1.2725
1.27009
1.26458
1.25685
1.24822
1.23944
1.23094
1.22282
1.21513
1.20786
1.201
1.19454
1.18846
1.18274
1.17736
1.17228
1.16747
1.16291
1.15857
1.15442
1.15047
1.14671
1.14312
1.13971
1.13645
1.13336
1.13041
1.12761
1.12493
1.12215
1.12329
1.12442
1.1256
1.12685
1.12816
1.12954
1.13098
1.13249
1.13409
1.13576
1.13752
1.13938
1.14135
1.14343
1.14564
1.14798
1.15047
1.15312
1.15595
1.15899
1.16226
1.16578
1.16961
1.17378
1.17838
1.18345
1.18908
1.19537
1.20244
1.21112
1.22162
1.23323
1.24607
1.26009
1.27556
1.29179
1.30944
1.32619
1.34207
1.35194
1.35179
1.3665
1.38203
1.41871
1.41947
1.41715
1.43278
1.40326
1.40842
1.41538
1.423
1.41944
1.42117
1.40032
1.39769
1.39967
1.39833
1.40514
1.39612
1.36575
1.35589
1.34998
1.34094
1.34579
1.33802
1.3633
1.35221
1.30407
1.28676
1.27318
1.27045
1.26748
1.26214
1.25493
1.24683
1.23853
1.23038
1.22249
1.21493
1.20771
1.20087
1.19439
1.18829
1.18252
1.17707
1.1719
1.16698
1.16229
1.15781
1.15354
1.14946
1.14557
1.14186
1.13833
1.13497
1.13177
1.12871
1.1258
1.12301
1.1202
1.1214
1.12259
1.12384
1.12516
1.12654
1.12799
1.12951
1.13111
1.13279
1.13456
1.13642
1.13838
1.14045
1.14264
1.14497
1.14743
1.15005
1.15284
1.15582
1.15901
1.16243
1.16612
1.17011
1.17447
1.17924
1.1845
1.19031
1.19676
1.20397
1.21277
1.22332
1.23487
1.2475
1.26119
1.2761
1.2917
1.30837
1.32426
1.33908
1.34852
1.35047
1.36431
1.38295
1.41759
1.41418
1.40729
1.41676
1.39724
1.40556
1.41427
1.42368
1.41663
1.41772
1.40181
1.40011
1.40193
1.40087
1.40233
1.39486
1.36865
1.35946
1.35219
1.34274
1.34241
1.33244
1.35794
1.34932
1.30361
1.28617
1.27228
1.26882
1.26531
1.26002
1.25318
1.24549
1.23754
1.22964
1.22192
1.21445
1.2073
1.20049
1.19403
1.18791
1.1821
1.17658
1.17132
1.16629
1.16149
1.1569
1.15252
1.14834
1.14435
1.14055
1.13692
1.13346
1.13016
1.127
1.12399
1.1211
1.11825
1.11951
1.12075
1.12206
1.12344
1.12489
1.12641
1.12801
1.12968
1.13145
1.1333
1.13524
1.1373
1.13947
1.14177
1.1442
1.14678
1.14952
1.15243
1.15553
1.15886
1.16242
1.16626
1.1704
1.17491
1.17983
1.18524
1.19119
1.19777
1.20508
1.21394
1.22449
1.23593
1.24834
1.26168
1.27606
1.29106
1.30689
1.32212
1.33625
1.34571
1.34991
1.36383
1.38363
1.41466
1.40662
1.39472
1.3977
1.38862
1.40006
1.41122
1.42224
1.4121
1.41257
1.40087
1.40029
1.40256
1.40126
1.39908
1.39245
1.36991
1.36126
1.35329
1.34395
1.34071
1.33215
1.34888
1.34522
1.30263
1.28558
1.27164
1.26746
1.26345
1.25815
1.25155
1.24415
1.23646
1.22873
1.22114
1.21377
1.2067
1.19994
1.1935
1.18736
1.1815
1.1759
1.17055
1.16543
1.16053
1.15586
1.15139
1.14713
1.14306
1.13918
1.13547
1.13192
1.12853
1.12527
1.12216
1.11918
1.11629
1.1176
1.1189
1.12027
1.12171
1.12322
1.1248
1.12647
1.12821
1.13005
1.13198
1.13401
1.13615
1.13841
1.14081
1.14334
1.14602
1.14886
1.15188
1.15511
1.15855
1.16224
1.1662
1.17047
1.17511
1.18016
1.18569
1.19175
1.19842
1.20579
1.21468
1.22518
1.23647
1.24862
1.26159
1.27545
1.28988
1.30496
1.31961
1.33329
1.34307
1.3495
1.36374
1.38273
1.40897
1.39682
1.38048
1.3781
1.37872
1.39282
1.40664
1.41878
1.40635
1.40648
1.39813
1.39872
1.40166
1.39997
1.3954
1.38934
1.37004
1.36174
1.35357
1.34468
1.33985
1.33152
1.34192
1.3402
1.30136
1.28492
1.27109
1.26627
1.26181
1.25644
1.24998
1.24278
1.23526
1.22768
1.22021
1.21296
1.20596
1.19925
1.19281
1.18664
1.18073
1.17506
1.16962
1.16442
1.15946
1.15471
1.15018
1.14585
1.14172
1.13776
1.13397
1.13034
1.12686
1.12352
1.12032
1.11726
1.11432
1.11569
1.11703
1.11845
1.11994
1.12151
1.12315
1.12488
1.12669
1.1286
1.1306
1.13271
1.13493
1.13728
1.13976
1.14238
1.14515
1.14809
1.15121
1.15454
1.15809
1.16188
1.16595
1.17033
1.17508
1.18024
1.18586
1.192
1.19873
1.20613
1.21501
1.22541
1.23653
1.24839
1.26097
1.27432
1.28817
1.30254
1.31662
1.32992
1.34012
1.34839
1.36259
1.37924
1.40004
1.38515
1.36582
1.36038
1.36876
1.38464
1.40088
1.41352
1.39979
1.39934
1.39493
1.39585
1.39935
1.39732
1.39133
1.38577
1.36912
1.36137
1.3532
1.34482
1.33954
1.33119
1.33613
1.33456
1.29985
1.28403
1.27044
1.26512
1.26027
1.25478
1.2484
1.24133
1.23396
1.22653
1.2192
1.21205
1.20512
1.19843
1.19198
1.18577
1.1798
1.17406
1.16857
1.16331
1.15829
1.15349
1.1489
1.14451
1.14031
1.13628
1.13242
1.12871
1.12515
1.12174
1.11847
1.11534
1.11235
1.11375
1.11514
1.11661
1.11815
1.11977
1.12147
1.12326
1.12513
1.1271
1.12917
1.13134
1.13364
1.13606
1.13862
1.14132
1.14418
1.14721
1.15042
1.15383
1.15747
1.16136
1.16553
1.17
1.17484
1.18008
1.18577
1.19197
1.19873
1.20614
1.21496
1.22524
1.23614
1.2477
1.25988
1.2727
1.28595
1.29962
1.31309
1.32592
1.33642
1.34584
1.3594
1.37295
1.38818
1.37241
1.35204
1.34602
1.35941
1.37623
1.39427
1.40677
1.39294
1.39257
1.39072
1.39195
1.39579
1.3935
1.38709
1.38189
1.36767
1.36029
1.35229
1.34442
1.33951
1.33126
1.33115
1.32871
1.29812
1.2828
1.26956
1.26386
1.2587
1.25311
1.24678
1.23983
1.23261
1.22533
1.21812
1.21105
1.20417
1.19748
1.19101
1.18476
1.17874
1.17296
1.16742
1.16212
1.15705
1.15219
1.14755
1.1431
1.13883
1.13473
1.1308
1.12702
1.1234
1.11992
1.11659
1.1134
1.11037
1.1118
1.11324
1.11475
1.11634
1.11801
1.11976
1.12159
1.12352
1.12555
1.12768
1.12992
1.13228
1.13477
1.1374
1.14018
1.14311
1.14621
1.1495
1.15299
1.15671
1.16068
1.16493
1.16948
1.17439
1.1797
1.18545
1.19168
1.19845
1.20583
1.21458
1.22471
1.23538
1.2466
1.25836
1.27063
1.28327
1.2962
1.30899
1.32122
1.33175
1.34154
1.35388
1.36434
1.37451
1.35959
1.34005
1.33529
1.35117
1.36821
1.38703
1.39893
1.38609
1.38631
1.38599
1.38742
1.39125
1.38884
1.38289
1.37816
1.36564
1.35855
1.35092
1.34355
1.33941
1.33131
1.32694
1.32306
1.29626
1.2812
1.26835
1.26241
1.25704
1.2514
1.24514
1.23833
1.23126
1.2241
1.21698
1.20996
1.2031
1.1964
1.18991
1.18364
1.17759
1.17178
1.16621
1.16087
1.15575
1.15084
1.14613
1.14161
1.13728
1.13311
1.12911
1.12527
1.12159
1.11806
1.11469
1.11146
1.1084
1.10986
1.11132
1.11287
1.11451
1.11622
1.11801
1.11989
1.12187
1.12395
1.12613
1.12843
1.13085
1.13341
1.1361
1.13894
1.14194
1.14511
1.14846
1.15202
1.15581
1.15985
1.16417
1.16879
1.17376
1.17911
1.1849
1.19115
1.19792
1.20525
1.21391
1.22386
1.23427
1.24515
1.25646
1.26818
1.28017
1.29235
1.30437
1.31587
1.32608
1.3356
1.34635
1.35427
1.36059
1.34748
1.32998
1.32774
1.34407
1.3608
1.3794
1.39045
1.37943
1.38049
1.38103
1.38253
1.38604
1.38368
1.37873
1.37466
1.36311
1.35629
1.34916
1.34225
1.33898
1.33099
1.32333
1.31791
1.2944
1.27927
1.26681
1.26076
1.25531
1.24969
1.24353
1.23685
1.2299
1.22283
1.21576
1.20877
1.20191
1.19521
1.18871
1.18243
1.17637
1.17054
1.16494
1.15956
1.15439
1.14942
1.14465
1.14006
1.13566
1.13143
1.12737
1.12348
1.11976
1.11619
1.11278
1.10951
1.10641
1.1079
1.1094
1.11099
1.11266
1.1144
1.11624
1.11816
1.12018
1.1223
1.12454
1.12689
1.12936
1.13197
1.13472
1.13762
1.14068
1.1439
1.14731
1.15093
1.15478
1.15888
1.16326
1.16793
1.17294
1.17833
1.18414
1.1904
1.19714
1.20442
1.21296
1.22272
1.23287
1.24339
1.25425
1.26541
1.27674
1.28813
1.29933
1.30998
1.31959
1.3284
1.33747
1.34344
1.34663
1.33616
1.32259
1.32219
1.33777
1.35379
1.37166
1.38202
1.37283
1.375
1.37591
1.37742
1.38041
1.37826
1.37455
1.37125
1.36018
1.35363
1.34703
1.34046
1.33794
1.33002
1.3201
1.31342
1.29264
1.27719
1.26506
1.25899
1.25357
1.24803
1.24197
1.23541
1.22853
1.22151
1.21447
1.20748
1.20063
1.19393
1.18744
1.18115
1.17509
1.16924
1.16361
1.15819
1.15296
1.14794
1.1431
1.13845
1.13399
1.12971
1.1256
1.12167
1.1179
1.1143
1.11086
1.10757
1.1044
1.10593
1.10746
1.10908
1.11078
1.11256
1.11443
1.11639
1.11845
1.12062
1.12289
1.12529
1.12781
1.13047
1.13327
1.13622
1.13932
1.1426
1.14606
1.14973
1.15363
1.15778
1.1622
1.16692
1.17197
1.17738
1.18319
1.18943
1.19614
1.20335
1.21178
1.22134
1.2312
1.24136
1.25177
1.26237
1.27303
1.28364
1.29397
1.3037
1.31252
1.32042
1.32792
1.33248
1.33386
1.32593
1.316
1.31735
1.33172
1.34695
1.36394
1.37301
1.36724
1.36976
1.37068
1.37219
1.3746
1.37277
1.3702
1.36765
1.35693
1.35064
1.34447
1.3381
1.33603
1.32823
1.3171
1.30969
1.29112
1.27519
1.2633
1.25726
1.25191
1.24645
1.24048
1.23397
1.22713
1.22013
1.2131
1.20612
1.19927
1.19259
1.1861
1.17982
1.17374
1.16788
1.16221
1.15674
1.15147
1.14638
1.14149
1.1368
1.13228
1.12796
1.12382
1.11985
1.11605
1.11242
1.10894
1.10562
1.10239
1.10395
1.10551
1.10716
1.10889
1.1107
1.11259
1.11459
1.11668
1.11888
1.1212
1.12364
1.1262
1.1289
1.13174
1.13473
1.13788
1.14121
1.14471
1.14842
1.15236
1.15656
1.16102
1.16577
1.17084
1.17626
1.18207
1.18829
1.19495
1.20208
1.21037
1.21973
1.22932
1.23911
1.24907
1.25912
1.26913
1.27897
1.28842
1.29722
1.30515
1.31207
1.31823
1.32176
1.32217
1.31649
1.30958
1.31228
1.32559
1.34028
1.35657
1.36472
1.36141
1.36453
1.36538
1.36693
1.36881
1.36733
1.36562
1.36366
1.35334
1.34729
1.34143
1.33514
1.33313
1.32554
1.31425
1.30674
1.28996
1.27354
1.26178
1.25571
1.2504
1.24499
1.23904
1.23255
1.22572
1.21872
1.21169
1.20472
1.19788
1.19121
1.18472
1.17843
1.17233
1.16643
1.16072
1.15521
1.14989
1.14477
1.13984
1.1351
1.13056
1.1262
1.12203
1.11803
1.11421
1.11054
1.10703
1.10368
1.10037
1.10197
1.10355
1.10522
1.10697
1.10881
1.11073
1.11275
1.11488
1.11711
1.11946
1.12193
1.12453
1.12727
1.13015
1.13318
1.13637
1.13973
1.14327
1.14702
1.151
1.15522
1.15972
1.16449
1.16958
1.175
1.18079
1.18698
1.19358
1.20062
1.20878
1.21793
1.22724
1.23669
1.24621
1.25573
1.26511
1.2742
1.28282
1.29071
1.29773
1.3037
1.30875
1.31149
1.31137
1.30741
1.3028
1.30641
1.31912
1.33374
1.34944
1.35711
1.35565
1.35929
1.36008
1.36173
1.36322
1.36205
1.3608
1.35916
1.34941
1.34358
1.33792
1.33162
1.32927
1.32202
1.31149
1.30452
1.28921
1.27245
1.26067
1.25444
1.24907
1.24363
1.23766
1.23115
1.2243
1.21729
1.21026
1.2033
1.19646
1.18978
1.18328
1.17696
1.17083
1.1649
1.15915
1.1536
1.14825
1.1431
1.13814
1.13339
1.12882
1.12444
1.12024
1.11622
1.11236
1.10867
1.10512
1.10173
1.09835
1.09997
1.10157
1.10326
1.10503
1.10689
1.10884
1.11089
1.11304
1.1153
1.11769
1.12019
1.12282
1.12558
1.12849
1.13155
1.13477
1.13816
1.14174
1.14553
1.14953
1.15379
1.1583
1.1631
1.16819
1.17361
1.17938
1.18552
1.19206
1.19901
1.20703
1.21597
1.22501
1.23413
1.24324
1.25226
1.26105
1.26945
1.27728
1.28432
1.29046
1.29554
1.29968
1.30176
1.30129
1.29841
1.29523
1.29945
1.31221
1.32729
1.3427
1.3501
1.35005
1.35402
1.35484
1.35667
1.35795
1.35697
1.35575
1.35425
1.34524
1.3396
1.33403
1.32764
1.32462
1.3178
1.30875
1.30284
1.2888
1.27197
1.26006
1.25351
1.24794
1.24238
1.23633
1.22977
1.22289
1.21587
1.20883
1.20186
1.19501
1.18831
1.18177
1.17542
1.16925
1.16327
1.1575
1.15192
1.14655
1.14138
1.13641
1.13164
1.12706
1.12267
1.11845
1.1144
1.11051
1.10679
1.10321
1.09979
1.09632
1.09796
1.09958
1.10129
1.10308
1.10496
1.10693
1.109
1.11117
1.11346
1.11587
1.1184
1.12105
1.12384
1.12677
1.12986
1.1331
1.13653
1.14014
1.14395
1.14798
1.15225
1.15679
1.1616
1.16669
1.1721
1.17784
1.18394
1.1904
1.19726
1.20514
1.21388
1.22267
1.23147
1.24019
1.24875
1.257
1.26478
1.2719
1.27817
1.28352
1.28781
1.29117
1.29262
1.29176
1.28927
1.28677
1.29149
1.30495
1.32101
1.33649
1.34368
1.34459
1.34869
1.34972
1.35178
1.35302
1.35211
1.35062
1.34911
1.34095
1.33546
1.32991
1.3234
1.31946
1.3131
1.30594
1.30142
1.28852
1.27197
1.25992
1.25291
1.24702
1.24125
1.23507
1.22844
1.22151
1.21446
1.2074
1.20041
1.19352
1.18678
1.1802
1.1738
1.16759
1.16159
1.15578
1.15019
1.1448
1.13962
1.13465
1.12987
1.12527
1.12086
1.11662
1.11255
1.10864
1.10489
1.10129
1.09784
1.09429
1.09594
1.09757
1.09929
1.1011
1.103
1.10499
1.10708
1.10927
1.11158
1.11401
1.11656
1.11924
1.12205
1.125
1.12811
1.13138
1.13482
1.13846
1.14229
1.14635
1.15064
1.15518
1.15999
1.16509
1.17048
1.17619
1.18224
1.18863
1.1954
1.20314
1.21169
1.22024
1.22874
1.23711
1.24526
1.25304
1.26027
1.26677
1.27238
1.27704
1.28066
1.28329
1.28408
1.28264
1.27993
1.27758
1.28286
1.29762
1.31505
1.33087
1.3378
1.33928
1.34338
1.34475
1.34711
1.34831
1.34742
1.34545
1.34391
1.33662
1.33129
1.3257
1.31907
1.31413
1.30816
1.303
1.29996
1.28814
1.27223
1.26009
1.25258
1.24626
1.24022
1.23387
1.22714
1.22015
1.21306
1.20596
1.19892
1.19199
1.1852
1.17857
1.17213
1.16589
1.15985
1.15403
1.14842
1.14302
1.13783
1.13284
1.12805
1.12344
1.11901
1.11476
1.11067
1.10674
1.10297
1.09935
1.09589
1.09225
1.09391
1.09555
1.09729
1.09911
1.10103
1.10303
1.10514
1.10735
1.10968
1.11212
1.11469
1.11738
1.12021
1.12318
1.1263
1.12959
1.13305
1.13671
1.14057
1.14464
1.14894
1.15349
1.1583
1.16339
1.16876
1.17443
1.18043
1.18676
1.19343
1.20104
1.20941
1.21774
1.22598
1.23404
1.24182
1.24919
1.25596
1.26196
1.26703
1.27112
1.27416
1.2761
1.27616
1.2739
1.27047
1.268
1.27402
1.29058
1.3096
1.32585
1.3324
1.33422
1.3382
1.33996
1.34254
1.34378
1.34285
1.34038
1.33873
1.33232
1.32719
1.32157
1.31486
1.30898
1.30327
1.29989
1.29818
1.28744
1.27244
1.26038
1.2524
1.24561
1.23925
1.2327
1.22584
1.21878
1.21163
1.20447
1.19738
1.19041
1.18357
1.17691
1.17043
1.16416
1.1581
1.15226
1.14663
1.14122
1.13601
1.131
1.12619
1.12156
1.11712
1.11285
1.10875
1.10481
1.10103
1.09741
1.09394
1.0902
1.09187
1.09352
1.09527
1.09711
1.09903
1.10105
1.10317
1.1054
1.10774
1.1102
1.11278
1.11549
1.11833
1.12131
1.12445
1.12775
1.13123
1.13491
1.13878
1.14287
1.14718
1.15173
1.15653
1.1616
1.16695
1.17258
1.17852
1.18478
1.19136
1.19885
1.20706
1.2152
1.22319
1.23098
1.23846
1.24549
1.2519
1.2575
1.26216
1.26581
1.26837
1.26965
1.26889
1.26558
1.26113
1.25847
1.26558
1.28429
1.30485
1.32142
1.32748
1.32953
1.33327
1.33538
1.33805
1.33926
1.33832
1.33551
1.33371
1.32811
1.32324
1.31762
1.31094
1.30433
1.29871
1.29667
1.29595
1.28629
1.27237
1.26056
1.25223
1.24498
1.23829
1.23152
1.22453
1.21737
1.21015
1.20294
1.1958
1.18879
1.18192
1.17522
1.16873
1.16243
1.15636
1.15049
1.14484
1.1394
1.13417
1.12913
1.12429
1.11965
1.11518
1.1109
1.10679
1.10285
1.09907
1.09545
1.09198
1.08814
1.08982
1.09148
1.09324
1.09509
1.09702
1.09906
1.10119
1.10343
1.10578
1.10825
1.11084
1.11355
1.1164
1.1194
1.12255
1.12587
1.12936
1.13305
1.13694
1.14104
1.14535
1.1499
1.15469
1.15974
1.16505
1.17065
1.17653
1.18272
1.18922
1.19659
1.20465
1.21261
1.2204
1.22796
1.23519
1.24195
1.24808
1.25342
1.25779
1.26113
1.2633
1.26399
1.26233
1.25782
1.25223
1.2495
1.2582
1.27915
1.301
1.31758
1.32306
1.3253
1.32875
1.33107
1.33362
1.33466
1.33376
1.33088
1.32899
1.3241
1.31952
1.31399
1.30748
1.30042
1.29477
1.29348
1.2933
1.28467
1.27189
1.26049
1.25193
1.2443
1.23728
1.2303
1.22315
1.2159
1.20861
1.20135
1.19418
1.18714
1.18025
1.17354
1.16703
1.16072
1.15462
1.14873
1.14305
1.13758
1.13231
1.12725
1.12238
1.11771
1.11323
1.10894
1.10482
1.10088
1.0971
1.09349
1.09004
1.08608
1.08776
1.08943
1.0912
1.09305
1.095
1.09704
1.09919
1.10144
1.1038
1.10627
1.10886
1.11159
1.11444
1.11745
1.12061
1.12394
1.12744
1.13114
1.13504
1.13915
1.14347
1.14801
1.15279
1.15781
1.16309
1.16864
1.17447
1.18059
1.187
1.19427
1.20219
1.21
1.21762
1.22499
1.23202
1.23858
1.24453
1.2497
1.25392
1.25708
1.25898
1.25913
1.25656
1.25083
1.2442
1.24182
1.25242
1.27543
1.29814
1.31433
1.3192
1.32163
1.32474
1.32707
1.32931
1.32998
1.32921
1.32656
1.32468
1.32033
1.31609
1.31075
1.30457
1.29741
1.29166
1.29052
1.29037
1.28267
1.27095
1.26006
1.25141
1.24349
1.23618
1.22898
1.2217
1.21436
1.20702
1.19973
1.19254
1.18548
1.17859
1.17187
1.16535
1.15902
1.1529
1.14698
1.14127
1.13577
1.13047
1.12538
1.12049
1.1158
1.1113
1.107
1.10289
1.09894
1.09517
1.09156
1.08811
1.08402
1.0857
1.08738
1.08915
1.09101
1.09297
1.09502
1.09717
1.09943
1.10179
1.10427
1.10686
1.10959
1.11245
1.11546
1.11863
1.12197
1.12549
1.12919
1.1331
1.1372
1.14152
1.14606
1.15082
1.15581
1.16106
1.16656
1.17233
1.17838
1.18471
1.19188
1.19969
1.20736
1.21484
1.22207
1.22895
1.23538
1.24123
1.24633
1.25051
1.25362
1.25536
1.25509
1.25169
1.24487
1.23753
1.2361
1.24862
1.27334
1.29634
1.3117
1.31593
1.31855
1.3213
1.32344
1.32518
1.32531
1.32475
1.32261
1.32084
1.31686
1.313
1.30797
1.30225
1.29532
1.28946
1.28798
1.28739
1.2804
1.26962
1.25927
1.25063
1.24251
1.23497
1.22758
1.22018
1.21277
1.20538
1.19807
1.19088
1.18382
1.17693
1.17022
1.16369
1.15735
1.15121
1.14526
1.13952
1.13399
1.12866
1.12354
1.11863
1.11392
1.10941
1.10509
1.10097
1.09703
1.09326
1.08964
1.08617
1.08195
1.08364
1.08532
1.08709
1.08896
1.09092
1.09298
1.09513
1.09739
1.09976
1.10224
1.10484
1.10757
1.11044
1.11345
1.11662
1.11997
1.12349
1.1272
1.13111
1.13521
1.13952
1.14405
1.14879
1.15375
1.15896
1.16442
1.17013
1.17612
1.18237
1.18945
1.19715
1.20471
1.21208
1.21919
1.22597
1.23234
1.23815
1.24327
1.24753
1.25072
1.25243
1.25187
1.24783
1.24023
1.2327
1.23271
1.24712
1.27298
1.29561
1.30972
1.31332
1.31603
1.3184
1.32021
1.32133
1.32084
1.32053
1.31905
1.31744
1.31372
1.31025
1.30561
1.3005
1.29406
1.28814
1.28593
1.28455
1.27803
1.26802
1.25816
1.2496
1.24137
1.23365
1.22611
1.21861
1.21114
1.20373
1.19642
1.18922
1.18218
1.17529
1.16858
1.16204
1.15569
1.14954
1.14357
1.13782
1.13226
1.12691
1.12176
1.11683
1.11209
1.10756
1.10322
1.09907
1.09511
1.09134
1.08779
1.08442
1.07988
1.08157
1.08325
1.08503
1.0869
1.08887
1.09092
1.09308
1.09534
1.09771
1.10019
1.10279
1.10552
1.10839
1.11141
1.11459
1.11794
1.12147
1.12518
1.12908
1.13318
1.13748
1.14198
1.1467
1.15164
1.1568
1.16221
1.16787
1.17379
1.17998
1.18697
1.19457
1.20204
1.20932
1.21635
1.22308
1.22942
1.23527
1.24049
1.24492
1.24829
1.25014
1.24948
1.24507
1.23712
1.23009
1.23187
1.24801
1.27427
1.29589
1.30843
1.31134
1.31397
1.31598
1.31741
1.31786
1.31676
1.31669
1.31586
1.31443
1.31089
1.30782
1.30364
1.29919
1.29341
1.28752
1.2844
1.28198
1.27567
1.26627
1.25682
1.24837
1.2401
1.23225
1.22461
1.21704
1.20953
1.2021
1.19479
1.1876
1.18056
1.17367
1.16696
1.16042
1.15406
1.1479
1.14193
1.13616
1.1306
1.12523
1.12008
1.11513
1.11038
1.10583
1.10147
1.0973
1.09331
1.0895
1.08588
1.08245
1.0778
1.0795
1.08119
1.08297
1.08484
1.0868
1.08886
1.09101
1.09327
1.09563
1.09811
1.10072
1.10345
1.10633
1.10935
1.11254
1.11589
1.11941
1.12312
1.12701
1.1311
1.13538
1.13986
1.14456
1.14946
1.15459
1.15995
1.16555
1.17141
1.17752
1.18443
1.19195
1.19934
1.20655
1.21354
1.22025
1.22662
1.23255
1.23794
1.24261
1.24628
1.2484
1.24789
1.24344
1.2357
1.22987
1.23362
1.25113
1.27699
1.29702
1.30781
1.30996
1.31226
1.31393
1.31502
1.31485
1.31326
1.31334
1.313
1.31171
1.30833
1.30564
1.30194
1.29815
1.29311
1.28732
1.28326
1.27974
1.27343
1.26448
1.25536
1.24702
1.23876
1.23085
1.22312
1.2155
1.20797
1.20053
1.19321
1.18602
1.17897
1.17209
1.16537
1.15883
1.15247
1.14631
1.14034
1.13457
1.12901
1.12364
1.11848
1.11352
1.10875
1.10418
1.0998
1.0956
1.09156
1.08768
1.08397
1.08043
1.07572
1.07742
1.07912