/*--------------------------------*- C++ -*----------------------------------*\
  =========                 |
  \\      /  F ield         | OpenFOAM: The Open Source CFD Toolbox
   \\    /   O peration     | Website:  https://openfoam.org
    \\  /    A nd           | Version:  9
     \\/     M anipulation  |
\*---------------------------------------------------------------------------*/
FoamFile
{
    format      ascii;
    class       volScalarField;
    location    "0.06";
    object      p_rgh;
}
// * * * * * * * * * * * * * * * * * * * * * * * * * * * * * * * * * * * * * //

dimensions      [1 -1 -2 0 0 0 0];

internalField   nonuniform List<scalar> 
20000
(
-3.00722e-06
-2.5362e-06
1.05283e-05
3.02977e-05
5.20072e-05
7.24413e-05
8.87829e-05
9.83749e-05
9.85432e-05
8.64696e-05
5.90572e-05
1.27883e-05
-5.64139e-05
-0.000153333
-0.000283609
-0.000453904
-0.000672116
-0.000947624
-0.0012916
-0.00171735
-0.00224082
-0.00288115
-0.00366143
-0.00460992
-0.00576167
-0.00716136
-0.00886791
-0.0109622
-0.0135591
-0.0168218
-0.0213271
-0.0274394
-0.0350069
-0.0443948
-0.0558899
-0.0687573
-0.0775592
-0.0674489
-0.033814
-0.107057
-0.00385805
0.00537067
-0.170568
-0.24978
-0.556144
-1.00954
-1.07912
-0.61118
-0.373436
-0.386476
-0.599598
-0.906821
-0.950863
-0.63359
-0.428941
-0.432005
-0.655213
-0.925225
-0.976957
-0.586317
-0.313795
-0.235532
-0.228008
-0.292506
-0.557437
-0.905564
-0.932639
-0.512525
-0.230541
-0.15991
-0.206361
-0.193207
-0.793672
-0.320592
-0.0895734
-0.0364427
-0.0195406
-0.0135516
-0.0103506
-0.0079367
-0.00591011
-0.0041993
-0.00278204
-0.00163369
-0.000724385
-2.24435e-05
0.0005032
0.000881353
0.00113745
0.00129312
0.00136634
0.00137203
0.00132264
0.00122883
0.00109955
0.000942324
0.000763289
0.000566709
0.000355681
0.000131024
2.75135e-05
8.95046e-05
0.000170067
0.000264495
0.000369239
0.000481704
0.000599621
0.000720696
0.000842632
0.000963086
0.00107959
0.0011894
0.00128947
0.00137624
0.00144561
0.00149274
0.00151192
0.00149633
0.00143786
0.00132686
0.00115192
0.000899581
0.000553844
9.54573e-05
-0.000499239
-0.00125996
-0.00222472
-0.00344279
-0.00497738
-0.00690523
-0.00952196
-0.0129465
-0.0168891
-0.0211206
-0.0249221
-0.0264727
-0.0218886
-0.00604316
0.0310434
0.0580299
0.0481028
0.0411359
-0.00445629
-0.181833
-0.430448
-0.694713
-0.716432
-0.494729
-0.361422
-0.375552
-0.53459
-0.699537
-0.708156
-0.550439
-0.404298
-0.407295
-0.567431
-0.69496
-0.733521
-0.501939
-0.296403
-0.239446
-0.233601
-0.28026
-0.475809
-0.651259
-0.663532
-0.424075
-0.204441
-0.144581
-0.0861416
-0.128653
-0.337086
-0.155182
-0.0667995
-0.0306062
-0.00998225
-0.000470631
0.00397258
0.00612623
0.00716538
0.00764021
0.00780665
0.00778237
0.00762272
0.007359
0.00701521
0.00661195
0.00616545
0.00568684
0.00518315
0.00465937
0.00412013
0.00357041
0.00301536
0.00245968
0.00190702
0.00135935
0.0008188
0.000280878
8.07206e-05
0.000239174
0.000405351
0.000581984
0.000769022
0.000965951
0.00117218
0.00138674
0.00160844
0.00183586
0.0020674
0.00230124
0.00253532
0.00276731
0.0029945
0.00321371
0.00342109
0.00361198
0.00378075
0.00392075
0.00402436
0.00408303
0.00408715
0.00402573
0.00388586
0.00365232
0.00330733
0.00283071
0.00220161
0.00140604
0.000359864
-0.000843931
-0.00185613
-0.00214849
-0.000691279
0.00443105
0.0172827
0.0425137
0.0935268
0.194093
0.150249
0.115423
0.130092
-0.0637278
-0.198219
-0.395702
-0.412469
-0.280221
-0.261763
-0.283616
-0.360548
-0.476417
-0.474929
-0.367453
-0.305515
-0.306816
-0.362838
-0.445014
-0.50131
-0.334714
-0.226142
-0.198012
-0.192337
-0.206747
-0.293849
-0.397257
-0.414753
-0.24628
-0.117258
-0.0735467
0.0802686
0.0163521
-0.0592973
0.0142331
0.00848809
0.0103915
0.0149737
0.0168736
0.0175995
0.0175405
0.0169987
0.0162189
0.0153338
0.0143985
0.0134346
0.012456
0.0114772
0.0105106
0.00956234
0.00863258
0.00771832
0.00681719
0.00592935
0.00505754
0.004206
0.00337893
0.00257951
0.00180922
0.00106962
0.000356468
0.000125019
0.000371456
0.000623036
0.00088674
0.00116333
0.0014527
0.0017549
0.00206977
0.00239698
0.00273598
0.0030861
0.00344653
0.00381634
0.00419452
0.00457989
0.00497095
0.00536575
0.00576174
0.00615576
0.00654421
0.00692339
0.0072898
0.00764038
0.00797247
0.00828399
0.00857421
0.00884508
0.00910349
0.00936581
0.00967041
0.0101244
0.0109955
0.0126244
0.0156983
0.0214058
0.031683
0.051038
0.084172
0.137186
0.249348
0.220622
0.170399
0.197302
0.0351303
-0.0134985
-0.154908
-0.175763
-0.103727
-0.149218
-0.171235
-0.191684
-0.270462
-0.263319
-0.191694
-0.191269
-0.191411
-0.174244
-0.226852
-0.286127
-0.179505
-0.146983
-0.133896
-0.127593
-0.122181
-0.131227
-0.180431
-0.200094
-0.0874153
-0.0276697
-0.00224842
0.154373
0.110288
0.0894605
0.108001
0.0664477
0.0529098
0.0440423
0.0375808
0.0333091
0.0300424
0.0273436
0.0250119
0.0229324
0.0210169
0.0192235
0.017532
0.0159351
0.0144264
0.0129946
0.0116262
0.0103093
0.00903642
0.00780537
0.00661727
0.00547457
0.00437929
0.00333193
0.00233123
0.00137587
0.000458355
0.000170378
0.000504274
0.000843355
0.00119843
0.00157073
0.00196004
0.00236682
0.00279142
0.00323409
0.00369499
0.00417423
0.00467199
0.00518852
0.00572416
0.00627925
0.00685405
0.00744848
0.00806215
0.00869444
0.0093449
0.0100139
0.0107031
0.011416
0.0121579
0.0129374
0.0137673
0.0146681
0.0156709
0.016825
0.0182138
0.0201185
0.0229386
0.0269605
0.0329563
0.0422026
0.0564828
0.0795849
0.11599
0.161502
0.25864
0.253787
0.197974
0.220058
0.0988689
0.100071
0.0122949
-0.0109943
0.0170176
-0.0538317
-0.0727003
-0.0642858
-0.109128
-0.0961505
-0.0580047
-0.0914735
-0.0923637
-0.0396225
-0.0651317
-0.114938
-0.0625668
-0.0750525
-0.0670324
-0.0606458
-0.0505373
-0.0151073
-0.0218067
-0.0431243
0.0211851
0.0377469
0.0485715
0.164745
0.147112
0.149572
0.143822
0.0987302
0.0817038
0.0668773
0.0562126
0.0486375
0.0427819
0.0381386
0.0342758
0.0309591
0.0280192
0.0253615
0.0229333
0.0206988
0.0186263
0.0166859
0.0148518
0.013106
0.0114384
0.00984451
0.00832286
0.00687224
0.00549056
0.00417462
0.00291978
0.00172246
0.000572021
0.000214906
0.000636136
0.00106317
0.0015107
0.00198024
0.00247162
0.0029857
0.00352328
0.0040851
0.00467191
0.00528457
0.00592417
0.00659208
0.00728995
0.00801963
0.00878301
0.00958185
0.0104178
0.0112928
0.0122095
0.0131722
0.0141877
0.0152653
0.0164179
0.0176636
0.0190281
0.0205477
0.0222741
0.0242833
0.0266953
0.0299407
0.0345052
0.0405856
0.0489527
0.0608089
0.0776762
0.101819
0.138808
0.176682
0.257191
0.265067
0.209137
0.230463
0.143167
0.171483
0.120681
0.0963926
0.103893
0.025768
0.00942975
0.0289539
0.00764
0.0241084
0.0402436
-0.00820414
-0.0107181
0.0530715
0.0453092
0.00789682
0.0239349
-0.0116875
-0.00655047
-3.4609e-05
0.00844006
0.0666793
0.0824996
0.0618756
0.0904992
0.0826659
0.086436
0.166166
0.157691
0.166302
0.155043
0.116644
0.098882
0.0821958
0.0702572
0.0611589
0.0538467
0.0478814
0.0428662
0.0385311
0.034704
0.031279
0.0281827
0.0253559
0.0227472
0.0203142
0.0180257
0.0158619
0.013811
0.0118663
0.0100218
0.00827139
0.00660815
0.00502508
0.00351519
0.0020732
0.000688126
0.000258245
0.000765921
0.00128016
0.00181931
0.00238529
0.00297803
0.00359875
0.00424867
0.00492899
0.00564101
0.00638631
0.00716681
0.00798496
0.00884362
0.00974606
0.0106957
0.011696
0.0127505
0.0138635
0.0150406
0.0162899
0.0176225
0.0190532
0.0206014
0.0222938
0.0241669
0.0262702
0.0286716
0.0314667
0.034801
0.0392255
0.0452675
0.0530055
0.0631413
0.0766701
0.0949926
0.11904
0.154859
0.187416
0.254077
0.266698
0.213836
0.239556
0.178913
0.221289
0.191446
0.167662
0.170669
0.0937034
0.0793998
0.101242
0.093472
0.107239
0.11521
0.0622525
0.058192
0.119267
0.119822
0.0953512
0.0913466
0.0441508
0.0460379
0.0529598
0.0585878
0.127737
0.15087
0.12987
0.136667
0.115548
0.115363
0.167113
0.160821
0.168247
0.157511
0.127256
0.109552
0.0927996
0.0806154
0.0708234
0.0627575
0.0560076
0.0502094
0.0451359
0.0406383
0.0366096
0.0329643
0.0296297
0.0265462
0.0236694
0.0209694
0.0184274
0.0160305
0.013768
0.0116286
0.00960103
0.0076741
0.00583814
0.00408494
0.00240913
0.000799848
0.000300248
0.000893336
0.00149337
0.00212271
0.00278372
0.00347636
0.00420216
0.00496271
0.00575964
0.00659477
0.00747029
0.00838897
0.00935419
0.01037
0.0114409
0.0125717
0.0137674
0.0150333
0.0163758
0.0178034
0.0193273
0.0209626
0.0227283
0.0246497
0.0267605
0.0291063
0.0317468
0.0347611
0.0382579
0.0423971
0.0478213
0.0550623
0.064065
0.0754411
0.089919
0.108807
0.131929
0.164423
0.19609
0.249195
0.265023
0.216177
0.246162
0.207661
0.255622
0.237841
0.217722
0.221986
0.149961
0.138019
0.158267
0.156664
0.167116
0.173359
0.120791
0.115575
0.166852
0.170279
0.159719
0.14499
0.0925117
0.0912118
0.0984028
0.100596
0.173257
0.194883
0.174784
0.169117
0.139434
0.13609
0.166423
0.161326
0.165791
0.155785
0.132664
0.116121
0.100423
0.0884614
0.0783973
0.0699313
0.0626882
0.0563671
0.0507844
0.0458039
0.0413162
0.0372292
0.0334673
0.0299741
0.0267108
0.0236523
0.0207803
0.0180793
0.0155337
0.0131272
0.0108445
0.00867199
0.00659903
0.00461752
0.00272285
0.000904605
0.000340989
0.00101859
0.00170274
0.00242059
0.00317499
0.0039658
0.00479488
0.00566416
0.00657565
0.00753163
0.00853488
0.00958888
0.0106979
0.0118671
0.0131021
0.014409
0.015794
0.017264
0.0188274
0.0204952
0.0222813
0.024204
0.0262859
0.028557
0.0310568
0.0338377
0.0369666
0.0405305
0.044645
0.049476
0.0557319
0.0639235
0.0738626
0.0860532
0.101031
0.119913
0.14191
0.171484
0.200393
0.24244
0.257694
0.221955
0.251477
0.22719
0.276639
0.266636
0.252579
0.258858
0.195951
0.184703
0.201892
0.203206
0.211361
0.216623
0.167114
0.161244
0.200608
0.204563
0.205691
0.186088
0.13312
0.128913
0.135772
0.134242
0.203983
0.220378
0.204702
0.191662
0.155433
0.149424
0.163065
0.159484
0.161583
0.152049
0.134423
0.119769
0.105728
0.0943033
0.0843393
0.0757356
0.0682166
0.0615703
0.0556464
0.0503154
0.0454686
0.0410165
0.0368919
0.0330483
0.0294551
0.0260898
0.0229327
0.019964
0.0171635
0.0145119
0.011992
0.00959024
0.00729672
0.00510418
0.00300896
0.00100033
0.000380164
0.00114107
0.00190706
0.00271119
0.0035567
0.00444334
0.00537323
0.00634866
0.00737199
0.00844589
0.00957368
0.0107595
0.0120086
0.0133268
0.014721
0.0161981
0.0177657
0.0194319
0.021207
0.0231039
0.0251391
0.0273331
0.0297115
0.032308
0.0351666
0.0383443
0.0419128
0.0459633
0.0506145
0.0560314
0.0629705
0.0719065
0.0825186
0.0952154
0.110349
0.128876
0.149728
0.176558
0.202252
0.235971
0.25086
0.225889
0.254685
0.23902
0.287931
0.283034
0.275844
0.28613
0.230028
0.219951
0.234021
0.236855
0.243682
0.247625
0.202262
0.196426
0.224496
0.227893
0.236157
0.216934
0.166005
0.159229
0.164277
0.160975
0.2215
0.231522
0.224424
0.207057
0.165402
0.156472
0.159281
0.156827
0.156515
0.148089
0.134378
0.121628
0.109228
0.0985128
0.0888849
0.0803579
0.072762
0.0659571
0.059819
0.0542315
0.0490976
0.0443434
0.0399168
0.0357829
0.0319157
0.0282919
0.0248883
0.0216813
0.0186482
0.0157696
0.0130295
0.0104161
0.00792095
0.00553774
0.00326331
0.0010855
0.000417108
0.00125944
0.00210443
0.00299193
0.00392561
0.00490496
0.0059324
0.00701051
0.00814196
0.00932981
0.0105779
0.0118909
0.0132749
0.0147366
0.0162837
0.017924
0.019666
0.0215191
0.023495
0.0256084
0.0278777
0.030325
0.0329783
0.0358741
0.03906
0.0425956
0.0465548
0.0510302
0.0561407
0.0620466
0.069536
0.0790378
0.0901109
0.103085
0.118157
0.136124
0.15586
0.180217
0.203277
0.230487
0.245148
0.228483
0.255233
0.246398
0.293306
0.291696
0.290361
0.306212
0.25371
0.245859
0.256999
0.260662
0.266434
0.269467
0.228588
0.223066
0.241786
0.244124
0.255658
0.239667
0.191844
0.183122
0.18544
0.181495
0.229159
0.233285
0.236552
0.217798
0.171644
0.159877
0.155793
0.153729
0.152491
0.145105
0.13393
0.122684
0.111577
0.101551
0.092339
0.0840152
0.0764766
0.0696238
0.0633555
0.0575781
0.052219
0.0472256
0.0425613
0.0381977
0.0341088
0.0302679
0.0266487
0.0232263
0.0199797
0.0168918
0.0139499
0.0111447
0.00846926
0.0059174
0.00348576
0.00116001
0.000450966
0.00137215
0.00229291
0.00326049
0.00427888
0.00534729
0.00646839
0.00764504
0.00888019
0.0101773
0.0115405
0.0129753
0.0144883
0.0160869
0.0177796
0.0195748
0.0214819
0.0235111
0.0256757
0.0279915
0.0304784
0.0331596
0.0360648
0.0392327
0.0427133
0.046568
0.0508703
0.0557118
0.0612083
0.0675142
0.0754372
0.0853553
0.096725
0.109811
0.1247
0.142021
0.160716
0.182935
0.204051
0.22663
0.239864
0.230054
0.253608
0.251649
0.295036
0.296184
0.298371
0.319102
0.269437
0.264478
0.273045
0.277237
0.281689
0.284425
0.248044
0.243203
0.254775
0.256048
0.268491
0.255486
0.211604
0.2018
0.201696
0.196234
0.230686
0.230223
0.243178
0.225022
0.175776
0.161625
0.153034
0.1512
0.14964
0.143131
0.133589
0.123444
0.113306
0.103864
0.0950616
0.086978
0.079544
0.072686
0.066329
0.0604097
0.0548821
0.049712
0.0448706
0.0403296
0.0360599
0.0320323
0.0282203
0.024602
0.0211602
0.0178825
0.0147597
0.0117843
0.00895013
0.00625044
0.00368101
0.00122534
0.000480917
0.00147774
0.00247088
0.00351499
0.00461431
0.00576777
0.00697826
0.00824891
0.00958291
0.010984
0.0124569
0.0140075
0.015643
0.0173714
0.0192018
0.021143
0.0232051
0.0253992
0.0277395
0.0302432
0.0329306
0.0358259
0.0389597
0.0423723
0.0461155
0.0502515
0.0548519
0.0600048
0.065821
0.0724471
0.0807022
0.0909121
0.102454
0.115533
0.13017
0.14684
0.164602
0.18499
0.204351
0.223816
0.235732
0.230497
0.250481
0.255023
0.295566
0.298567
0.301532
0.323719
0.27849
0.27698
0.283802
0.288654
0.291191
0.293797
0.262183
0.25816
0.264747
0.265138
0.276648
0.265713
0.226305
0.21606
0.213693
0.206869
0.229127
0.225361
0.245792
0.229195
0.178465
0.162827
0.151441
0.149631
0.147709
0.141834
0.13338
0.124058
0.114681
0.105749
0.0973164
0.0894526
0.0821131
0.0752531
0.0688299
0.0628099
0.0571663
0.0518727
0.0469003
0.0422175
0.0377931
0.033599
0.0296126
0.0258173
0.0222015
0.0187565
0.0154755
0.0123519
0.00937892
0.00654886
0.00385637
0.00128387
0.000506203
0.00157491
0.00263684
0.00375371
0.00492992
0.00616412
0.00745942
0.0088192
0.0102469
0.0117466
0.0133233
0.0149834
0.0167345
0.0185853
0.0205451
0.0226232
0.0248299
0.0271774
0.0296804
0.032357
0.0352281
0.0383181
0.0416578
0.0452886
0.0492636
0.0536446
0.0585013
0.0639161
0.0699932
0.0768707
0.0853714
0.0957704
0.107385
0.120373
0.134717
0.150765
0.167709
0.186583
0.204463
0.221841
0.232593
0.230268
0.247132
0.257925
0.295811
0.299075
0.299862
0.320862
0.282223
0.28415
0.290408
0.296401
0.296243
0.298731
0.271918
0.26884
0.272359
0.272028
0.281209
0.271631
0.236863
0.22665
0.222435
0.21411
0.226507
0.220443
0.245038
0.231165
0.180194
0.163797
0.151033
0.148912
0.146498
0.140993
0.133264
0.124628
0.115852
0.107356
0.099233
0.0915423
0.0842719
0.0774113
0.070948
0.0648678
0.0591509
0.0537702
0.0486933
0.0438875
0.0393236
0.0349789
0.0308371
0.0268874
0.023122
0.0195345
0.0161187
0.0128672
0.00977222
0.00682487
0.00401907
0.00133793
0.000526226
0.0016627
0.00278965
0.00397526
0.00522407
0.00653446
0.00790976
0.00935356
0.0108695
0.012462
0.0141364
0.0158995
0.0177593
0.0197248
0.0218055
0.024011
0.026352
0.0288409
0.0314935
0.0343283
0.0373664
0.0406323
0.0441566
0.0479809
0.0521585
0.0567511
0.0618254
0.0674578
0.0737447
0.0808151
0.0894902
0.0999972
0.111608
0.124443
0.138469
0.153932
0.170161
0.187819
0.204568
0.220443
0.230318
0.230167
0.244872
0.260401
0.297084
0.297845
0.295528
0.311156
0.281635
0.286797
0.293758
0.301375
0.297818
0.299542
0.278693
0.276067
0.278044
0.276708
0.283519
0.274498
0.244126
0.234261
0.228352
0.219315
0.224163
0.21639
0.241678
0.230588
0.182448
0.165132
0.151556
0.148824
0.145859
0.140513
0.133303
0.125205
0.116908
0.108759
0.100866
0.0933015
0.086087
0.0792412
0.072769
0.0666615
0.0608969
0.055445
0.0502734
0.0453532
0.0406621
0.0361845
0.0319102
0.0278319
0.0239436
0.0202384
0.0167091
0.0133468
0.0101427
0.00708714
0.00417406
0.00138916
0.000540507
0.00174038
0.00292846
0.00417864
0.00549557
0.00687742
0.00832771
0.00985025
0.0114489
0.0131283
0.014894
0.0167533
0.0187146
0.0207869
0.02298
0.0253035
0.0277681
0.0303867
0.0331756
0.0361537
0.0393426
0.0427662
0.046455
0.0504499
0.0548036
0.0595769
0.0648336
0.0706438
0.0770962
0.0843105
0.0931023
0.103654
0.115202
0.127841
0.14153
0.156441
0.172032
0.188702
0.2046
0.219421
0.228854
0.230804
0.244647
0.263286
0.297925
0.294513
0.287625
0.297092
0.277578
0.285893
0.294609
0.304018
0.29697
0.298061
0.282149
0.280445
0.282263
0.281204
0.282667
0.275201
0.248982
0.239793
0.232526
0.223074
0.222743
0.212781
0.238276
0.229654
0.183947
0.166512
0.152619
0.149158
0.145647
0.140354
0.133513
0.125824
0.117882
0.10998
0.102253
0.0947873
0.087635
0.0808264
0.0743683
0.0682481
0.0624411
0.0569184
0.0516537
0.0466267
0.0418234
0.0372346
0.0328532
0.0286728
0.0246862
0.0208846
0.0172588
0.0137988
0.0104949
0.00733787
0.00432234
0.00143792
0.000548729
0.00180745
0.00305261
0.00436309
0.00574356
0.00719201
0.00871214
0.010308
0.0119836
0.0137438
0.0155946
0.0175434
0.0195989
0.0217703
0.0240673
0.0264993
0.0290771
0.0318138
0.0347258
0.0378328
0.0411563
0.04472
0.0485539
0.052698
0.0572036
0.0621296
0.0675366
0.0734887
0.0800672
0.0873824
0.0962425
0.106789
0.118228
0.130637
0.143974
0.158356
0.173355
0.189186
0.204414
0.218548
0.228006
0.232205
0.246126
0.265933
0.296955
0.288921
0.277018
0.280003
0.270916
0.282363
0.293521
0.304536
0.294402
0.29487
0.283167
0.28259
0.284859
0.283557
0.281378
0.274752
0.252213
0.243563
0.235589
0.226248
0.223011
0.214453
0.231174
0.227514
0.184926
0.16788
0.153943
0.149762
0.145751
0.140448
0.133853
0.126453
0.118756
0.111032
0.103435
0.09607
0.0889945
0.0822366
0.0757966
0.0696589
0.0638014
0.0582035
0.0528492
0.0477277
0.0428316
0.0381547
0.0336901
0.0294296
0.0253633
0.0214803
0.0177696
0.0142208
0.0108247
0.00757271
0.00446101
0.00148337
0.000550313
0.00186331
0.0031615
0.0045279
0.00596728
0.00747744
0.00906224
0.0107259
0.0124727
0.0143077
0.0162373
0.018269
0.0204116
0.0226744
0.0250668
0.0275982
0.030279
0.0331224
0.0361453
0.0393673
0.0428101
0.0464971
0.0504577
0.0547308
0.0593658
0.064419
0.0699474
0.076009
0.0826777
0.0900553
0.0989403
0.109437
0.12073
0.132881
0.145849
0.159712
0.174139
0.18922
0.203868
0.217555
0.227334
0.233763
0.247996
0.266993
0.293229
0.28108
0.264742
0.262365
0.262977
0.277081
0.2909
0.303045
0.290612
0.290745
0.282389
0.28298
0.285921
0.284231
0.279658
0.273597
0.254297
0.245998
0.237826
0.228937
0.224113
0.215779
0.226176
0.224461
0.185618
0.16918
0.155347
0.150532
0.146073
0.1407
0.134245
0.127038
0.119516
0.11194
0.104472
0.0972162
0.0902228
0.0835101
0.077075
0.0709054
0.0649892
0.0593173
0.0538841
0.0486854
0.0437168
0.0389718
0.0344415
0.0301147
0.0259792
0.0220229
0.0182341
0.0146031
0.0111218
0.00778321
0.00458487
0.00152389
0.000545311
0.00190761
0.00325463
0.00467254
0.00616616
0.00773313
0.00937746
0.0111036
0.012916
0.01482
0.0168222
0.0189302
0.0211529
0.0234994
0.025979
0.0286007
0.0313747
0.0343141
0.037436
0.0407602
0.0443083
0.0481032
0.0521735
0.0565568
0.0613005
0.066458
0.072082
0.0782246
0.0849519
0.0923571
0.101228
0.111634
0.122748
0.134615
0.147197
0.160541
0.174391
0.188764
0.202846
0.216146
0.226338
0.234609
0.248817
0.265467
0.286258
0.271371
0.252041
0.246603
0.254981
0.27086
0.287107
0.299742
0.286012
0.285558
0.281155
0.282072
0.285571
0.283543
0.277555
0.271997
0.25534
0.247595
0.239424
0.231042
0.225765
0.217409
0.222354
0.220784
0.18607
0.170255
0.156664
0.151339
0.146489
0.141006
0.134622
0.127553
0.120181
0.112751
0.105418
0.0982684
0.091343
0.0846554
0.0782067
0.0719956
0.0660219
0.060287
0.0547915
0.0495338
0.044509
0.0397084
0.0351206
0.0307324
0.0265308
0.0225037
0.0186408
0.0149335
0.0113754
0.00796103
0.00468897
0.00155794
0.00053077
0.0019378
0.00332956
0.00479486
0.00633869
0.00795817
0.00965735
0.0114409
0.0133137
0.0152811
0.0173499
0.0195278
0.0218236
0.0242465
0.0268052
0.0295083
0.0323659
0.0353909
0.0386005
0.0420151
0.0456558
0.049545
0.0537098
0.0581865
0.0630202
0.0682614
0.0739587
0.080158
0.0869175
0.094321
0.103143
0.113424
0.124329
0.135887
0.148064
0.16088
0.174135
0.187801
0.201273
0.214106
0.224607
0.23402
0.247589
0.261137
0.276367
0.260596
0.240227
0.234202
0.24759
0.264412
0.282456
0.294957
0.281122
0.280756
0.278901
0.280139
0.283973
0.281688
0.275279
0.270073
0.255851
0.248473
0.240474
0.232603
0.22769
0.219447
0.219332
0.21689
0.186303
0.170985
0.157742
0.152044
0.146881
0.141293
0.13496
0.128019
0.120798
0.113514
0.106302
0.0992366
0.0923526
0.0856684
0.079196
0.0729457
0.066927
0.0611463
0.0556059
0.0503033
0.045231
0.0403785
0.035733
0.0312817
0.0270126
0.0229152
0.0189814
0.0152046
0.0115798
0.00810246
0.00477132
0.00158494
0.00051228
0.00195099
0.00338168
0.00489267
0.0064846
0.00815322
0.00990304
0.0117393
0.0136672
0.0156924
0.0178219
0.0200635
0.0224258
0.0249176
0.0275475
0.0303236
0.0332555
0.0363561
0.0396427
0.0431362
0.0468578
0.050829
0.0550753
0.0596305
0.0645376
0.0698441
0.075595
0.0818308
0.0886013
0.0959801
0.104727
0.114853
0.125523
0.13675
0.148502
0.160778
0.173412
0.186349
0.199136
0.21137
0.221895
0.231682
0.244025
0.254491
0.264662
0.249739
0.2302
0.225439
0.24132
0.258355
0.277175
0.28908
0.276236
0.276452
0.276133
0.277569
0.281397
0.278988
0.273032
0.268308
0.255787
0.248695
0.241065
0.2337
0.229559
0.22146
0.21709
0.213206
0.186409
0.171343
0.158492
0.152553
0.147185
0.141544
0.135284
0.128479
0.121403
0.114246
0.107125
0.100111
0.093243
0.0865513
0.0800583
0.0737822
0.0677361
0.0619265
0.0563537
0.0510124
0.0458937
0.0409864
0.0362791
0.0317609
0.0274225
0.0232566
0.0192571
0.0154192
0.0117387
0.00821107
0.00483437
0.00160572
0.000503765
0.00196589
0.00342924
0.00498121
0.00661526
0.00832633
0.0101203
0.0120029
0.0139797
0.0160568
0.0182408
0.0205396
0.0229616
0.0255152
0.0282087
0.0310499
0.0340475
0.0372143
0.0405678
0.0441293
0.0479205
0.0519623
0.0562782
0.0608991
0.0658647
0.07122
0.0770069
0.0832615
0.0900258
0.0973624
0.106014
0.115965
0.126378
0.137258
0.148569
0.160291
0.17228
0.184459
0.196482
0.20798
0.218192
0.227707
0.238462
0.24638
0.252696
0.239588
0.222087
0.219847
0.236181
0.252913
0.271505
0.282562
0.271543
0.272598
0.273139
0.274637
0.278146
0.275786
0.270843
0.266773
0.255217
0.248397
0.241273
0.234357
0.231091
0.223095
0.215439
0.210015
0.186506
0.171384
0.158914
0.152865
0.147416
0.141795
0.135635
0.128963
0.122008
0.114939
0.107872
0.100881
0.0940175
0.0873207
0.0808195
0.074534
0.0684754
0.062647
0.0570461
0.0516656
0.0464968
0.0415304
0.0367578
0.0321719
0.0277667
0.0235375
0.0194802
0.0155907
0.0118647
0.00829704
0.00488445
0.00162239
0.000477263
0.00197109
0.00346859
0.00505698
0.00672699
0.00847496
0.0103078
0.0122315
0.0142519
0.0163751
0.018608
0.0209581
0.0234333
0.0260419
0.0287918
0.0316905
0.0347462
0.037971
0.0413823
0.0450018
0.048852
0.0529536
0.0573281
0.062003
0.0670142
0.0724034
0.0782101
0.0844673
0.0912103
0.098491
0.107033
0.116793
0.126937
0.137458
0.148319
0.159479
0.170806
0.182205
0.193399
0.204049
0.21366
0.222475
0.231544
0.237507
0.2407
0.230235
0.21666
0.216263
0.231844
0.247864
0.265728
0.276088
0.266899
0.269068
0.269981
0.271489
0.274481
0.272333
0.26862
0.265318
0.254251
0.247705
0.241104
0.234528
0.232006
0.224089
0.214168
0.207486
0.186709
0.171261
0.159126
0.153065
0.147642
0.142096
0.136042
0.129476
0.1226
0.11558
0.108536
0.101555
0.0946958
0.0880034
0.0815065
0.075222
0.0691569
0.0633109
0.0576794
0.052256
0.0470338
0.0420072
0.0371716
0.0325232
0.028059
0.0237759
0.0196705
0.0157385
0.011975
0.00837347
0.00492944
0.00163744
0.0004291
0.00196196
0.00349288
0.00511155
0.00681261
0.00859401
0.0104622
0.0124231
0.0144829
0.0166479
0.0189248
0.0213207
0.0238431
0.0265001
0.0292995
0.0322486
0.0353556
0.0386314
0.042093
0.0457621
0.0496617
0.053813
0.0582359
0.0629544
0.0679999
0.0734101
0.0792219
0.0854667
0.0921744
0.0993872
0.107809
0.117368
0.127236
0.137394
0.147802
0.158401
0.169062
0.179673
0.190001
0.199736
0.208555
0.216454
0.223953
0.228513
0.229895
0.221965
0.212028
0.213378
0.227756
0.242978
0.259974
0.269046
0.263269
0.265792
0.266713
0.268224
0.270631
0.2688
0.266235
0.263681
0.252958
0.246673
0.240503
0.234135
0.232062
0.224259
0.213132
0.205719
0.18715
0.171221
0.159336
0.153296
0.147945
0.142486
0.13651
0.130006
0.123167
0.116165
0.10913
0.102156
0.0953069
0.0886255
0.0821368
0.0758531
0.0697776
0.0639082
0.058241
0.0527718
0.0474977
0.0424165
0.037527
0.0328277
0.0283169
0.0239916
0.019848
0.015881
0.0120847
0.00845138
0.00497583
0.00165297
0.000380441
0.00194903
0.00350786
0.00515176
0.00687978
0.00869001
0.0105886
0.0125819
0.0146763
0.0168784
0.0191943
0.0216306
0.0241943
0.0268931
0.029735
0.0327277
0.0358793
0.0392003
0.0427062
0.0464182
0.0503594
0.0545514
0.0590134
0.0637661
0.0688363
0.0742568
0.0800618
0.0862809
0.0929406
0.100075
0.108367
0.117721
0.12731
0.137109
0.147068
0.157117
0.167124
0.17696
0.186417
0.195219
0.203147
0.210069
0.216222
0.219757
0.220163
0.214481
0.207576
0.210276
0.223582
0.238273
0.254565
0.262713
0.259404
0.262523
0.263378
0.264926
0.266806
0.265322
0.263613
0.26165
0.251331
0.245283
0.239421
0.233138
0.231127
0.223535
0.212244
0.204738
0.187954
0.171539
0.159773
0.153702
0.148393
0.14298
0.137034
0.130546
0.123712
0.116712
0.109681
0.102715
0.0958762
0.0892028
0.0827152
0.0764222
0.0703257
0.0644248
0.0587181
0.0532052
0.0478866
0.0427626
0.0378335
0.0330983
0.0285545
0.0241984
0.0200249
0.016028
0.0122009
0.00853551
0.0050264
0.00167018
0.000327702
0.00192385
0.00350683
0.00517456
0.00692747
0.00876334
0.0106886
0.0127103
0.0148352
0.0170698
0.0194199
0.0218914
0.0244907
0.027225
0.0301026
0.033132
0.0363217
0.039682
0.0432273
0.0469769
0.0509536
0.0551789
0.0596716
0.0644502
0.0695369
0.0749596
0.0807487
0.0869319
0.0935333
0.10058
0.108736
0.117882
0.127197
0.136644
0.14617
0.155689
0.165067
0.174161
0.182775
0.190667
0.197684
0.203652
0.208703
0.211446
0.211327
0.207371
0.202757
0.206363
0.219079
0.233692
0.249392
0.257069
0.255603
0.259246
0.260034
0.261687
0.26318
0.262004
0.260753
0.259116
0.249367
0.243541
0.237873
0.231574
0.229228
0.221972
0.211443
0.204479
0.189171
0.172409
0.160626
0.154395
0.149026
0.143585
0.137612
0.131102
0.124253
0.117246
0.110216
0.103254
0.0964167
0.0897383
0.0832363
0.0769189
0.07079
0.0648518
0.0591067
0.0535574
0.048206
0.0430538
0.0381
0.0333426
0.0287773
0.0243989
0.0202013
0.0161776
0.0123207
0.00862296
0.00507939
0.00168893
0.000268336
0.00188599
0.00348941
0.0051783
0.00695323
0.00881193
0.0107612
0.0128083
0.0149603
0.0172235
0.0196036
0.0221058
0.0247355
0.0274998
0.030407
0.0334665
0.036688
0.040082
0.0436617
0.0474447
0.0514519
0.0557042
0.0602204
0.0650173
0.0701134
0.0755318
0.0812986
0.0874391
0.0939753
0.100929
0.108945
0.117886
0.126933
0.136044
0.145156
0.154176
0.162965
0.171368
0.179194
0.186235
0.192379
0.197462
0.201603
0.203681
0.203213
0.200328
0.197151
0.201373
0.214131
0.22921
0.244621
0.252016
0.251972
0.255934
0.256754
0.258588
0.259864
0.258892
0.257673
0.256171
0.247158
0.241521
0.235947
0.229563
0.226538
0.219717
0.210664
0.204759
0.19072
0.173885
0.161982
0.155428
0.149863
0.144303
0.138249
0.131689
0.124811
0.117789
0.110751
0.10378
0.0969278
0.0902262
0.0836926
0.0773377
0.0711691
0.0651932
0.0594152
0.0538392
0.0484672
0.0432987
0.0383314
0.0335606
0.0289805
0.0245846
0.020366
0.0163178
0.0124331
0.00870499
0.00512947
0.00170767
0.000202518
0.00183805
0.00345877
0.00516559
0.00695935
0.00883794
0.0108082
0.0128777
0.0150534
0.0173416
0.0197475
0.0222759
0.0249315
0.027721
0.0306528
0.0337371
0.0369846
0.0404068
0.0440161
0.0478281
0.0518614
0.0561355
0.0606685
0.0654764
0.0705752
0.0759837
0.0817238
0.0878179
0.0942851
0.101143
0.10902
0.117761
0.126553
0.135346
0.144072
0.152633
0.160885
0.168662
0.175779
0.182053
0.187402
0.191695
0.19505
0.196501
0.19564
0.193149
0.190656
0.195375
0.208833
0.224893
0.240374
0.247561
0.248468
0.252575
0.253596
0.255663
0.256897
0.255989
0.254499
0.252993
0.244829
0.239343
0.233786
0.227277
0.223339
0.216977
0.209822
0.205305
0.192405
0.175854
0.163801
0.156794
0.150898
0.145133
0.138952
0.132317
0.125395
0.118345
0.111283
0.104286
0.0974014
0.0906602
0.0840828
0.077684
0.0714755
0.0654662
0.0596627
0.0540683
0.0486831
0.0435044
0.0385275
0.0337459
0.0291527
0.0247408
0.0205031
0.0164331
0.0125247
0.00877138
0.0051703
0.00172385
0.000129802
0.00177988
0.00341518
0.00513735
0.00694749
0.00884358
0.0108324
0.0129214
0.0151175
0.0174266
0.0198541
0.0224041
0.0250814
0.027892
0.0308443
0.033949
0.0372181
0.0406637
0.044298
0.0481347
0.0521899
0.0564809
0.0610248
0.0658368
0.0709316
0.0763247
0.0820343
0.0880795
0.0944767
0.10124
0.108981
0.117532
0.126084
0.134583
0.142957
0.151104
0.15888
0.166112
0.172616
0.178227
0.182886
0.1865
0.189128
0.189921
0.188483
0.185771
0.183426
0.188698
0.203458
0.220893
0.236708
0.243646
0.245123
0.249227
0.250595
0.252955
0.254156
0.253264
0.251293
0.249755
0.242464
0.237133
0.231545
0.224912
0.219971
0.214002
0.20884
0.2058
0.193987
0.178069
0.165935
0.158426
0.152101
0.146061
0.139714
0.132978
0.125994
0.1189
0.111798
0.104759
0.0978294
0.0910405
0.0844164
0.0779757
0.0717324
0.0656961
0.0598725
0.0542629
0.0488654
0.0436752
0.0386861
0.0338909
0.0292826
0.024854
0.0205988
0.0165109
0.0125846
0.00881405
0.00519693
0.00173562
5.00661e-05
0.00171133
0.00335863
0.00509388
0.0069184
0.00883013
0.0108356
0.0129418
0.0151551
0.0174815
0.019926
0.0224932
0.0251877
0.0280155
0.0309849
0.0341071
0.0373943
0.0408595
0.0445147
0.0483722
0.0524453
0.0567489
0.0612983
0.0661082
0.0711923
0.0765643
0.0822394
0.0882338
0.0945612
0.101232
0.108844
0.117216
0.125548
0.133781
0.141841
0.149626
0.156993
0.163768
0.169767
0.174836
0.178924
0.181965
0.183901
0.18396
0.181702
0.178279
0.1758
0.181829
0.198385
0.217401
0.23365
0.240207
0.242027
0.246001
0.247768
0.250348
0.251582
0.250659
0.24819
0.246534
0.240121
0.234991
0.22937
0.222663
0.216783
0.211071
0.207691
0.205982
0.195248
0.180246
0.168181
0.160207
0.153412
0.147053
0.140507
0.133648
0.126584
0.119431
0.112277
0.105189
0.0982105
0.0913763
0.084712
0.0782375
0.0719667
0.0659082
0.0600656
0.0544385
0.0490235
0.0438153
0.0388076
0.0339938
0.0293673
0.0249219
0.0206516
0.0165509
0.0126143
0.00883569
0.00521186
0.00174209
-3.63605e-05
0.00163314
0.00329002
0.00503628
0.00687335
0.00879906
0.0108194
0.0129406
0.0151685
0.0175086