/*--------------------------------*- C++ -*----------------------------------*\
  =========                 |
  \\      /  F ield         | OpenFOAM: The Open Source CFD Toolbox
   \\    /   O peration     | Website:  https://openfoam.org
    \\  /    A nd           | Version:  9
     \\/     M anipulation  |
\*---------------------------------------------------------------------------*/
FoamFile
{
    format      ascii;
    class       surfaceScalarField;
    location    "0.06";
    object      phi;
}
// * * * * * * * * * * * * * * * * * * * * * * * * * * * * * * * * * * * * * //

dimensions      [0 3 -1 0 0 0 0];

internalField   nonuniform List<scalar> 
39700
(
4.32651e-07
2.00462e-06
4.32656e-07
2.09948e-06
4.3266e-07
2.1987e-06
4.32672e-07
2.30246e-06
4.32689e-07
2.41095e-06
4.32712e-07
2.52434e-06
4.32739e-07
2.64278e-06
4.32772e-07
2.76646e-06
4.32809e-07
2.89553e-06
4.3285e-07
3.03016e-06
4.32897e-07
3.17052e-06
4.3295e-07
3.31676e-06
4.33008e-07
3.46906e-06
4.33075e-07
3.62755e-06
4.33149e-07
3.79237e-06
4.33233e-07
3.96363e-06
4.33328e-07
4.14143e-06
4.33436e-07
4.32581e-06
4.33558e-07
4.51681e-06
4.33697e-07
4.71439e-06
4.33856e-07
4.91848e-06
4.34039e-07
5.12891e-06
4.34251e-07
5.34546e-06
4.34498e-07
5.56776e-06
4.3479e-07
5.79531e-06
4.35142e-07
6.0274e-06
4.35579e-07
6.26298e-06
4.36136e-07
6.50046e-06
4.36866e-07
6.73734e-06
4.37823e-07
6.96975e-06
4.39194e-07
8.37937e-06
4.40985e-07
8.19673e-06
4.4336e-07
7.99223e-06
4.46327e-07
7.75836e-06
4.48795e-07
7.48465e-06
4.45936e-07
7.17103e-06
4.32631e-07
6.91125e-06
4.50599e-07
7.09231e-06
5.83195e-07
8.02169e-06
1.19785e-06
9.42463e-06
6.22232e-07
3.59061e-07
7.60834e-10
-1.42493e-07
4.07902e-07
1.26258e-05
5.65504e-07
1.35535e-05
9.8912e-07
1.46124e-05
4.59953e-07
1.16648e-06
-1.1838e-07
6.02095e-07
3.24042e-07
1.48691e-05
4.3775e-07
1.44568e-05
5.29641e-07
1.46767e-05
7.98792e-07
1.53626e-05
4.20621e-07
1.71357e-06
4.51785e-08
1.30429e-06
3.4248e-07
1.55558e-05
4.34917e-07
1.50398e-05
5.28837e-07
1.50571e-05
8.40303e-07
1.56191e-05
5.37708e-07
1.54682e-06
2.32749e-08
1.32308e-06
3.03698e-07
1.53218e-05
3.83733e-07
1.42694e-05
4.28192e-07
1.36473e-05
4.74058e-07
1.35616e-05
5.57877e-07
1.40327e-05
8.61812e-07
1.50273e-05
4.62782e-07
1.57764e-06
-1.30783e-08
1.38837e-06
2.96356e-07
1.47471e-05
3.95882e-07
1.35109e-05
4.96261e-07
1.27471e-05
8.88438e-07
9.55342e-06
8.93375e-07
5.71544e-07
-4.27681e-07
2.21675e-07
1.74788e-07
6.79594e-06
3.51785e-07
6.44529e-06
4.07909e-07
5.81767e-06
4.24189e-07
5.34717e-06
4.28174e-07
5.02937e-06
4.29001e-07
4.79861e-06
4.29276e-07
4.6094e-06
4.29564e-07
4.43892e-06
4.29917e-07
4.27715e-06
4.303e-07
4.12011e-06
4.30679e-07
3.9664e-06
4.31035e-07
3.81567e-06
4.3136e-07
3.66801e-06
4.31651e-07
3.52362e-06
4.31909e-07
3.38273e-06
4.32137e-07
3.24554e-06
4.32337e-07
3.11222e-06
4.32512e-07
2.98288e-06
4.32665e-07
2.85761e-06
4.32799e-07
2.73643e-06
4.32914e-07
2.61934e-06
4.33014e-07
2.50631e-06
4.33099e-07
2.39728e-06
4.33173e-07
2.29216e-06
4.33242e-07
2.19088e-06
4.33309e-07
2.0933e-06
1.99972e-06
4.32157e-07
2.00459e-06
4.32169e-07
2.09946e-06
4.32183e-07
2.19869e-06
4.3221e-07
2.30244e-06
4.32251e-07
2.41091e-06
4.32307e-07
2.52428e-06
4.32376e-07
2.64271e-06
4.32458e-07
2.76638e-06
4.32554e-07
2.89543e-06
4.32664e-07
3.03005e-06
4.32788e-07
3.17039e-06
4.32929e-07
3.31662e-06
4.33089e-07
3.4689e-06
4.33268e-07
3.62737e-06
4.33471e-07
3.79217e-06
4.33699e-07
3.9634e-06
4.33958e-07
4.14117e-06
4.34251e-07
4.32552e-06
4.34584e-07
4.51648e-06
4.34963e-07
4.71402e-06
4.35396e-07
4.91805e-06
4.35893e-07
5.12842e-06
4.36468e-07
5.34488e-06
4.37139e-07
5.56709e-06
4.37931e-07
5.79452e-06
4.38884e-07
6.02645e-06
4.40054e-07
6.26181e-06
4.41523e-07
6.49899e-06
4.43397e-07
6.73547e-06
4.45774e-07
6.96738e-06
4.49194e-07
8.37595e-06
4.53441e-07
8.19248e-06
4.5863e-07
7.98704e-06
4.64273e-07
7.75272e-06
4.67809e-07
7.48111e-06
4.63024e-07
7.17582e-06
4.54001e-07
6.92027e-06
5.12417e-07
7.03389e-06
7.70626e-07
7.76348e-06
1.54094e-06
8.65432e-06
8.05773e-07
1.09422e-06
-6.12033e-08
7.24483e-07
4.29716e-07
1.21349e-05
7.44883e-07
1.32383e-05
1.25333e-06
1.4104e-05
4.75225e-07
1.94459e-06
-2.82033e-07
1.35935e-06
1.96565e-07
1.43905e-05
4.47529e-07
1.42058e-05
6.77784e-07
1.44465e-05
1.04999e-06
1.49904e-05
3.91552e-07
2.372e-06
-1.90749e-07
1.88659e-06
2.10528e-07
1.51545e-05
4.36942e-07
1.48134e-05
6.63095e-07
1.48309e-05
1.09926e-06
1.51829e-05
6.09235e-07
2.03684e-06
-2.38827e-07
2.17114e-06
1.02399e-07
1.49805e-05
2.95266e-07
1.40766e-05
4.19722e-07
1.35228e-05
5.4625e-07
1.3435e-05
7.41343e-07
1.38376e-05
1.13126e-06
1.46373e-05
4.86599e-07
2.22229e-06
-2.90772e-07
2.16575e-06
9.12022e-08
1.43652e-05
3.35501e-07
1.32666e-05
5.79043e-07
1.25035e-05
1.09066e-06
9.0418e-06
4.48823e-07
1.21338e-06
-5.81528e-07
1.25203e-06
-4.90723e-08
6.26348e-06
2.17472e-07
6.17875e-06
3.41395e-07
5.69375e-06
3.92603e-07
5.29596e-06
4.12553e-07
5.00942e-06
4.20613e-07
4.79055e-06
4.24312e-07
4.60571e-06
4.26396e-07
4.43684e-06
4.27844e-07
4.2757e-06
4.29e-07
4.11895e-06
4.2999e-07
3.96541e-06
4.30858e-07
3.81481e-06
4.31625e-07
3.66725e-06
4.32303e-07
3.52294e-06
4.32902e-07
3.38213e-06
4.33431e-07
3.24501e-06
4.33897e-07
3.11175e-06
4.34305e-07
2.98247e-06
4.34661e-07
2.85725e-06
4.3497e-07
2.73612e-06
4.35237e-07
2.61907e-06
4.35467e-07
2.50608e-06
4.35665e-07
2.39708e-06
4.35839e-07
2.29199e-06
4.36003e-07
2.19072e-06
4.3617e-07
2.09313e-06
1.99958e-06
4.31214e-07
2.00457e-06
4.3124e-07
2.09944e-06
4.31274e-07
2.19865e-06
4.31323e-07
2.30239e-06
4.31389e-07
2.41084e-06
4.31474e-07
2.5242e-06
4.31577e-07
2.64261e-06
4.317e-07
2.76625e-06
4.31844e-07
2.89529e-06
4.32009e-07
3.02989e-06
4.32198e-07
3.1702e-06
4.32412e-07
3.31641e-06
4.32654e-07
3.46866e-06
4.32927e-07
3.6271e-06
4.33236e-07
3.79186e-06
4.33586e-07
3.96305e-06
4.3398e-07
4.14078e-06
4.34427e-07
4.32507e-06
4.34934e-07
4.51597e-06
4.35511e-07
4.71344e-06
4.36168e-07
4.91739e-06
4.36922e-07
5.12766e-06
4.37791e-07
5.34401e-06
4.38802e-07
5.56608e-06
4.39992e-07
5.79333e-06
4.41412e-07
6.02503e-06
4.43137e-07
6.26009e-06
4.45269e-07
6.49686e-06
4.47931e-07
6.73281e-06
4.51229e-07
6.96408e-06
4.55882e-07
8.37129e-06
4.61361e-07
8.187e-06
4.67579e-07
7.98083e-06
4.73718e-07
7.74658e-06
4.77262e-07
7.47757e-06
4.73458e-07
7.17962e-06
4.69538e-07
6.92419e-06
5.40856e-07
6.96257e-06
7.94131e-07
7.51021e-06
1.53941e-06
7.90904e-06
8.90363e-07
1.74327e-06
-1.90534e-08
1.6339e-06
4.6273e-07
1.16531e-05
8.00645e-07
1.29004e-05
1.31473e-06
1.35899e-05
4.9876e-07
2.76055e-06
-2.77308e-07
2.13542e-06
1.91289e-07
1.39219e-05
4.70243e-07
1.39269e-05
7.47686e-07
1.4169e-05
1.15366e-06
1.45844e-05
4.02002e-07
3.12366e-06
-2.6161e-07
2.5502e-06
1.65763e-07
1.47271e-05
4.33476e-07
1.45457e-05
6.92946e-07
1.45715e-05
1.16381e-06
1.4712e-05
5.76834e-07
2.62382e-06
-3.58983e-07
3.10696e-06
-1.56677e-09
1.46231e-05
2.28371e-07
1.38466e-05
4.08222e-07
1.3343e-05
5.86877e-07
1.32564e-05
8.05404e-07
1.36191e-05
1.21089e-06
1.42319e-05
4.84708e-07
2.94848e-06
-3.89854e-07
3.04031e-06
-6.54082e-09
1.39818e-05
2.63271e-07
1.29968e-05
5.44064e-07
1.22227e-05
1.0451e-06
8.54076e-06
2.54804e-07
2.00368e-06
-5.49092e-07
2.05592e-06
-7.55624e-08
5.78995e-06
1.79544e-07
5.92364e-06
3.1158e-07
5.56171e-06
3.73666e-07
5.23387e-06
4.02236e-07
4.98085e-06
4.15764e-07
4.77702e-06
4.22627e-07
4.59884e-06
4.26516e-07
4.43295e-06
4.2902e-07
4.27319e-06
4.30835e-07
4.11713e-06
4.32271e-07
3.96397e-06
4.33469e-07
3.81361e-06
4.34499e-07
3.66622e-06
4.354e-07
3.52204e-06
4.36192e-07
3.38134e-06
4.36891e-07
3.24431e-06
4.37507e-07
3.11114e-06
4.38046e-07
2.98193e-06
4.38516e-07
2.85678e-06
4.38923e-07
2.73571e-06
4.39273e-07
2.61872e-06
4.39573e-07
2.50578e-06
4.39828e-07
2.39682e-06
4.40049e-07
2.29177e-06
4.40252e-07
2.19051e-06
4.40453e-07
2.09293e-06
1.99941e-06
4.29795e-07
2.00455e-06
4.29831e-07
2.0994e-06
4.29882e-07
2.1986e-06
4.2995e-07
2.30232e-06
4.30039e-07
2.41076e-06
4.30148e-07
2.52409e-06
4.30281e-07
2.64248e-06
4.30438e-07
2.7661e-06
4.30621e-07
2.89511e-06
4.30831e-07
3.02968e-06
4.31071e-07
3.16996e-06
4.31344e-07
3.31614e-06
4.31652e-07
3.46835e-06
4.32001e-07
3.62675e-06
4.32395e-07
3.79146e-06
4.32839e-07
3.96261e-06
4.33341e-07
4.14027e-06
4.33908e-07
4.32451e-06
4.3455e-07
4.51533e-06
4.35277e-07
4.71271e-06
4.36104e-07
4.91656e-06
4.37048e-07
5.12672e-06
4.38131e-07
5.34293e-06
4.39384e-07
5.56482e-06
4.40847e-07
5.79187e-06
4.42576e-07
6.0233e-06
4.44648e-07
6.25801e-06
4.47165e-07
6.49434e-06
4.50241e-07
6.72973e-06
4.53952e-07
6.96037e-06
4.59004e-07
8.36624e-06
4.646e-07
8.1814e-06
4.70417e-07
7.97501e-06
4.75323e-07
7.74167e-06
4.76678e-07
7.47621e-06
4.70263e-07
7.18603e-06
4.61165e-07
6.93329e-06
5.21113e-07
6.90262e-06
7.52791e-07
7.27853e-06
1.40744e-06
7.25439e-06
8.76645e-07
2.27407e-06
3.2962e-08
2.47758e-06
4.78413e-07
1.12076e-05
8.1578e-07
1.25631e-05
1.28351e-06
1.31222e-05
5.17672e-07
3.52639e-06
-2.0763e-07
2.86072e-06
2.20444e-07
1.34938e-05
5.00931e-07
1.36464e-05
7.87104e-07
1.38828e-05
1.17361e-06
1.41979e-05
4.21836e-07
3.87543e-06
-2.51388e-07
3.22343e-06
1.54439e-07
1.43213e-05
4.24581e-07
1.42755e-05
6.82884e-07
1.43132e-05
1.12347e-06
1.42714e-05
4.8692e-07
3.26037e-06
-3.99639e-07
3.99351e-06
-5.41865e-08
1.42777e-05
1.89881e-07
1.36026e-05
3.92947e-07
1.31399e-05
5.91686e-07
1.30577e-05
8.08025e-07
1.34027e-05
1.188e-06
1.38519e-05
4.75063e-07
3.66141e-06
-3.95679e-07
3.91105e-06
-5.58285e-08
1.3642e-05
1.94829e-07
1.27461e-05
4.84577e-07
1.1933e-05
9.1196e-07
8.11338e-06
1.91594e-07
2.72405e-06
-4.13133e-07
2.66065e-06
-2.65643e-08
5.40338e-06
2.06479e-07
5.6906e-06
3.23764e-07
5.44443e-06
3.7919e-07
5.17845e-06
4.05997e-07
4.95405e-06
4.19488e-07
4.76353e-06
4.26734e-07
4.5916e-06
4.31015e-07
4.42866e-06
4.33803e-07
4.27041e-06
4.35806e-07
4.11513e-06
4.37369e-07
3.96241e-06
4.38662e-07
3.81232e-06
4.39771e-07
3.66511e-06
4.40743e-07
3.52107e-06
4.41601e-07
3.38048e-06
4.42363e-07
3.24355e-06
4.43037e-07
3.11046e-06
4.43631e-07
2.98134e-06
4.44152e-07
2.85626e-06
4.44605e-07
2.73526e-06
4.44996e-07
2.61833e-06
4.4533e-07
2.50544e-06
4.45616e-07
2.39654e-06
4.45861e-07
2.29152e-06
4.46083e-07
2.19029e-06
4.46294e-07
2.09272e-06
1.99924e-06
4.27862e-07
2.00453e-06
4.27905e-07
2.09936e-06
4.27967e-07
2.19854e-06
4.2805e-07
2.30224e-06
4.28154e-07
2.41065e-06
4.28283e-07
2.52396e-06
4.28438e-07
2.64232e-06
4.28621e-07
2.76591e-06
4.28834e-07
2.8949e-06
4.29079e-07
3.02943e-06
4.29358e-07
3.16968e-06
4.29675e-07
3.31582e-06
4.30034e-07
3.46799e-06
4.30438e-07
3.62634e-06
4.30894e-07
3.79101e-06
4.31407e-07
3.9621e-06
4.31985e-07
4.1397e-06
4.32636e-07
4.32386e-06
4.33369e-07
4.5146e-06
4.34197e-07
4.71188e-06
4.35134e-07
4.91563e-06
4.36196e-07
5.12566e-06
4.37407e-07
5.34172e-06
4.38795e-07
5.56343e-06
4.40399e-07
5.79026e-06
4.42271e-07
6.02143e-06
4.44478e-07
6.25581e-06
4.47104e-07
6.49172e-06
4.50232e-07
6.72661e-06
4.53875e-07
6.95672e-06
4.58582e-07
8.36154e-06
4.63343e-07
8.17664e-06
4.67551e-07
7.9708e-06
4.69697e-07
7.73952e-06
4.66797e-07
7.47911e-06
4.5552e-07
7.19731e-06
4.39611e-07
6.9492e-06
4.84704e-07
6.85753e-06
6.97235e-07
7.066e-06
1.23761e-06
6.71402e-06
8.05691e-07
2.70599e-06
7.29905e-08
3.21028e-06
4.7881e-07
1.08018e-05
8.00825e-07
1.2241e-05
1.2028e-06
1.27202e-05
5.2842e-07
4.20077e-06
-1.10852e-07
3.49999e-06
2.65745e-07
1.31172e-05
5.3123e-07
1.33809e-05
8.03756e-07
1.36103e-05
1.14093e-06
1.38607e-05
4.42249e-07
4.57412e-06
-1.92517e-07
3.85819e-06
1.63805e-07
1.3965e-05
4.14515e-07
1.40248e-05
6.53235e-07
1.40744e-05
1.02925e-06
1.38954e-05
4.10036e-07
3.87958e-06
-3.79787e-07
4.78334e-06
-6.81145e-08
1.3966e-05
1.72771e-07
1.33617e-05
3.76681e-07
1.2936e-05
5.75745e-07
1.28586e-05
7.77576e-07
1.32009e-05
1.11179e-06
1.35177e-05
4.60984e-07
4.31221e-06
-3.48144e-07
4.72018e-06
-7.09247e-08
1.33648e-05
1.52148e-07
1.25231e-05
4.46688e-07
1.16385e-05
7.96856e-07
7.76321e-06
2.13893e-07
3.30701e-06
-2.36716e-07
3.11126e-06
5.08055e-08
5.11586e-06
2.50895e-07
5.49051e-06
3.49883e-07
5.34544e-06
3.96382e-07
5.13195e-06
4.18613e-07
4.93182e-06
4.2967e-07
4.75247e-06
4.35655e-07
4.58561e-06
4.39212e-07
4.42511e-06
4.41598e-07
4.26802e-06
4.43364e-07
4.11337e-06
4.44778e-07
3.96099e-06
4.45975e-07
3.81112e-06
4.47023e-07
3.66406e-06
4.47957e-07
3.52014e-06
4.48795e-07
3.37964e-06
4.49549e-07
3.2428e-06
4.50224e-07
3.10979e-06
4.50826e-07
2.98074e-06
4.51359e-07
2.85573e-06
4.51826e-07
2.73479e-06
4.52232e-07
2.61792e-06
4.52584e-07
2.50509e-06
4.52886e-07
2.39623e-06
4.53148e-07
2.29126e-06
4.5338e-07
2.19006e-06
4.53587e-07
2.09251e-06
1.99908e-06
4.25398e-07
2.00451e-06
4.25445e-07
2.09931e-06
4.25514e-07
2.19847e-06
4.25606e-07
2.30214e-06
4.25722e-07
2.41054e-06
4.25863e-07
2.52382e-06
4.26034e-07
2.64215e-06
4.26235e-07
2.76571e-06
4.26468e-07
2.89466e-06
4.26737e-07
3.02916e-06
4.27042e-07
3.16938e-06
4.27388e-07
3.31547e-06
4.27779e-07
3.4676e-06
4.28219e-07
3.6259e-06
4.28713e-07
3.79051e-06
4.29268e-07
3.96154e-06
4.2989e-07
4.13907e-06
4.30588e-07
4.32316e-06
4.3137e-07
4.51381e-06
4.32248e-07
4.71101e-06
4.33233e-07
4.91464e-06
4.34343e-07
5.12455e-06
4.35595e-07
5.34047e-06
4.37015e-07
5.56201e-06
4.38633e-07
5.78864e-06
4.4049e-07
6.01957e-06
4.42634e-07
6.25366e-06
4.45119e-07
6.48923e-06
4.47977e-07
6.72375e-06
4.51147e-07
6.95356e-06
4.54909e-07
8.35777e-06
4.5811e-07
8.17344e-06
4.59864e-07
7.96905e-06
4.58402e-07
7.74099e-06
4.50557e-07
7.48696e-06
4.33927e-07
7.21394e-06
4.15861e-07
6.96726e-06
4.46696e-07
6.82669e-06
6.42541e-07
6.87015e-06
1.0763e-06
6.28026e-06
7.04274e-07
3.07801e-06
8.5965e-08
3.82859e-06
4.64222e-07
1.04236e-05
7.6687e-07
1.19384e-05
1.10965e-06
1.23774e-05
5.29553e-07
4.78087e-06
-1.91078e-08
4.04866e-06
3.19214e-07
1.27789e-05
5.58962e-07
1.31412e-05
8.03369e-07
1.33659e-05
1.08786e-06
1.35762e-05
4.59676e-07
5.2023e-06
-1.14084e-07
4.43195e-06
1.89677e-07
1.36612e-05
4.07474e-07
1.3807e-05
6.15364e-07
1.38666e-05
9.21369e-07
1.35894e-05
3.36386e-07
4.46456e-06
-3.27314e-07
5.44704e-06
-5.10773e-08
1.36898e-05
1.71455e-07
1.31391e-05
3.619e-07
1.27455e-05
5.47336e-07
1.26731e-05
7.25648e-07
1.30226e-05
1.01675e-06
1.32266e-05
4.39571e-07
4.88939e-06
-2.82001e-07
5.44175e-06
-6.0284e-08
1.31431e-05
1.3467e-07
1.23281e-05
4.27376e-07
1.13458e-05
7.30453e-07
7.46014e-06
2.79008e-07
3.75846e-06
-6.77858e-08
3.45805e-06
1.29949e-07
4.91813e-06
2.92384e-07
5.32808e-06
3.74243e-07
5.26358e-06
4.13626e-07
5.09256e-06
4.32319e-07
4.91312e-06
4.41409e-07
4.74338e-06
4.462e-07
4.58082e-06
4.49056e-07
4.42225e-06
4.50974e-07
4.2661e-06
4.52426e-07
4.11191e-06
4.53627e-07
3.95979e-06
4.54677e-07
3.81007e-06
4.55622e-07
3.66311e-06
4.56485e-07
3.51927e-06
4.57274e-07
3.37885e-06
4.57996e-07
3.24207e-06
4.58651e-07
3.10913e-06
4.59241e-07
2.98015e-06
4.59769e-07
2.8552e-06
4.60236e-07
2.73432e-06
4.60647e-07
2.61751e-06
4.61006e-07
2.50473e-06
4.61318e-07
2.39592e-06
4.61589e-07
2.29099e-06
4.61826e-07
2.18982e-06
4.62028e-07
2.09231e-06
1.99893e-06
4.22397e-07
2.00449e-06
4.22446e-07
2.09926e-06
4.22519e-07
2.1984e-06
4.22617e-07
2.30205e-06
4.22739e-07
2.41041e-06
4.22888e-07
2.52367e-06
4.23067e-07
2.64197e-06
4.23279e-07
2.7655e-06
4.23524e-07
2.89442e-06
4.23805e-07
3.02888e-06
4.24124e-07
3.16906e-06
4.24485e-07
3.31511e-06
4.24891e-07
3.46719e-06
4.25347e-07
3.62545e-06
4.25858e-07
3.79e-06
4.26428e-07
3.96097e-06
4.27064e-07
4.13844e-06
4.27774e-07
4.32245e-06
4.28564e-07
4.51302e-06
4.29444e-07
4.71013e-06
4.30423e-07
4.91366e-06
4.31514e-07
5.12346e-06
4.32729e-07
5.33925e-06
4.34086e-07
5.56066e-06
4.35605e-07
5.78712e-06
4.37308e-07
6.01787e-06
4.39222e-07
6.25175e-06
4.4136e-07
6.48709e-06
4.43697e-07
6.72141e-06
4.46092e-07
6.95116e-06
4.48498e-07
8.35537e-06
4.49719e-07
8.17222e-06
4.48668e-07
7.9701e-06
4.43523e-07
7.74613e-06
4.31481e-07
7.499e-06
4.11124e-07
7.2343e-06
3.90275e-07
6.98811e-06
4.10467e-07
6.8065e-06
5.91695e-07
6.68892e-06
9.29439e-07
5.94251e-06
5.83642e-07
3.42381e-06
7.41352e-08
4.3381e-06
4.36013e-07
1.00617e-05
7.22975e-07
1.16514e-05
1.02052e-06
1.20799e-05
5.20601e-07
5.28079e-06
5.65962e-08
4.51266e-06
3.72587e-07
1.24629e-05
5.83193e-07
1.29306e-05
7.9484e-07
1.31543e-05
1.03398e-06
1.33371e-05
4.72919e-07
5.76336e-06
-3.61436e-08
4.94102e-06
2.24876e-07
1.34002e-05
4.05798e-07
1.36261e-05
5.80011e-07
1.36923e-05
8.25566e-07
1.33439e-05
2.76028e-07
5.0141e-06
-2.59308e-07
5.98237e-06
-1.3416e-08
1.34439e-05
1.81197e-07
1.29445e-05
3.50197e-07
1.25765e-05
5.12943e-07
1.25104e-05
6.6324e-07
1.28723e-05
9.17935e-07
1.29719e-05
4.10029e-07
5.3973e-06
-2.16816e-07
6.0686e-06
-3.31066e-08
1.29594e-05
1.37287e-07
1.21577e-05
4.24158e-07
1.10589e-05
6.90876e-07
7.19342e-06
3.49346e-07
4.09999e-06
7.40786e-08
3.73332e-06
1.98574e-07
4.79363e-06
3.24992e-07
5.20166e-06
3.92992e-07
5.19558e-06
4.27143e-07
5.05841e-06
4.43689e-07
4.89658e-06
4.51894e-07
4.73518e-06
4.5628e-07
4.57643e-06
4.58876e-07
4.41966e-06
4.60626e-07
4.26435e-06
4.61958e-07
4.11058e-06
4.63072e-07
3.95868e-06
4.64058e-07
3.80908e-06
4.64956e-07
3.66221e-06
4.65785e-07
3.51844e-06
4.66552e-07
3.37808e-06
4.67259e-07
3.24137e-06
4.67905e-07
3.10849e-06
4.68492e-07
2.97956e-06
4.69019e-07
2.85467e-06
4.6949e-07
2.73385e-06
4.69906e-07
2.6171e-06
4.70273e-07
2.50437e-06
4.70593e-07
2.3956e-06
4.70873e-07
2.29071e-06
4.71115e-07
2.18958e-06
4.71316e-07
2.09211e-06
1.99879e-06
4.18869e-07
2.00447e-06
4.18919e-07
2.09921e-06
4.18995e-07
2.19832e-06
4.19095e-07
2.30195e-06
4.19221e-07
2.41029e-06
4.19374e-07
2.52351e-06
4.19557e-07
2.64179e-06
4.19772e-07
2.76529e-06
4.20021e-07
2.89417e-06
4.20305e-07
3.0286e-06
4.20628e-07
3.16874e-06
4.20991e-07
3.31475e-06
4.21399e-07
3.46678e-06
4.21853e-07
3.62499e-06
4.2236e-07
3.7895e-06
4.22923e-07
3.96041e-06
4.23548e-07
4.13781e-06
4.24238e-07
4.32176e-06
4.25001e-07
4.51226e-06
4.25842e-07
4.70928e-06
4.26767e-07
4.91273e-06
4.27782e-07
5.12244e-06
4.28895e-07
5.33814e-06
4.30113e-07
5.55944e-06
4.31442e-07
5.7858e-06
4.32886e-07
6.01642e-06
4.34443e-07
6.25019e-06
4.3609e-07
6.48545e-06
4.37742e-07
6.71976e-06
4.39182e-07
6.94972e-06
4.40044e-07
8.35451e-06
4.39188e-07
8.17308e-06
4.35433e-07
7.97386e-06
4.27125e-07
7.75444e-06
4.1199e-07
7.51413e-06
3.89506e-07
7.25678e-06
3.69387e-07
7.00823e-06
3.87608e-07
6.78828e-06
5.44375e-07
6.53216e-06
7.89246e-07
5.69764e-06
4.5169e-07
3.76136e-06
4.71539e-08
4.74263e-06
4.01958e-07
9.70688e-06
6.7427e-07
1.13791e-05
9.37912e-07
1.18162e-05
5.03844e-07
5.71485e-06
1.19538e-07
4.89697e-06
4.18202e-07
1.21642e-05
6.03742e-07
1.2745e-05
7.84457e-07
1.29735e-05
9.86763e-07
1.31348e-05
4.88876e-07
6.26125e-06
3.44948e-08
5.3954e-06
2.6292e-07
1.31718e-05
4.10107e-07
1.34789e-05
5.53881e-07
1.35486e-05
7.51426e-07
1.31463e-05
2.43614e-07
5.52191e-06
-1.83484e-07
6.40947e-06
3.58437e-08
1.32245e-05
1.98464e-07
1.27819e-05
3.42406e-07
1.24326e-05
4.77203e-07
1.23756e-05
6.00333e-07
1.27492e-05
8.19474e-07
1.27527e-05
3.66704e-07
5.85006e-06
-1.58046e-07
6.59335e-06
5.65322e-09
1.27957e-05
1.57412e-07
1.2006e-05
4.29908e-07
1.07864e-05
6.59994e-07
6.96333e-06
4.05731e-07
4.35425e-06
1.84317e-07
3.95473e-06
2.53521e-07
4.72443e-06
3.48927e-07
5.10625e-06
4.06467e-07
5.13804e-06
4.37042e-07
5.02784e-06
4.52512e-07
4.88111e-06
4.60628e-07
4.72706e-06
4.65183e-07
4.57188e-06
4.6799e-07
4.41685e-06
4.69917e-07
4.26243e-06
4.71385e-07
4.10911e-06
4.726e-07
3.95747e-06
4.7366e-07
3.80802e-06
4.74615e-07
3.66126e-06
4.75488e-07
3.51757e-06
4.7629e-07
3.37728e-06
4.77025e-07
3.24063e-06
4.77697e-07
3.10782e-06
4.78305e-07
2.97895e-06
4.78852e-07
2.85413e-06
4.79341e-07
2.73336e-06
4.79774e-07
2.61666e-06
4.80157e-07
2.50398e-06
4.80492e-07
2.39527e-06
4.80785e-07
2.29042e-06
4.81036e-07
2.18933e-06
4.81243e-07
2.0919e-06
1.99864e-06
4.14847e-07
2.00445e-06
4.14899e-07
2.09916e-06
4.14976e-07
2.19824e-06
4.15077e-07
2.30185e-06
4.15203e-07
2.41016e-06
4.15356e-07
2.52336e-06
4.15539e-07
2.64161e-06
4.15752e-07
2.76507e-06
4.15999e-07
2.89392e-06
4.16279e-07
3.02832e-06
4.16596e-07
3.16842e-06
4.16951e-07
3.31439e-06
4.17347e-07
3.46639e-06
4.17787e-07
3.62455e-06
4.18275e-07
3.78901e-06
4.18812e-07
3.95987e-06
4.19403e-07
4.13722e-06
4.20051e-07
4.32111e-06
4.20758e-07
4.51155e-06
4.21528e-07
4.70852e-06
4.22361e-07
4.9119e-06
4.2326e-07
5.12154e-06
4.24222e-07
5.33718e-06
4.25245e-07
5.55842e-06
4.26322e-07
5.78472e-06
4.27437e-07
6.01531e-06
4.28563e-07
6.24907e-06
4.29641e-07
6.48437e-06
4.3054e-07
6.71886e-06
4.3099e-07
6.94927e-06
4.30319e-07
8.35518e-06
4.27545e-07
8.17585e-06
4.21591e-07
7.97981e-06
4.10961e-07
7.76507e-06
3.94095e-07
7.531e-06
3.71354e-07
7.27952e-06
3.53691e-07
7.02589e-06
3.70683e-07
6.77129e-06
4.99099e-07
6.40374e-06
6.5793e-07
5.53881e-06
3.56102e-07
4.06319e-06
1.62712e-08
5.08246e-06
3.58852e-07
9.3643e-06
6.23153e-07
1.11148e-05
8.62867e-07
1.15765e-05
4.87875e-07
6.08985e-06
1.75961e-07
5.20888e-06
4.71397e-07
1.18688e-05
6.2329e-07
1.25931e-05
7.74904e-07
1.28219e-05
9.46162e-07
1.29635e-05
5.0361e-07
6.7038e-06
9.75561e-08
5.80145e-06
3.0008e-07
1.29693e-05
4.19807e-07
1.33592e-05
5.38776e-07
1.34296e-05
6.99095e-07
1.2986e-05
2.36162e-07
5.98484e-06
-1.05855e-07
6.75149e-06
9.00999e-08
1.30286e-05
2.20885e-07
1.26511e-05
3.39371e-07
1.23141e-05
4.42209e-07
1.22728e-05
5.44734e-07
1.26466e-05
7.26744e-07
1.25707e-05
3.12294e-07
6.26452e-06
-1.02652e-07
7.00829e-06
5.48928e-08
1.26381e-05
1.94101e-07
1.18667e-05
4.43065e-07
1.05374e-05
6.33702e-07
6.77269e-06
4.42844e-07
4.5451e-06
2.64381e-07
4.1332e-06
2.96046e-07
4.69277e-06
3.66761e-07
5.03554e-06
4.16211e-07
5.08859e-06
4.44377e-07
4.99967e-06
4.59591e-07
4.8659e-06
4.68113e-07
4.71854e-06
4.73201e-07
4.56679e-06
4.76498e-07
4.41355e-06
4.78832e-07
4.26009e-06
4.80623e-07
4.10732e-06
4.82087e-07
3.956e-06
4.83341e-07
3.80677e-06
4.84448e-07
3.66015e-06
4.8544e-07
3.51658e-06
4.86338e-07
3.37638e-06
4.87151e-07
3.23982e-06
4.87885e-07
3.10708e-06
4.88546e-07
2.97829e-06
4.89137e-07
2.85353e-06
4.89663e-07
2.73284e-06
4.90129e-07
2.6162e-06
4.90538e-07
2.50358e-06
4.90896e-07
2.39491e-06
4.91207e-07
2.29011e-06
4.91473e-07
2.18907e-06
4.9169e-07
2.09169e-06
1.99848e-06
4.10385e-07
2.00442e-06
4.10437e-07
2.09911e-06
4.10514e-07
2.19817e-06
4.10614e-07
2.30175e-06
4.10738e-07
2.41004e-06
4.10889e-07
2.52321e-06
4.11067e-07
2.64143e-06
4.11275e-07
2.76487e-06
4.11513e-07
2.89368e-06
4.11784e-07
3.02805e-06
4.12088e-07
3.16812e-06
4.12427e-07
3.31405e-06
4.12803e-07
3.46601e-06
4.13218e-07
3.62414e-06
4.13673e-07
3.78855e-06
4.14171e-07
3.95937e-06
4.14713e-07
4.13668e-06
4.153e-07
4.32052e-06
4.15932e-07
4.51092e-06
4.16609e-07
4.70784e-06
4.17327e-07
4.91118e-06
4.1808e-07
5.12079e-06
4.18862e-07
5.33639e-06
4.19659e-07
5.55762e-06
4.2045e-07
5.78393e-06
4.21204e-07
6.01455e-06
4.21872e-07
6.2484e-06
4.22365e-07
6.48388e-06
4.22519e-07
6.71871e-06
4.22028e-07
6.94976e-06
4.19991e-07
8.35722e-06
4.15651e-07
8.18019e-06
4.08034e-07
7.98742e-06
3.96036e-07
7.77707e-06
3.78848e-07
7.54819e-06
3.57614e-07
7.30076e-06
3.43351e-07
7.04016e-06
3.60053e-07
6.75459e-06
4.56406e-07
6.30739e-06
5.38194e-07
5.45703e-06
2.62772e-07
4.33861e-06
-1.34142e-08
5.35865e-06
3.10674e-07
9.04021e-06
5.71689e-07
1.08538e-05
7.98505e-07
1.13497e-05
4.82193e-07
6.40616e-06
2.2688e-07
5.46419e-06
5.15976e-07
1.15797e-05
6.41947e-07
1.24671e-05
7.66948e-07
1.26969e-05
9.10994e-07
1.28195e-05
5.17285e-07
7.09751e-06
1.54073e-07
6.16466e-06
3.34904e-07
1.27884e-05
4.33419e-07
1.32607e-05
5.33226e-07
1.33298e-05
6.65913e-07
1.28533e-05
2.48994e-07
6.40176e-06
-3.07174e-08
7.0312e-06
1.45092e-07
1.28528e-05
2.47001e-07
1.25492e-05
3.42436e-07
1.22187e-05
4.2018e-07
1.2195e-05
5.02382e-07
1.25644e-05
6.47765e-07
1.24253e-05
2.66103e-07
6.64618e-06
-4.53446e-08
7.31974e-06
1.15191e-07
1.24776e-05
2.46252e-07
1.17357e-05
4.68333e-07
1.03153e-05
6.15587e-07
6.62544e-06
4.65914e-07
4.69478e-06
3.21618e-07
4.27749e-06
3.29793e-07
4.68459e-06
3.81677e-07
4.98365e-06
4.24288e-07
5.04598e-06
4.50589e-07
4.97337e-06
4.65893e-07
4.85059e-06
4.75049e-07
4.70938e-06
4.8084e-07
4.561e-06
4.84767e-07
4.40962e-06
4.87625e-07
4.25724e-06
4.89838e-07
4.10511e-06
4.91639e-07
3.9542e-06
4.93162e-07
3.80525e-06
4.94483e-07
3.65883e-06
4.95649e-07
3.51541e-06
4.96686e-07
3.37535e-06
4.97613e-07
3.23889e-06
4.98441e-07
3.10625e-06
4.99179e-07
2.97755e-06
4.99835e-07
2.85288e-06
5.00415e-07
2.73226e-06
5.00925e-07
2.61569e-06
5.01371e-07
2.50313e-06
5.0176e-07
2.39452e-06
5.02095e-07
2.28977e-06
5.02378e-07
2.18878e-06
5.02609e-07
2.09145e-06
1.99832e-06
4.05543e-07
2.0044e-06
4.05594e-07
2.09906e-06
4.05669e-07
2.19809e-06
4.05767e-07
2.30165e-06
4.05888e-07
2.40992e-06
4.06033e-07
2.52306e-06
4.06205e-07
2.64126e-06
4.06403e-07
2.76467e-06
4.0663e-07
2.89346e-06
4.06886e-07
3.02779e-06
4.07173e-07
3.16783e-06
4.0749e-07
3.31374e-06
4.07839e-07
3.46566e-06
4.08221e-07
3.62375e-06
4.08636e-07
3.78814e-06
4.09086e-07
3.95892e-06
4.09569e-07
4.13619e-06
4.10085e-07
4.32001e-06
4.1063e-07
4.51038e-06
4.112e-07
4.70727e-06
4.11789e-07
4.91059e-06
4.12384e-07
5.12019e-06
4.12973e-07
5.33581e-06
4.13531e-07
5.55706e-06
4.14028e-07
5.78343e-06
4.1442e-07
6.01416e-06
4.14638e-07
6.24818e-06
4.14575e-07
6.48394e-06
4.14045e-07
6.71924e-06
4.12726e-07
6.95108e-06
4.09552e-07
8.36039e-06
4.04018e-07
8.18573e-06
3.95355e-07
7.99609e-06
3.82812e-07
7.78961e-06
3.66283e-07
7.56472e-06
3.47492e-07
7.31955e-06
3.36482e-07
7.05117e-06
3.51745e-07
6.73932e-06
4.15944e-07
6.24319e-06
4.3803e-07
5.43494e-06
1.86667e-07
4.58997e-06
-3.64241e-08
5.58174e-06
2.59358e-07
8.74443e-06
5.20016e-07
1.05931e-05
7.46794e-07
1.11229e-05
4.94313e-07
6.65864e-06
2.77027e-07
5.68148e-06
5.56828e-07
1.12999e-05
6.61763e-07
1.23622e-05
7.60617e-07
1.25981e-05
8.80839e-07
1.26993e-05
5.31866e-07
7.44648e-06
2.04764e-07
6.49177e-06
3.66662e-07
1.26265e-05
4.48653e-07
1.31787e-05
5.34066e-07
1.32444e-05
6.47714e-07
1.27397e-05
2.76683e-07
6.77279e-06
3.98275e-08
7.26806e-06
1.97981e-07
1.26946e-05
2.75802e-07
1.24714e-05
3.51022e-07
1.21434e-05
4.09217e-07
1.21368e-05
4.75776e-07
1.24979e-05
5.88848e-07
1.23123e-05
2.38065e-07
6.99696e-06
1.67554e-08
7.54105e-06
1.86717e-07
1.23076e-05
3.10607e-07
1.16118e-05
5.0346e-07
1.01225e-05
6.08839e-07
6.52006e-06
4.8659e-07
4.81703e-06
3.6561e-07
4.39847e-06
3.59072e-07
4.69113e-06
3.96531e-07
4.94619e-06
4.32794e-07
5.00972e-06
4.57191e-07
4.94897e-06
4.72468e-07
4.83531e-06
4.82186e-07
4.69966e-06
4.88654e-07
4.55453e-06
4.93215e-07
4.40506e-06
4.96614e-07
4.25384e-06
4.99275e-07
4.10245e-06
5.01443e-07
3.95203e-06
5.03265e-07
3.80342e-06
5.04831e-07
3.65727e-06
5.06195e-07
3.51405e-06
5.07396e-07
3.37414e-06
5.08458e-07
3.23783e-06
5.09398e-07
3.10531e-06
5.10229e-07
2.97672e-06
5.10963e-07
2.85214e-06
5.11607e-07
2.73161e-06
5.12171e-07
2.61512e-06
5.12662e-07
2.50264e-06
5.13086e-07
2.3941e-06
5.1345e-07
2.28941e-06
5.13755e-07
2.18848e-06
5.14002e-07
2.09121e-06
1.99814e-06
4.00372e-07
2.00438e-06
4.00422e-07
2.09901e-06
4.00495e-07
2.19802e-06
4.0059e-07
2.30155e-06
4.00706e-07
2.4098e-06
4.00845e-07
2.52293e-06
4.01008e-07
2.6411e-06
4.01195e-07
2.76448e-06
4.01408e-07
2.89324e-06
4.01647e-07
3.02755e-06
4.01913e-07
3.16756e-06
4.02205e-07
3.31344e-06
4.02523e-07
3.46534e-06
4.02868e-07
3.62341e-06
4.03239e-07
3.78777e-06
4.03636e-07
3.95853e-06
4.04055e-07
4.13578e-06
4.04493e-07
4.31957e-06
4.04946e-07
4.50992e-06
4.05405e-07
4.70681e-06
4.05859e-07
4.91014e-06
4.06294e-07
5.11976e-06
4.06687e-07
5.33541e-06
4.0701e-07
5.55674e-06
4.07222e-07
5.78322e-06
4.07269e-07
6.01412e-06
4.07069e-07
6.24838e-06
4.06504e-07
6.48451e-06
4.05377e-07
6.72036e-06
4.03365e-07
6.95309e-06
3.993e-07
8.36446e-06
3.92924e-07
8.1921e-06
3.83678e-07
8.00533e-06
3.71129e-07
7.80216e-06
3.55666e-07
7.58018e-06
3.39316e-07
7.3359e-06
3.30381e-07
7.0601e-06
3.41685e-07
6.72802e-06
3.74402e-07
6.21047e-06
3.53267e-07
5.45607e-06
1.27654e-07
4.81559e-06
-5.4129e-08
5.76352e-06
2.02985e-07
8.48732e-06
4.66556e-07
1.03296e-05
7.06085e-07
1.08834e-05
5.2504e-07
6.83968e-06
3.32321e-07
5.8742e-06
5.95211e-07
1.1037e-05
6.83381e-07
1.2274e-05
7.5585e-07
1.25256e-05
8.55583e-07
1.25995e-05
5.48786e-07
7.75328e-06
2.50379e-07
6.79017e-06
3.94434e-07
1.24825e-05
4.63986e-07
1.31091e-05
5.37871e-07
1.31705e-05
6.39495e-07
1.26381e-05
3.13335e-07
7.09895e-06
1.05513e-07
7.47588e-06
2.46896e-07
1.25532e-05
3.06133e-07
1.24122e-05
3.64309e-07
1.20853e-05
4.07871e-07
1.20933e-05
4.65167e-07
1.24406e-05
5.53553e-07
1.22239e-05
2.33163e-07
7.31735e-06
8.51486e-08
7.68906e-06
2.6735e-07
1.21254e-05
3.84061e-07
1.14951e-05
5.44567e-07
9.96198e-06
6.13011e-07
6.45162e-06
5.07431e-07
4.92261e-06
4.029e-07
4.503e-06
3.8703e-07
4.707e-06
4.13146e-07
4.92008e-06
4.43274e-07
4.97959e-06
4.65414e-07
4.92683e-06
4.80267e-07
4.82046e-06
4.90249e-07
4.68968e-06
4.97202e-07
4.54758e-06
5.02273e-07
4.39999e-06
5.0614e-07
4.24997e-06
5.09208e-07
4.09938e-06
5.11721e-07
3.94952e-06
5.13831e-07
3.80131e-06
5.15637e-07
3.65546e-06
5.17202e-07
3.51248e-06
5.1857e-07
3.37278e-06
5.19772e-07
3.23663e-06
5.2083e-07
3.10426e-06
5.2176e-07
2.97579e-06
5.22577e-07
2.85133e-06
5.23292e-07
2.7309e-06
5.23914e-07
2.6145e-06
5.24454e-07
2.5021e-06
5.24919e-07
2.39363e-06
5.25314e-07
2.28901e-06
5.25645e-07
2.18815e-06
5.25911e-07
2.09094e-06
1.99795e-06
3.94907e-07
2.00436e-06
3.94956e-07
2.09896e-06
3.95028e-07
2.19795e-06
3.9512e-07
2.30146e-06
3.95232e-07
2.40969e-06
3.95364e-07
2.52279e-06
3.95518e-07
2.64094e-06
3.95694e-07
2.7643e-06
3.95892e-07
2.89304e-06
3.96113e-07
3.02733e-06
3.96356e-07
3.16732e-06
3.96621e-07
3.31318e-06
3.96907e-07
3.46506e-06
3.97213e-07
3.6231e-06
3.97538e-07
3.78744e-06
3.97879e-07
3.95818e-06
3.98232e-07
4.13542e-06
3.98592e-07
4.31921e-06
3.98951e-07
4.50956e-06
3.99299e-07
4.70646e-06
3.99621e-07
4.90982e-06
3.99897e-07
5.11948e-06
4.00101e-07
5.33521e-06
4.002e-07
5.55664e-06
4.00145e-07
5.78327e-06
3.99874e-07
6.01439e-06
3.99299e-07
6.24896e-06
3.98293e-07
6.48551e-06
3.96657e-07
6.722e-06
3.94077e-07
6.95567e-06
3.89323e-07
8.36921e-06
3.8236e-07
8.19907e-06
3.72806e-07
8.01489e-06
3.60461e-07
7.81451e-06
3.45956e-07
7.59469e-06
3.31299e-07