/*--------------------------------*- C++ -*----------------------------------*\
  =========                 |
  \\      /  F ield         | OpenFOAM: The Open Source CFD Toolbox
   \\    /   O peration     | Website:  https://openfoam.org
    \\  /    A nd           | Version:  9
     \\/     M anipulation  |
\*---------------------------------------------------------------------------*/
FoamFile
{
    format      ascii;
    class       volScalarField;
    location    "0.06";
    object      rAU;
}
// * * * * * * * * * * * * * * * * * * * * * * * * * * * * * * * * * * * * * //

dimensions      [-1 3 1 0 0 0 0];

internalField   nonuniform List<scalar> 
20000
(
1.51601e-05
1.82309e-05
1.84894e-05
1.87336e-05
1.8964e-05
1.91815e-05
1.93869e-05
1.95809e-05
1.97643e-05
1.9938e-05
2.01028e-05
2.02595e-05
2.04089e-05
2.05517e-05
2.06888e-05
2.08209e-05
2.09488e-05
2.10734e-05
2.11953e-05
2.13155e-05
2.14348e-05
2.1554e-05
2.1674e-05
2.17959e-05
2.19208e-05
2.20499e-05
2.21847e-05
2.23275e-05
2.24812e-05
2.26602e-05
2.294e-05
2.31604e-05
2.3401e-05
2.36809e-05
2.40155e-05
2.44105e-05
2.47446e-05
2.44553e-05
2.3139e-05
2.11376e-05
3.96247e-05
4.02497e-05
1.85957e-05
1.80807e-05
1.72168e-05
3.71799e-05
3.78125e-05
1.71435e-05
1.75282e-05
1.73387e-05
1.68118e-05
3.58919e-05
3.61042e-05
1.67199e-05
1.71364e-05
1.70836e-05
1.66329e-05
3.61762e-05
3.62464e-05
1.68804e-05
1.76699e-05
1.81004e-05
1.81477e-05
1.77701e-05
1.70007e-05
3.61383e-05
3.59553e-05
1.72517e-05
1.81991e-05
1.87258e-05
1.92411e-05
3.95463e-05
3.94474e-05
2.10562e-05
2.13776e-05
2.18798e-05
2.2176e-05
2.22421e-05
2.21699e-05
2.20316e-05
2.18659e-05
2.16906e-05
2.15129e-05
2.13354e-05
2.11585e-05
2.09818e-05
2.08043e-05
2.06252e-05
2.04433e-05
2.02575e-05
2.00668e-05
1.98702e-05
1.96666e-05
1.94551e-05
1.92348e-05
1.90049e-05
1.87645e-05
1.8513e-05
1.82497e-05
1.93763e-05
1.91541e-05
2.43193e-05
2.47678e-05
2.51933e-05
2.55962e-05
2.59772e-05
2.63369e-05
2.66764e-05
2.69964e-05
2.72979e-05
2.75821e-05
2.78498e-05
2.81023e-05
2.83404e-05
2.85654e-05
2.87782e-05
2.89799e-05
2.91715e-05
2.93542e-05
2.95289e-05
2.96966e-05
2.98585e-05
3.00154e-05
3.01686e-05
3.0319e-05
3.04679e-05
3.06166e-05
3.07669e-05
3.09211e-05
3.11008e-05
3.1426e-05
3.15884e-05
3.17527e-05
3.19414e-05
3.21633e-05
3.24195e-05
3.2633e-05
3.24699e-05
3.1635e-05
3.04295e-05
3.87502e-05
3.96357e-05
2.86085e-05
2.77751e-05
2.69348e-05
3.79571e-05
3.87231e-05
2.71598e-05
2.73158e-05
2.70093e-05
2.64913e-05
3.75897e-05
3.81852e-05
2.67208e-05
2.69458e-05
2.67846e-05
2.63622e-05
3.7772e-05
3.77894e-05
2.68569e-05
2.74836e-05
2.7748e-05
2.7722e-05
2.73435e-05
2.66553e-05
3.76357e-05
3.78011e-05
2.72146e-05
2.79717e-05
2.83038e-05
2.87321e-05
3.8348e-05
3.80176e-05
3.0553e-05
3.05523e-05
3.05848e-05
3.05721e-05
3.04808e-05
3.03286e-05
3.01411e-05
2.99349e-05
2.97179e-05
2.94933e-05
2.9262e-05
2.90236e-05
2.87773e-05
2.8522e-05
2.82564e-05
2.79794e-05
2.76897e-05
2.73859e-05
2.7067e-05
2.67318e-05
2.63792e-05
2.60081e-05
2.56178e-05
2.52075e-05
2.47764e-05
2.43242e-05
2.63872e-05
1.91563e-05
2.43213e-05
2.47699e-05
2.51953e-05
2.55982e-05
2.59791e-05
2.63388e-05
2.66781e-05
2.6998e-05
2.72995e-05
2.75835e-05
2.78511e-05
2.81034e-05
2.83414e-05
2.85662e-05
2.87789e-05
2.89804e-05
2.91719e-05
2.93544e-05
2.95288e-05
2.96964e-05
2.9858e-05
3.00148e-05
3.01677e-05
3.03179e-05
3.04665e-05
3.0615e-05
3.07651e-05
3.09191e-05
3.10986e-05
3.14242e-05
3.15863e-05
3.17504e-05
3.19387e-05
3.21588e-05
3.24095e-05
3.26228e-05
3.25214e-05
3.18569e-05
3.10578e-05
3.78317e-05
3.86451e-05
2.89654e-05
2.79652e-05
2.72061e-05
3.699e-05
3.78507e-05
2.74321e-05
2.74688e-05
2.71306e-05
2.66587e-05
3.6697e-05
3.7421e-05
2.69527e-05
2.71065e-05
2.6919e-05
2.65937e-05
3.71246e-05
3.67313e-05
2.70584e-05
2.76691e-05
2.78709e-05
2.78089e-05
2.74352e-05
2.68383e-05
3.68066e-05
3.68205e-05
2.74428e-05
2.81929e-05
2.85239e-05
2.92237e-05
3.71903e-05
3.68652e-05
3.10883e-05
3.08527e-05
3.07798e-05
3.06762e-05
3.05345e-05
3.0356e-05
3.01552e-05
2.9942e-05
2.97212e-05
2.94943e-05
2.92614e-05
2.90219e-05
2.87747e-05
2.85186e-05
2.82523e-05
2.79746e-05
2.76842e-05
2.73799e-05
2.70604e-05
2.67247e-05
2.63716e-05
2.60001e-05
2.56095e-05
2.51988e-05
2.47674e-05
2.4315e-05
2.63755e-05
1.91597e-05
2.43246e-05
2.4773e-05
2.51985e-05
2.56013e-05
2.59821e-05
2.63417e-05
2.6681e-05
2.70008e-05
2.73022e-05
2.75861e-05
2.78536e-05
2.81057e-05
2.83436e-05
2.85683e-05
2.87808e-05
2.89822e-05
2.91735e-05
2.93558e-05
2.95302e-05
2.96976e-05
2.98591e-05
3.00157e-05
3.01685e-05
3.03185e-05
3.04671e-05
3.06156e-05
3.07658e-05
3.09199e-05
3.10996e-05
3.14259e-05
3.15885e-05
3.17532e-05
3.19421e-05
3.2162e-05
3.24104e-05
3.26302e-05
3.26046e-05
3.21058e-05
3.17065e-05
3.7171e-05
3.76188e-05
2.93063e-05
2.81702e-05
2.75143e-05
3.61229e-05
3.70558e-05
2.77206e-05
2.7623e-05
2.7281e-05
2.68751e-05
3.58359e-05
3.66691e-05
2.72131e-05
2.72738e-05
2.70794e-05
2.6878e-05
3.649e-05
3.57892e-05
2.72524e-05
2.78165e-05
2.8012e-05
2.79326e-05
2.75665e-05
2.70785e-05
3.60226e-05
3.58858e-05
2.76615e-05
2.8377e-05
2.87641e-05
2.97151e-05
3.61462e-05
3.60124e-05
3.16862e-05
3.11478e-05
3.09069e-05
3.07405e-05
3.05667e-05
3.03714e-05
3.01615e-05
2.99432e-05
2.97195e-05
2.94907e-05
2.92566e-05
2.90162e-05
2.87682e-05
2.85114e-05
2.82445e-05
2.79662e-05
2.76753e-05
2.73704e-05
2.70504e-05
2.67142e-05
2.63606e-05
2.59887e-05
2.55976e-05
2.51866e-05
2.47549e-05
2.43024e-05
2.63597e-05
1.91645e-05
2.4329e-05
2.47774e-05
2.52028e-05
2.56056e-05
2.59864e-05
2.63459e-05
2.66851e-05
2.70048e-05
2.7306e-05
2.75898e-05
2.78572e-05
2.81093e-05
2.8347e-05
2.85716e-05
2.87839e-05
2.89852e-05
2.91764e-05
2.93586e-05
2.95329e-05
2.97002e-05
2.98616e-05
3.00181e-05
3.01709e-05
3.0321e-05
3.04696e-05
3.06182e-05
3.07686e-05
3.09232e-05
3.11033e-05
3.14303e-05
3.15937e-05
3.17596e-05
3.19496e-05
3.21697e-05
3.2417e-05
3.26422e-05
3.26869e-05
3.23473e-05
3.23004e-05
3.67108e-05
3.67333e-05
2.95996e-05
2.83859e-05
2.78171e-05
3.5391e-05
3.63772e-05
2.79965e-05
2.77721e-05
2.744e-05
2.70984e-05
3.50724e-05
3.59909e-05
2.74669e-05
2.74327e-05
2.72423e-05
2.71606e-05
3.58708e-05
3.49941e-05
2.74661e-05
2.7973e-05
2.81553e-05
2.80716e-05
2.77127e-05
2.73311e-05
3.53374e-05
3.50564e-05
2.7871e-05
2.85431e-05
2.89979e-05
3.01284e-05
3.5268e-05
3.53901e-05
3.21735e-05
3.13616e-05
3.09971e-05
3.078e-05
3.05821e-05
3.03753e-05
3.01597e-05
2.99386e-05
2.97131e-05
2.94832e-05
2.92483e-05
2.90072e-05
2.87586e-05
2.85012e-05
2.82337e-05
2.79549e-05
2.76634e-05
2.7358e-05
2.70375e-05
2.67007e-05
2.63467e-05
2.59743e-05
2.55828e-05
2.51714e-05
2.47394e-05
2.42866e-05
2.63402e-05
1.91705e-05
2.43346e-05
2.47831e-05
2.52084e-05
2.56111e-05
2.59918e-05
2.63513e-05
2.66904e-05
2.701e-05
2.73111e-05
2.75948e-05
2.78621e-05
2.8114e-05
2.83516e-05
2.85761e-05
2.87883e-05
2.89895e-05
2.91806e-05
2.93627e-05
2.95369e-05
2.97041e-05
2.98655e-05
3.0022e-05
3.01748e-05
3.0325e-05
3.04738e-05
3.06227e-05
3.07734e-05
3.09284e-05
3.11092e-05
3.14365e-05
3.1601e-05
3.1768e-05
3.19588e-05
3.21787e-05
3.24247e-05
3.26535e-05
3.27565e-05
3.25758e-05
3.28104e-05
3.63659e-05
3.6041e-05
2.98893e-05
2.86065e-05
2.80955e-05
3.47866e-05
3.58146e-05
2.82471e-05
2.7909e-05
2.7594e-05
2.73045e-05
3.4411e-05
3.54019e-05
2.76938e-05
2.75712e-05
2.7393e-05
2.74124e-05
3.53042e-05
3.43583e-05
2.7681e-05
2.81295e-05
2.82899e-05
2.82114e-05
2.78601e-05
2.7575e-05
3.47603e-05
3.43537e-05
2.80604e-05
2.86949e-05
2.92236e-05
3.04657e-05
3.4568e-05
3.49218e-05
3.25165e-05
3.15055e-05
3.10695e-05
3.08113e-05
3.0592e-05
3.03747e-05
3.01544e-05
2.99308e-05
2.97039e-05
2.94732e-05
2.92376e-05
2.89958e-05
2.87467e-05
2.84888e-05
2.82208e-05
2.79414e-05
2.76494e-05
2.73434e-05
2.70223e-05
2.66851e-05
2.63305e-05
2.59577e-05
2.55657e-05
2.51539e-05
2.47216e-05
2.42685e-05
2.63176e-05
1.91779e-05
2.43415e-05
2.479e-05
2.52152e-05
2.56179e-05
2.59985e-05
2.63579e-05
2.66969e-05
2.70164e-05
2.73174e-05
2.7601e-05
2.78681e-05
2.81199e-05
2.83574e-05
2.85817e-05
2.87939e-05
2.89949e-05
2.9186e-05
2.9368e-05
2.95421e-05
2.97093e-05
2.98707e-05
3.00273e-05
3.01801e-05
3.03304e-05
3.04794e-05
3.06286e-05
3.07797e-05
3.09353e-05
3.11167e-05
3.1444e-05
3.16093e-05
3.1777e-05
3.19679e-05
3.21862e-05
3.24295e-05
3.26622e-05
3.28122e-05
3.2787e-05
3.32341e-05
3.60821e-05
3.55187e-05
3.0185e-05
2.88279e-05
2.83469e-05
3.42871e-05
3.52953e-05
2.84381e-05
2.80309e-05
2.77343e-05
2.74851e-05
3.3841e-05
3.48941e-05
2.78896e-05
2.76851e-05
2.75226e-05
2.76218e-05
3.47782e-05
3.38653e-05
2.78872e-05
2.82749e-05
2.84089e-05
2.83411e-05
2.79974e-05
2.78017e-05
3.42723e-05
3.37678e-05
2.82275e-05
2.88305e-05
2.94387e-05
3.07531e-05
3.40396e-05
3.44469e-05
3.26431e-05
3.16153e-05
3.11312e-05
3.08403e-05
3.06019e-05
3.03746e-05
3.01491e-05
2.99227e-05
2.96942e-05
2.94623e-05
2.92258e-05
2.89834e-05
2.87336e-05
2.84751e-05
2.82064e-05
2.79265e-05
2.76338e-05
2.73272e-05
2.70056e-05
2.66678e-05
2.63126e-05
2.59393e-05
2.55469e-05
2.51346e-05
2.4702e-05
2.42486e-05
2.62929e-05
1.91867e-05
2.43497e-05
2.4798e-05
2.52233e-05
2.56258e-05
2.60064e-05
2.63657e-05
2.67045e-05
2.70239e-05
2.73248e-05
2.76082e-05
2.78753e-05
2.81269e-05
2.83643e-05
2.85885e-05
2.88005e-05
2.90015e-05
2.91924e-05
2.93744e-05
2.95485e-05
2.97156e-05
2.9877e-05
3.00336e-05
3.01865e-05
3.03369e-05
3.04861e-05
3.06356e-05
3.07871e-05
3.09431e-05
3.1125e-05
3.14518e-05
3.16176e-05
3.17855e-05
3.19756e-05
3.21914e-05
3.24312e-05
3.2667e-05
3.28554e-05
3.29754e-05
3.35753e-05
3.58276e-05
3.513e-05
3.04872e-05
2.90487e-05
2.85762e-05
3.38701e-05
3.48624e-05
2.86112e-05
2.81384e-05
2.78578e-05
2.76411e-05
3.33495e-05
3.44127e-05
2.80309e-05
2.77755e-05
2.76291e-05
2.77899e-05
3.42841e-05
3.34823e-05
2.80538e-05
2.83743e-05
2.85093e-05
2.84536e-05
2.81181e-05
2.80074e-05
3.38632e-05
3.3297e-05
2.83707e-05
2.89415e-05
2.9637e-05
3.10012e-05
3.36554e-05
3.40234e-05
3.26506e-05
3.16971e-05
3.11852e-05
3.08682e-05
3.06129e-05
3.03762e-05
3.01453e-05
2.99156e-05
2.9685e-05
2.94516e-05
2.9214e-05
2.89706e-05
2.872e-05
2.84607e-05
2.81913e-05
2.79106e-05
2.76173e-05
2.731e-05
2.69878e-05
2.66493e-05
2.62936e-05
2.59197e-05
2.55268e-05
2.5114e-05
2.4681e-05
2.42272e-05
2.62663e-05
1.91966e-05
2.43589e-05
2.48072e-05
2.52324e-05
2.56349e-05
2.60153e-05
2.63745e-05
2.67132e-05
2.70325e-05
2.73332e-05
2.76165e-05
2.78834e-05
2.81349e-05
2.83722e-05
2.85962e-05
2.88081e-05
2.9009e-05
2.91998e-05
2.93817e-05
2.95557e-05
2.97228e-05
2.98842e-05
3.00408e-05
3.01937e-05
3.03443e-05
3.04936e-05
3.06433e-05
3.07951e-05
3.09514e-05
3.11336e-05
3.14594e-05
3.16253e-05
3.17925e-05
3.19811e-05
3.21935e-05
3.24293e-05
3.26685e-05
3.28888e-05
3.3134e-05
3.38331e-05
3.55882e-05
3.48216e-05
3.07918e-05
2.92707e-05
2.87881e-05
3.35172e-05
3.45136e-05
2.87785e-05
2.82233e-05
2.7963e-05
2.77751e-05
3.29241e-05
3.39705e-05
2.81374e-05
2.78461e-05
2.77147e-05
2.79226e-05
3.38275e-05
3.31808e-05
2.81983e-05
2.84453e-05
2.85899e-05
2.85443e-05
2.82213e-05
2.81856e-05
3.35085e-05
3.29401e-05
2.84855e-05
2.90161e-05
2.9811e-05
3.12057e-05
3.33791e-05
3.37022e-05
3.26305e-05
3.17563e-05
3.12326e-05
3.0895e-05
3.06248e-05
3.03792e-05
3.01428e-05
2.99096e-05
2.96766e-05
2.94415e-05
2.92024e-05
2.89579e-05
2.87062e-05
2.84459e-05
2.81757e-05
2.78942e-05
2.76e-05
2.7292e-05
2.6969e-05
2.66299e-05
2.62735e-05
2.5899e-05
2.55055e-05
2.50923e-05
2.46588e-05
2.42047e-05
2.62383e-05
1.92076e-05
2.43692e-05
2.48174e-05
2.52425e-05
2.56449e-05
2.60252e-05
2.63842e-05
2.67228e-05
2.70419e-05
2.73425e-05
2.76257e-05
2.78924e-05
2.81438e-05
2.83809e-05
2.86048e-05
2.88165e-05
2.90172e-05
2.9208e-05
2.93897e-05
2.95636e-05
2.97307e-05
2.9892e-05
3.00486e-05
3.02016e-05
3.03522e-05
3.05016e-05
3.06514e-05
3.08034e-05
3.09598e-05
3.1142e-05
3.14664e-05
3.16318e-05
3.1798e-05
3.19843e-05
3.21931e-05
3.24248e-05
3.26679e-05
3.29162e-05
3.32596e-05
3.40097e-05
3.53796e-05
3.45568e-05
3.10706e-05
2.94951e-05
2.89878e-05
3.32174e-05
3.42261e-05
2.89488e-05
2.82914e-05
2.80501e-05
2.78894e-05
3.25543e-05
3.35847e-05
2.82322e-05
2.79013e-05
2.77835e-05
2.80276e-05
3.34117e-05
3.29371e-05
2.83274e-05
2.84952e-05
2.86512e-05
2.86095e-05
2.83024e-05
2.83303e-05
3.31821e-05
3.26826e-05
2.85967e-05
2.90743e-05
2.99559e-05
3.13589e-05
3.31698e-05
3.34543e-05
3.25943e-05
3.17964e-05
3.12728e-05
3.09197e-05
3.06369e-05
3.0383e-05
3.01412e-05
2.99043e-05
2.96687e-05
2.94316e-05
2.9191e-05
2.8945e-05
2.86922e-05
2.84308e-05
2.81596e-05
2.78771e-05
2.75821e-05
2.72733e-05
2.69495e-05
2.66096e-05
2.62525e-05
2.58774e-05
2.54833e-05
2.50696e-05
2.46356e-05
2.41811e-05
2.62089e-05
1.92196e-05
2.43803e-05
2.48285e-05
2.52534e-05
2.56557e-05
2.60359e-05
2.63948e-05
2.67332e-05
2.70522e-05
2.73526e-05
2.76356e-05
2.79021e-05
2.81533e-05
2.83902e-05
2.86139e-05
2.88255e-05
2.90261e-05
2.92167e-05
2.93983e-05
2.95721e-05
2.97391e-05
2.99003e-05
3.00568e-05
3.02098e-05
3.03603e-05
3.05098e-05
3.06596e-05
3.08116e-05
3.0968e-05
3.115e-05
3.14726e-05
3.16372e-05
3.18018e-05
3.19856e-05
3.2191e-05
3.24192e-05
3.26669e-05
3.29399e-05
3.33529e-05
3.4113e-05
3.51854e-05
3.43452e-05
3.13348e-05
2.97241e-05
2.91839e-05
3.29678e-05
3.39742e-05
2.91157e-05
2.83443e-05
2.81183e-05
2.79858e-05
3.22319e-05
3.32441e-05
2.83176e-05
2.79448e-05
2.78398e-05
2.81128e-05
3.30386e-05
3.26865e-05
2.84078e-05
2.85277e-05
2.86956e-05
2.86551e-05
2.83638e-05
2.84401e-05
3.28739e-05
3.24817e-05
2.86903e-05
2.91183e-05
3.00714e-05
3.14596e-05
3.29971e-05
3.32521e-05
3.25465e-05
3.18193e-05
3.13041e-05
3.09408e-05
3.06477e-05
3.03865e-05
3.01396e-05
2.98992e-05
2.96608e-05
2.94217e-05
2.91793e-05
2.89319e-05
2.86778e-05
2.84153e-05
2.8143e-05
2.78595e-05
2.75635e-05
2.72538e-05
2.69291e-05
2.65884e-05
2.62306e-05
2.58548e-05
2.546e-05
2.50457e-05
2.46113e-05
2.41563e-05
2.61782e-05
1.92324e-05
2.43921e-05
2.48402e-05
2.52651e-05
2.56672e-05
2.60473e-05
2.6406e-05
2.67443e-05
2.7063e-05
2.73633e-05
2.76461e-05
2.79124e-05
2.81634e-05
2.84001e-05
2.86237e-05
2.88351e-05
2.90355e-05
2.92259e-05
2.94074e-05
2.9581e-05
2.97479e-05
2.99089e-05
3.00653e-05
3.02182e-05
3.03687e-05
3.0518e-05
3.06677e-05
3.08195e-05
3.09757e-05
3.11573e-05
3.14779e-05
3.16414e-05
3.18044e-05
3.19858e-05
3.21881e-05
3.2414e-05
3.26668e-05
3.29611e-05
3.34183e-05
3.41628e-05
3.50057e-05
3.41743e-05
3.15764e-05
2.99613e-05
2.93863e-05
3.27741e-05
3.37397e-05
2.92727e-05
2.83851e-05
2.81676e-05
2.80664e-05
3.19508e-05
3.29386e-05
2.83946e-05
2.79804e-05
2.78874e-05
2.81856e-05
3.27091e-05
3.24504e-05
2.84662e-05
2.85471e-05
2.87257e-05
2.86846e-05
2.84088e-05
2.8518e-05
3.25797e-05
3.23051e-05
2.87589e-05
2.91498e-05
3.01577e-05
3.15136e-05
3.28451e-05
3.30785e-05
3.24896e-05
3.18265e-05
3.13251e-05
3.09563e-05
3.06558e-05
3.03884e-05
3.01371e-05
2.98934e-05
2.96525e-05
2.94112e-05
2.91672e-05
2.89183e-05
2.86628e-05
2.8399e-05
2.81256e-05
2.7841e-05
2.7544e-05
2.72333e-05
2.69078e-05
2.65662e-05
2.62076e-05
2.5831e-05
2.54357e-05
2.50207e-05
2.45857e-05
2.41303e-05
2.61458e-05
1.9246e-05
2.44047e-05
2.48527e-05
2.52775e-05
2.56794e-05
2.60593e-05
2.64179e-05
2.67559e-05
2.70745e-05
2.73745e-05
2.76571e-05
2.79232e-05
2.8174e-05
2.84105e-05
2.86338e-05
2.8845e-05
2.90452e-05
2.92354e-05
2.94167e-05
2.95902e-05
2.97569e-05
2.99178e-05
3.0074e-05
3.02267e-05
3.0377e-05
3.05262e-05
3.06757e-05
3.08273e-05
3.09831e-05
3.11641e-05
3.14824e-05
3.16449e-05
3.18061e-05
3.19853e-05
3.21853e-05
3.24101e-05
3.26681e-05
3.29795e-05
3.34584e-05
3.4171e-05
3.48399e-05
3.40295e-05
3.17861e-05
3.02146e-05
2.96201e-05
3.26461e-05
3.35159e-05
2.94095e-05
2.84183e-05
2.82003e-05
2.81345e-05
3.17084e-05
3.26605e-05
2.84636e-05
2.80118e-05
2.79288e-05
2.82523e-05
3.24237e-05
3.22386e-05
2.85176e-05
2.85578e-05
2.87445e-05
2.87024e-05
2.84421e-05
2.85701e-05
3.22994e-05
3.21699e-05
2.88314e-05
2.91731e-05
3.02204e-05
3.15298e-05
3.2704e-05
3.29229e-05
3.24251e-05
3.18199e-05
3.13353e-05
3.09652e-05
3.06598e-05
3.03878e-05
3.01327e-05
2.98861e-05
2.96429e-05
2.93998e-05
2.9154e-05
2.89036e-05
2.86468e-05
2.83818e-05
2.81072e-05
2.78215e-05
2.75235e-05
2.72118e-05
2.68853e-05
2.65428e-05
2.61834e-05
2.58061e-05
2.541e-05
2.49944e-05
2.45588e-05
2.41029e-05
2.61118e-05
1.92602e-05
2.44179e-05
2.48658e-05
2.52904e-05
2.56922e-05
2.60719e-05
2.64303e-05
2.67682e-05
2.70865e-05
2.73863e-05
2.76686e-05
2.79345e-05
2.8185e-05
2.84213e-05
2.86444e-05
2.88554e-05
2.90553e-05
2.92453e-05
2.94264e-05
2.95996e-05
2.97661e-05
2.99268e-05
3.00828e-05
3.02353e-05
3.03853e-05
3.05342e-05
3.06834e-05
3.08347e-05
3.099e-05
3.11704e-05
3.14864e-05
3.16476e-05
3.18073e-05
3.19845e-05
3.21829e-05
3.24074e-05
3.26701e-05
3.29946e-05
3.34805e-05
3.41536e-05
3.46895e-05
3.3898e-05
3.19566e-05
3.0475e-05
2.98942e-05
3.25897e-05
3.33116e-05
2.95322e-05
2.84501e-05
2.82216e-05
2.81951e-05
3.15037e-05
3.24059e-05
2.8524e-05
2.80406e-05
2.79661e-05
2.83174e-05
3.21811e-05
3.20459e-05
2.85643e-05
2.85639e-05
2.87555e-05
2.87125e-05
2.84658e-05
2.86041e-05
3.20356e-05
3.20609e-05
2.89082e-05
2.9184e-05
3.02598e-05
3.15161e-05
3.25691e-05
3.27786e-05
3.23541e-05
3.18009e-05
3.13352e-05
3.0967e-05
3.06589e-05
3.03837e-05
3.01258e-05
2.98768e-05
2.96316e-05
2.93867e-05
2.91394e-05
2.88877e-05
2.86295e-05
2.83633e-05
2.80875e-05
2.78007e-05
2.75017e-05
2.7189e-05
2.68615e-05
2.65181e-05
2.61578e-05
2.57796e-05
2.53828e-05
2.49666e-05
2.45304e-05
2.40739e-05
2.60758e-05
1.92752e-05
2.44317e-05
2.48795e-05
2.5304e-05
2.57057e-05
2.60852e-05
2.64433e-05
2.67809e-05
2.7099e-05
2.73986e-05
2.76806e-05
2.79463e-05
2.81965e-05
2.84325e-05
2.86553e-05
2.8866e-05
2.90657e-05
2.92555e-05
2.94363e-05
2.96093e-05
2.97755e-05
2.99359e-05
3.00917e-05
3.02438e-05
3.03936e-05
3.05422e-05
3.06911e-05
3.08419e-05
3.09967e-05
3.11762e-05
3.14899e-05
3.16499e-05
3.18082e-05
3.19837e-05
3.21809e-05
3.24055e-05
3.26718e-05
3.30051e-05
3.34884e-05
3.41188e-05
3.45335e-05
3.37517e-05
3.20501e-05
3.07108e-05
3.02156e-05
3.26026e-05
3.31181e-05
2.96332e-05
2.84839e-05
2.8238e-05
2.82535e-05
3.1336e-05
3.21734e-05
2.85769e-05
2.80672e-05
2.80009e-05
2.83841e-05
3.19795e-05
3.18721e-05
2.86085e-05
2.8569e-05
2.87626e-05
2.87226e-05
2.84872e-05
2.86291e-05
3.17943e-05
3.19645e-05
2.89934e-05
2.91869e-05
3.02788e-05
3.148e-05
3.24385e-05
3.26427e-05
3.22781e-05
3.17718e-05
3.13256e-05
3.09617e-05
3.06529e-05
3.03757e-05
3.01157e-05
2.98649e-05
2.96181e-05
2.93717e-05
2.9123e-05
2.88699e-05
2.86106e-05
2.83432e-05
2.80663e-05
2.77784e-05
2.74783e-05
2.71646e-05
2.68361e-05
2.64918e-05
2.61306e-05
2.57516e-05
2.5354e-05
2.49371e-05
2.45003e-05
2.40432e-05
2.60377e-05
1.92909e-05
2.44462e-05
2.48939e-05
2.53182e-05
2.57197e-05
2.6099e-05
2.64569e-05
2.67942e-05
2.71121e-05
2.74113e-05
2.76931e-05
2.79584e-05
2.82084e-05
2.84441e-05
2.86666e-05
2.88771e-05
2.90765e-05
2.92659e-05
2.94464e-05
2.96191e-05
2.9785e-05
2.99452e-05
3.01006e-05
3.02525e-05
3.04019e-05
3.05501e-05
3.06985e-05
3.08488e-05
3.1003e-05
3.11818e-05
3.14931e-05
3.16519e-05
3.18087e-05
3.19828e-05
3.21788e-05
3.24035e-05
3.2672e-05
3.30098e-05
3.34839e-05
3.40703e-05
3.43524e-05
3.35721e-05
3.20693e-05
3.09176e-05
3.05826e-05
3.26778e-05
3.29475e-05
2.97136e-05
2.85228e-05
2.82557e-05
2.83147e-05
3.12044e-05
3.19634e-05
2.86251e-05
2.80945e-05
2.80351e-05
2.84541e-05
3.18129e-05
3.17164e-05
2.86522e-05
2.85758e-05
2.87687e-05
2.87344e-05
2.85104e-05
2.86538e-05
3.15843e-05
3.18777e-05
2.90875e-05
2.91884e-05
3.02822e-05
3.14283e-05
3.23118e-05
3.25133e-05
3.21988e-05
3.17345e-05
3.13079e-05
3.09499e-05
3.06418e-05
3.03636e-05
3.01024e-05
2.98502e-05
2.9602e-05
2.93544e-05
2.91045e-05
2.88503e-05
2.85898e-05
2.83213e-05
2.80433e-05
2.77544e-05
2.74532e-05
2.71384e-05
2.6809e-05
2.64637e-05
2.61016e-05
2.57218e-05
2.53234e-05
2.49057e-05
2.44683e-05
2.40106e-05
2.59972e-05
1.93073e-05
2.44613e-05
2.49089e-05
2.5333e-05
2.57343e-05
2.61133e-05
2.6471e-05
2.68081e-05
2.71256e-05
2.74246e-05
2.77061e-05
2.79711e-05
2.82207e-05
2.84561e-05
2.86783e-05
2.88884e-05
2.90875e-05
2.92766e-05
2.94568e-05
2.96292e-05
2.97947e-05
2.99546e-05
3.01097e-05
3.02612e-05
3.04102e-05
3.0558e-05
3.07059e-05
3.08557e-05
3.10091e-05
3.1187e-05
3.14959e-05
3.16535e-05
3.1809e-05
3.19816e-05
3.21764e-05
3.24005e-05
3.26693e-05
3.30075e-05
3.34674e-05
3.40087e-05
3.41726e-05
3.33916e-05
3.20733e-05
3.11366e-05
3.09847e-05
3.28005e-05
3.28059e-05
2.97786e-05
2.85694e-05
2.82795e-05
2.83825e-05
3.11067e-05
3.17762e-05
2.86684e-05
2.81231e-05
2.80697e-05
2.85278e-05
3.16758e-05
3.15778e-05
2.86968e-05
2.85866e-05
2.87764e-05
2.87499e-05
2.85381e-05
2.86848e-05
3.14055e-05
3.1796e-05
2.91872e-05
2.91936e-05
3.02748e-05
3.13669e-05
3.21898e-05
3.23901e-05
3.21179e-05
3.16909e-05
3.12835e-05
3.09324e-05
3.0626e-05
3.03477e-05
3.00857e-05
2.98325e-05
2.95834e-05
2.93347e-05
2.90838e-05
2.88285e-05
2.85669e-05
2.82974e-05
2.80184e-05
2.77284e-05
2.74262e-05
2.71105e-05
2.67801e-05
2.64338e-05
2.60708e-05
2.56901e-05
2.52909e-05
2.48725e-05
2.44344e-05
2.39761e-05
2.59544e-05
1.93243e-05
2.44771e-05
2.49245e-05
2.53484e-05
2.57495e-05
2.61282e-05
2.64856e-05
2.68224e-05
2.71396e-05
2.74383e-05
2.77194e-05
2.79841e-05
2.82334e-05
2.84684e-05
2.86903e-05
2.89001e-05
2.90988e-05
2.92875e-05
2.94674e-05
2.96394e-05
2.98046e-05
2.99641e-05
3.01188e-05
3.02699e-05
3.04185e-05
3.05658e-05
3.07132e-05
3.08623e-05
3.10151e-05
3.1192e-05
3.14984e-05
3.16548e-05
3.18088e-05
3.19799e-05
3.21731e-05
3.23959e-05
3.2663e-05
3.29976e-05
3.34389e-05
3.3934e-05
3.39953e-05
3.32217e-05
3.20852e-05
3.13727e-05
3.14044e-05
3.29509e-05
3.26942e-05
2.98341e-05
2.86243e-05
2.83123e-05
2.84588e-05
3.10388e-05
3.16122e-05
2.87077e-05
2.81524e-05
2.81048e-05
2.86043e-05
3.15633e-05
3.14561e-05
2.87428e-05
2.86014e-05
2.8787e-05
2.87695e-05
2.85708e-05
2.87266e-05
3.12609e-05
3.17156e-05
2.92874e-05
2.9206e-05
3.02612e-05
3.13003e-05
3.20731e-05
3.22731e-05
3.20365e-05
3.1643e-05
3.12537e-05
3.09101e-05
3.06061e-05
3.03282e-05
3.00659e-05
2.98121e-05
2.95622e-05
2.93126e-05
2.90608e-05
2.88046e-05
2.85421e-05
2.82716e-05
2.79916e-05
2.77006e-05
2.73974e-05
2.70807e-05
2.67493e-05
2.64021e-05
2.60382e-05
2.56567e-05
2.52566e-05
2.48374e-05
2.43986e-05
2.39397e-05
2.59093e-05
1.93421e-05
2.44935e-05
2.49407e-05
2.53644e-05
2.57652e-05
2.61437e-05
2.65008e-05
2.68372e-05
2.71541e-05
2.74524e-05
2.77332e-05
2.79975e-05
2.82465e-05
2.84811e-05
2.87026e-05
2.8912e-05
2.91103e-05
2.92987e-05
2.94782e-05
2.96499e-05
2.98147e-05
2.99737e-05
3.0128e-05
3.02786e-05
3.04268e-05
3.05735e-05
3.07204e-05
3.08688e-05
3.10208e-05
3.11968e-05
3.15006e-05
3.16557e-05
3.18082e-05
3.19775e-05
3.21687e-05
3.23891e-05
3.26526e-05
3.29798e-05
3.33988e-05
3.38126e-05
3.3791e-05
3.30759e-05
3.21228e-05
3.16263e-05
3.18207e-05
3.31078e-05
3.26085e-05
2.98857e-05
2.86864e-05
2.83542e-05
2.85434e-05
3.09954e-05
3.14706e-05
2.87451e-05
2.81819e-05
2.81404e-05
2.86817e-05
3.14694e-05
3.13506e-05
2.87905e-05
2.86195e-05
2.88004e-05
2.87926e-05
2.8608e-05
2.87813e-05
3.11535e-05
3.1639e-05
2.93851e-05
2.92268e-05
3.02447e-05
3.12314e-05
3.1962e-05
3.21621e-05
3.1956e-05
3.15919e-05
3.12197e-05
3.08837e-05
3.05826e-05
3.03056e-05
3.00432e-05
2.97891e-05
2.95386e-05
2.92883e-05
2.90358e-05
2.87787e-05
2.85153e-05
2.82439e-05
2.79629e-05
2.7671e-05
2.73669e-05
2.70492e-05
2.67168e-05
2.63687e-05
2.60039e-05
2.56214e-05
2.52206e-05
2.48006e-05
2.43611e-05
2.39015e-05
2.5862e-05
1.93607e-05
2.45105e-05
2.49576e-05
2.5381e-05
2.57815e-05
2.61596e-05
2.65164e-05
2.68525e-05
2.7169e-05
2.7467e-05
2.77474e-05
2.80113e-05
2.82599e-05
2.84941e-05
2.87152e-05
2.89242e-05
2.91221e-05
2.93101e-05
2.94892e-05
2.96604e-05
2.98248e-05
2.99834e-05
3.01373e-05
3.02874e-05
3.0435e-05
3.05812e-05
3.07275e-05
3.08752e-05
3.10264e-05
3.12014e-05
3.15025e-05
3.16563e-05
3.1807e-05
3.19743e-05
3.21629e-05
3.23799e-05
3.26378e-05
3.29546e-05
3.33482e-05
3.36845e-05
3.36029e-05
3.29643e-05
3.21949e-05
3.18927e-05
3.22128e-05
3.32526e-05
3.25421e-05
2.99369e-05
2.87512e-05
2.84038e-05
2.86347e-05
3.09702e-05
3.13499e-05
2.87821e-05
2.82114e-05
2.81759e-05
2.87577e-05
3.13886e-05
3.126e-05
2.88394e-05
2.86397e-05
2.88153e-05
2.88175e-05
2.86484e-05
2.8849e-05
3.10816e-05
3.15698e-05
2.94789e-05
2.92563e-05
3.02276e-05
3.1162e-05
3.18564e-05
3.2057e-05
3.18768e-05
3.15388e-05
3.11825e-05
3.08541e-05
3.05561e-05
3.02801e-05
3.0018e-05
2.97637e-05
2.95127e-05
2.92619e-05
2.90087e-05
2.87509e-05
2.84867e-05
2.82144e-05
2.79326e-05
2.76397e-05
2.73346e-05
2.7016e-05
2.66827e-05
2.63337e-05
2.59679e-05
2.55846e-05
2.51829e-05
2.47622e-05
2.4322e-05
2.38618e-05
2.58128e-05
1.93806e-05
2.45283e-05
2.49748e-05
2.53979e-05
2.57981e-05
2.6176e-05
2.65324e-05
2.68681e-05
2.71843e-05
2.74819e-05
2.77619e-05
2.80254e-05
2.82736e-05
2.85074e-05
2.87281e-05
2.89366e-05
2.91342e-05
2.93217e-05
2.95004e-05
2.96711e-05
2.98351e-05
2.99932e-05
3.01466e-05
3.02962e-05
3.04432e-05
3.05889e-05
3.07344e-05
3.08815e-05
3.10317e-05
3.12056e-05
3.15041e-05
3.16564e-05
3.18053e-05
3.19702e-05
3.21556e-05
3.23683e-05
3.2619e-05
3.29228e-05
3.3289e-05
3.35602e-05
3.34427e-05
3.28913e-05
3.23009e-05
3.21633e-05
3.25639e-05
3.3372e-05
3.24872e-05
2.99905e-05
2.88185e-05
2.84584e-05
2.87293e-05
3.0957e-05
3.12481e-05
2.88193e-05
2.824e-05
2.82108e-05
2.88303e-05
3.13163e-05
3.11826e-05
2.88888e-05
2.86595e-05
2.88298e-05
2.8842e-05
2.86902e-05
2.89283e-05
3.10415e-05
3.15122e-05
2.95702e-05
2.92938e-05
3.02107e-05
3.10923e-05
3.17554e-05
3.1957e-05
3.17992e-05
3.14842e-05
3.11426e-05
3.08215e-05
3.05268e-05
3.02522e-05
2.99905e-05
2.97361e-05
2.94848e-05
2.92335e-05
2.89797e-05
2.87213e-05
2.84563e-05
2.81833e-05
2.79006e-05
2.76069e-05
2.73009e-05
2.69813e-05
2.66471e-05
2.62972e-05
2.59306e-05
2.55464e-05
2.51439e-05
2.47224e-05
2.42814e-05
2.38206e-05
2.57618e-05
1.94011e-05
2.45463e-05
2.49922e-05
2.5415e-05
2.58149e-05
2.61925e-05
2.65486e-05
2.68841e-05
2.71999e-05
2.74971e-05
2.77767e-05
2.80398e-05
2.82875e-05
2.8521e-05
2.87412e-05
2.89493e-05
2.91464e-05
2.93335e-05
2.95117e-05
2.9682e-05
2.98454e-05
3.00031e-05
3.01559e-05
3.0305e-05
3.04515e-05
3.05965e-05
3.07413e-05
3.08876e-05
3.10369e-05
3.12097e-05
3.15054e-05
3.16561e-05
3.1803e-05
3.19652e-05
3.21471e-05
3.23545e-05
3.25968e-05
3.28858e-05
3.32236e-05
3.34436e-05
3.33126e-05
3.28557e-05
3.24344e-05
3.24282e-05
3.28624e-05
3.34547e-05
3.24351e-05
3.00405e-05
2.88822e-05
2.85157e-05
2.88257e-05
3.09503e-05
3.11634e-05
2.88574e-05
2.82674e-05
2.82447e-05
2.88984e-05
3.12495e-05
3.11164e-05
2.89396e-05
2.86778e-05
2.8842e-05
2.88637e-05
2.87317e-05
2.90165e-05
3.10274e-05
3.14698e-05
2.96618e-05
2.9339e-05
3.0194e-05
3.10213e-05
3.16574e-05
3.1861e-05
3.17229e-05
3.14283e-05
3.11001e-05
3.07862e-05
3.04949e-05
3.02218e-05
2.99607e-05
2.97064e-05
2.9455e-05
2.92034e-05
2.89491e-05
2.86901e-05
2.84245e-05
2.81507e-05
2.78672e-05
2.75727e-05
2.72658e-05
2.69454e-05
2.66103e-05
2.62595e-05
2.5892e-05
2.55069e-05
2.51036e-05
2.46814e-05
2.42397e-05
2.37782e-05
2.57094e-05
1.94219e-05
2.45653e-05
2.50103e-05
2.54326e-05
2.58322e-05
2.62095e-05
2.65653e-05
2.69004e-05
2.72158e-05
2.75126e-05
2.77918e-05
2.80545e-05
2.83018e-05
2.85348e-05
2.87545e-05
2.89622e-05
2.91588e-05
2.93454e-05
2.95231e-05
2.96929e-05
2.98559e-05
3.0013e-05
3.01653e-05
3.03138e-05
3.04596e-05
3.0604e-05
3.07481e-05
3.08935e-05
3.10419e-05
3.12136e-05
3.15064e-05
3.16554e-05
3.18002e-05
3.19596e-05
3.21374e-05
3.2339e-05
3.2572e-05
3.28451e-05
3.31549e-05
3.33371e-05
3.32121e-05
3.28529e-05
3.2586e-05
3.26789e-05
3.31083e-05
3.35016e-05
3.23802e-05
3.00864e-05
2.89396e-05
2.85716e-05
2.89209e-05
3.09448e-05
3.10909e-05
2.88963e-05
2.82932e-05
2.82774e-05
2.89614e-05
3.11864e-05
3.10593e-05
2.89908e-05
2.86936e-05
2.885e-05
2.88803e-05
2.8771e-05
2.911e-05
3.10324e-05
3.14455e-05
2.97582e-05
2.9392e-05
3.01772e-05
3.09475e-05
3.15598e-05
3.1767e-05
3.16471e-05
3.13709e-05
3.10552e-05
3.07483e-05
3.04605e-05
3.01891e-05
2.99288e-05
2.96749e-05
2.94234e-05
2.91716e-05
2.8917e-05
2.86574e-05
2.83912e-05
2.81168e-05
2.78326e-05
2.75372e-05
2.72295e-05
2.69083e-05
2.65723e-05
2.62206e-05
2.58523e-05
2.54664e-05
2.50623e-05
2.46393e-05
2.41969e-05
2.37348e-05
2.56557e-05
1.94426e-05
2.45847e-05
2.50291e-05
2.54509e-05
2.58501e-05
2.6227e-05
2.65824e-05
2.69171e-05
2.72321e-05
2.75285e-05
2.78072e-05
2.80694e-05
2.83163e-05
2.85488e-05
2.87681e-05
2.89752e-05
2.91713e-05
2.93575e-05
2.95347e-05
2.9704e-05
2.98664e-05
3.00229e-05
3.01747e-05
3.03226e-05
3.04678e-05
3.06114e-05
3.07548e-05
3.08994e-05
3.10468e-05
3.12172e-05
3.15072e-05
3.16545e-05
3.1797e-05
3.19533e-05
3.21269e-05
3.23222e-05
3.25453e-05
3.28023e-05
3.30853e-05
3.32426e-05
3.31388e-05
3.28765e-05
3.2747e-05
3.29096e-05
3.33033e-05
3.35189e-05
3.23227e-05
3.01266e-05
2.89896e-05
2.86254e-05
2.90136e-05
3.09403e-05
3.10281e-05
2.89357e-05
2.83173e-05
2.8309e-05
2.90201e-05
3.1127e-05
3.10093e-05
2.90417e-05
2.87062e-05
2.88525e-05
2.88902e-05
2.88067e-05
2.92044e-05
3.10493e-05
3.14403e-05
2.98641e-05
2.94536e-05
3.01603e-05
3.08692e-05
3.14603e-05
3.16729e-05
3.15705e-05
3.13114e-05
3.10076e-05
3.07076e-05
3.04236e-05
3.01542e-05
2.98949e-05
2.96414e-05
2.93902e-05
2.91383e-05
2.88834e-05
2.86235e-05
2.83568e-05
2.80817e-05
2.77968e-05
2.75007e-05
2.71923e-05
2.68702e-05
2.65334e-05
2.61808e-05
2.58117e-05
2.5425e-05
2.50201e-05
2.45964e-05
2.41533e-05
2.36904e-05
2.5601e-05
1.94635e-05
2.46044e-05
2.50483e-05
2.54696e-05
2.58684e-05
2.62449e-05
2.65999e-05
2.69342e-05
2.72488e-05
2.75446e-05
2.78229e-05
2.80847e-05
2.8331e-05
2.8563e-05
2.87818e-05
2.89884e-05
2.91841e-05
2.93697e-05
2.95463e-05
2.97151e-05
2.98769e-05
3.00329e-05
3.01841e-05
3.03314e-05
3.04759e-05
3.06189e-05
3.07615e-05
3.09051e-05
3.10515e-05
3.12207e-05
3.15078e-05
3.16533e-05
3.17934e-05
3.19466e-05
3.21158e-05
3.23046e-05
3.25179e-05
3.2759e-05
3.30173e-05
3.31609e-05
3.30896e-05
3.29203e-05
3.29101e-05
3.31173e-05
3.34533e-05
3.35111e-05
3.22627e-05
3.01606e-05
2.90326e-05
2.86773e-05
2.91041e-05
3.09372e-05
3.09739e-05
2.89752e-05
2.83397e-05
2.83395e-05
2.90758e-05
3.1072e-05
3.09651e-05
2.90919e-05
2.87157e-05
2.88488e-05
2.88925e-05
2.88372e-05
2.92951e-05