/*--------------------------------*- C++ -*----------------------------------*\
  =========                 |
  \\      /  F ield         | OpenFOAM: The Open Source CFD Toolbox
   \\    /   O peration     | Website:  https://openfoam.org
    \\  /    A nd           | Version:  9
     \\/     M anipulation  |
\*---------------------------------------------------------------------------*/
FoamFile
{
    format      ascii;
    class       volVectorField;
    location    "0.06";
    object      U;
}
// * * * * * * * * * * * * * * * * * * * * * * * * * * * * * * * * * * * * * //

dimensions      [0 1 -1 0 0 0 0];

internalField   nonuniform List<vector> 
20000
(
(-1.81228e-05 0 -0.00159173)
(-1.26337e-05 0 -0.00416923)
(-1.20949e-05 0 -0.00682087)
(-1.0208e-05 0 -0.00956925)
(-6.57966e-06 0 -0.0124284)
(-1.5376e-06 0 -0.0154217)
(4.76598e-06 0 -0.0185745)
(1.22536e-05 0 -0.0219132)
(2.08933e-05 0 -0.0254643)
(3.07048e-05 0 -0.0292527)
(4.17553e-05 0 -0.0333019)
(5.41602e-05 0 -0.0376352)
(6.80764e-05 0 -0.0422769)
(8.36991e-05 0 -0.0472538)
(0.000101264 0 -0.0525954)
(0.00012105 0 -0.058335)
(0.000143385 0 -0.0645097)
(0.000168659 0 -0.0711608)
(0.000197334 0 -0.0783344)
(0.000229963 0 -0.086082)
(0.000267214 0 -0.0944612)
(0.000309914 0 -0.103537)
(0.000359127 0 -0.113382)
(0.000416284 0 -0.124082)
(0.000483421 0 -0.135739)
(0.000563574 0 -0.148477)
(0.000661488 0 -0.162468)
(0.000784644 0 -0.17796)
(0.000944231 0 -0.195333)
(0.00115452 0 -0.21516)
(0.00144167 0 -0.24013)
(0.00183046 0 -0.270466)
(0.00234565 0 -0.304405)
(0.00301777 0 -0.343212)
(0.00375943 0 -0.388751)
(0.00390344 0 -0.441493)
(0.00169087 0 -0.485896)
(-0.00165765 0 -0.451607)
(0.0169585 0 -0.281137)
(0.0537301 0 0.0160866)
(0.282057 0 -1.67911)
(-0.167676 0 -1.76695)
(-0.0216483 0 0.524246)
(0.0171091 0 0.640985)
(0.0436461 0 0.846418)
(0.185479 0 -1.52762)
(-0.180767 0 -1.62095)
(-0.0377962 0 0.891453)
(-0.0139102 0 0.785031)
(0.014499 0 0.819437)
(0.029173 0 0.953214)
(0.124152 0 -1.41465)
(-0.132904 0 -1.47765)
(-0.0273297 0 0.989565)
(-0.0127005 0 0.880303)
(0.0140749 0 0.883424)
(0.0267777 0 1.00153)
(0.15514 0 -1.43039)
(-0.124786 0 -1.49738)
(-0.0362693 0 0.948153)
(-0.0234073 0 0.750871)
(-0.00623934 0 0.642371)
(0.00401427 0 0.628266)
(0.0219096 0 0.711603)
(0.034864 0 0.901789)
(0.145169 0 -1.43831)
(-0.138699 0 -1.47911)
(-0.0394545 0 0.855918)
(-0.0237728 0 0.627061)
(0.00150655 0 0.500294)
(0.0224082 0 0.372942)
(0.266418 0 -1.55835)
(-0.181774 0 -1.82028)
(-0.090955 0 0.0622718)
(-0.0403162 0 -0.0124745)
(-0.0110676 0 -0.119057)
(-0.00356848 0 -0.180596)
(-0.00147579 0 -0.202401)
(-0.0010026 0 -0.201832)
(-0.000893733 0 -0.191042)
(-0.00082611 0 -0.176362)
(-0.000744242 0 -0.160696)
(-0.000650655 0 -0.145293)
(-0.000554493 0 -0.13066)
(-0.000462042 0 -0.11698)
(-0.000376619 0 -0.104289)
(-0.000299554 0 -0.0925628)
(-0.00023097 0 -0.0817488)
(-0.000170353 0 -0.0717872)
(-0.000116959 0 -0.0626176)
(-7.00466e-05 0 -0.0541831)
(-2.89672e-05 0 -0.0464327)
(6.83528e-06 0 -0.0393234)
(3.78957e-05 0 -0.0328217)
(6.47051e-05 0 -0.0269043)
(8.77151e-05 0 -0.0215564)
(0.000107705 0 -0.0167695)
(0.000124912 0 -0.0125436)
(0.000141568 0 -0.00890783)
(0.000160061 0 -0.0055389)
(-0.000144799 0 -0.00161338)
(-0.000134863 0 -0.00416993)
(-0.000132723 0 -0.00681939)
(-0.000127945 0 -0.00957889)
(-0.000119411 0 -0.0124487)
(-0.000107242 0 -0.0154522)
(-9.16657e-05 0 -0.0186147)
(-7.27166e-05 0 -0.021963)
(-5.04196e-05 0 -0.0255237)
(-2.47069e-05 0 -0.0293219)
(4.59505e-06 0 -0.0333814)
(3.77727e-05 0 -0.0377258)
(7.5237e-05 0 -0.0423796)
(0.000117503 0 -0.0473694)
(0.000165189 0 -0.0527251)
(0.000219018 0 -0.0584801)
(0.000279848 0 -0.0646715)
(0.000348694 0 -0.071341)
(0.000426767 0 -0.0785349)
(0.000515531 0 -0.0863048)
(0.000616779 0 -0.0947088)
(0.000732755 0 -0.103812)
(0.000866349 0 -0.113689)
(0.00102143 0 -0.124425)
(0.00120337 0 -0.136123)
(0.00141998 0 -0.148911)
(0.00168285 0 -0.162963)
(0.00200904 0 -0.178531)
(0.00242244 0 -0.196)
(0.00295251 0 -0.215945)
(0.00366516 0 -0.241056)
(0.00460459 0 -0.27161)
(0.00577384 0 -0.305833)
(0.00715829 0 -0.344965)
(0.00850036 0 -0.390659)
(0.00879904 0 -0.442744)
(0.00650632 0 -0.485981)
(0.00416004 0 -0.458856)
(0.0433886 0 -0.313174)
(0.136532 0 -0.104435)
(0.355613 0 -1.50747)
(-0.149902 0 -1.59201)
(-0.0544879 0 0.445416)
(0.0469001 0 0.608195)
(0.101009 0 0.77633)
(0.265028 0 -1.37087)
(-0.244135 0 -1.46683)
(-0.0782326 0 0.818845)
(-0.0309712 0 0.7604)
(0.0378088 0 0.79775)
(0.0717634 0 0.906459)
(0.208656 0 -1.29547)
(-0.225722 0 -1.36408)
(-0.063937 0 0.936272)
(-0.0329536 0 0.858269)
(0.0354458 0 0.86095)
(0.0629603 0 0.946449)
(0.262516 0 -1.32829)
(-0.201609 0 -1.34549)
(-0.0904538 0 0.900101)
(-0.061277 0 0.731318)
(-0.0166136 0 0.631384)
(0.0098741 0 0.616938)
(0.0560652 0 0.691757)
(0.0810766 0 0.849562)
(0.246511 0 -1.3149)
(-0.230047 0 -1.33709)
(-0.0940038 0 0.802412)
(-0.0611887 0 0.602696)
(-0.000990935 0 0.477014)
(0.0838013 0 0.286109)
(0.22245 0 -1.45082)
(-0.262923 0 -1.46476)
(-0.166469 0 -0.079805)
(-0.0816118 0 -0.0657949)
(-0.0323107 0 -0.139695)
(-0.0145754 0 -0.188599)
(-0.00689659 0 -0.205762)
(-0.0038312 0 -0.203659)
(-0.00250989 0 -0.192373)
(-0.00182746 0 -0.177502)
(-0.00139458 0 -0.161725)
(-0.00106964 0 -0.146231)
(-0.000800749 0 -0.131513)
(-0.000568339 0 -0.117752)
(-0.000364097 0 -0.104986)
(-0.000183603 0 -0.0931891)
(-2.39329e-05 0 -0.0823106)
(0.000117131 0 -0.0722899)
(0.000241403 0 -0.063066)
(0.000350464 0 -0.0545815)
(0.000445749 0 -0.0467851)
(0.000528607 0 -0.0396335)
(0.000600385 0 -0.0330929)
(0.000662362 0 -0.0271397)
(0.00071567 0 -0.0217592)
(0.000762083 0 -0.0169444)
(0.000801663 0 -0.012698)
(0.000842882 0 -0.00904729)
(0.000894944 0 -0.00566074)
(-0.000377391 0 -0.00163789)
(-0.000370755 0 -0.00418764)
(-0.000362958 0 -0.00684069)
(-0.000352679 0 -0.00960837)
(-0.000338307 0 -0.0124866)
(-0.000319402 0 -0.0154974)
(-0.000295885 0 -0.0186664)
(-0.000267526 0 -0.0220203)
(-0.000234166 0 -0.0255859)
(-0.000195574 0 -0.0293886)
(-0.00015141 0 -0.0334525)
(-0.000101198 0 -0.0378013)
(-4.43088e-05 0 -0.0424597)
(2.0033e-05 0 -0.0474544)
(9.27522e-05 0 -0.0528155)
(0.000174908 0 -0.0585762)
(0.000267752 0 -0.064774)
(0.000372762 0 -0.0714505)
(0.000491702 0 -0.0786523)
(0.000626722 0 -0.0864312)
(0.000780468 0 -0.0948455)
(0.000956246 0 -0.103961)
(0.00115828 0 -0.113852)
(0.00139212 0 -0.124606)
(0.0016654 0 -0.136327)
(0.00198888 0 -0.149146)
(0.002378 0 -0.163239)
(0.00285455 0 -0.178864)
(0.00344732 0 -0.196408)
(0.0041906 0 -0.216439)
(0.00516908 0 -0.241632)
(0.00641779 0 -0.272311)
(0.00788534 0 -0.306663)
(0.00949264 0 -0.345801)
(0.0108988 0 -0.391002)
(0.01107 0 -0.441433)
(0.00941566 0 -0.48378)
(0.00752764 0 -0.469769)
(0.0460134 0 -0.36156)
(0.161485 0 -0.258878)
(0.337461 0 -1.39406)
(-0.115493 0 -1.43756)
(-0.0644322 0 0.345556)
(0.0647537 0 0.547514)
(0.133119 0 0.676059)
(0.26578 0 -1.23317)
(-0.227528 0 -1.33496)
(-0.0958746 0 0.725869)
(-0.0319954 0 0.712567)
(0.052468 0 0.753179)
(0.105166 0 0.833398)
(0.225721 0 -1.16747)
(-0.236279 0 -1.25645)
(-0.0896774 0 0.858494)
(-0.0433259 0 0.814363)
(0.0433089 0 0.817856)
(0.086693 0 0.860299)
(0.268341 0 -1.23832)
(-0.220087 0 -1.18381)
(-0.132295 0 0.834497)
(-0.0836967 0 0.693608)
(-0.0238846 0 0.605698)
(0.0109274 0 0.591092)
(0.0721512 0 0.654773)
(0.10869 0 0.773461)
(0.261581 0 -1.19329)
(-0.245924 0 -1.1915)
(-0.131426 0 0.729883)
(-0.0840837 0 0.556033)
(-0.0194604 0 0.428084)
(0.092989 0 0.151623)
(0.166161 0 -1.29313)
(-0.255414 0 -1.25611)
(-0.189922 0 -0.222387)
(-0.0858039 0 -0.13959)
(-0.0398196 0 -0.176025)
(-0.0199726 0 -0.204568)
(-0.00996953 0 -0.212422)
(-0.00541414 0 -0.206475)
(-0.00317207 0 -0.193657)
(-0.00194644 0 -0.178181)
(-0.00119435 0 -0.162162)
(-0.00067367 0 -0.146566)
(-0.000276111 0 -0.131803)
(4.83782e-05 0 -0.118017)
(0.000324493 0 -0.105234)
(0.000564949 0 -0.0934236)
(0.000776489 0 -0.0825319)
(0.000962862 0 -0.0724982)
(0.00112681 0 -0.0632615)
(0.00127063 0 -0.0547641)
(0.00139622 0 -0.0469548)
(0.00150537 0 -0.0397904)
(0.00159973 0 -0.0332371)
(0.00168084 0 -0.0272719)
(0.00175008 0 -0.0218803)
(0.00180932 0 -0.0170583)
(0.00185888 0 -0.0128164)
(0.00190816 0 -0.00918214)
(0.00197543 0 -0.00578459)
(-0.000730476 0 -0.00165191)
(-0.000726484 0 -0.00421126)
(-0.000713511 0 -0.00687111)
(-0.000698348 0 -0.00964781)
(-0.000678881 0 -0.0125353)
(-0.000654166 0 -0.0155551)
(-0.000623899 0 -0.0187323)
(-0.000587681 0 -0.0220939)
(-0.000545204 0 -0.0256665)
(-0.000496099 0 -0.0294757)
(-0.000439878 0 -0.0335458)
(-0.000375902 0 -0.0379008)
(-0.000303376 0 -0.0425654)
(-0.000221335 0 -0.0475666)
(-0.000128649 0 -0.0529344)
(-2.40196e-05 0 -0.0587024)
(9.40676e-05 0 -0.0649081)
(0.000227388 0 -0.0715933)
(0.000378057 0 -0.0788046)
(0.000548642 0 -0.0865943)
(0.000742274 0 -0.095021)
(0.000962827 0 -0.104151)
(0.00121518 0 -0.114059)
(0.00150568 0 -0.124835)
(0.00184287 0 -0.136583)
(0.00223856 0 -0.149438)
(0.00270919 0 -0.163581)
(0.00327706 0 -0.17927)
(0.00396977 0 -0.196896)
(0.00481804 0 -0.217015)
(0.00590226 0 -0.242281)
(0.0072259 0 -0.273052)
(0.00867422 0 -0.307452)
(0.0100931 0 -0.346447)
(0.0110737 0 -0.391)
(0.010427 0 -0.439935)
(0.00811016 0 -0.482163)
(0.00525028 0 -0.481711)
(0.0340952 0 -0.406736)
(0.152503 0 -0.384718)
(0.298306 0 -1.30317)
(-0.0969191 0 -1.29447)
(-0.0621719 0 0.261969)
(0.0704592 0 0.483233)
(0.143428 0 0.583796)
(0.246191 0 -1.11069)
(-0.196824 0 -1.21822)
(-0.0972671 0 0.643333)
(-0.0226642 0 0.660707)
(0.0593883 0 0.701232)
(0.125832 0 0.75954)
(0.218149 0 -1.0496)
(-0.220112 0 -1.15331)
(-0.103314 0 0.781491)
(-0.0446186 0 0.764998)
(0.0393388 0 0.770051)
(0.0966816 0 0.77508)
(0.236955 0 -1.14688)
(-0.221995 0 -1.0383)
(-0.157823 0 0.769701)
(-0.0929129 0 0.651045)
(-0.0291444 0 0.571662)
(0.00826321 0 0.557467)
(0.072846 0 0.614662)
(0.119478 0 0.700737)
(0.244876 0 -1.08243)
(-0.233163 0 -1.05497)
(-0.153081 0 0.661873)
(-0.0947721 0 0.507359)
(-0.0418172 0 0.375536)
(0.0786578 0 0.0509317)
(0.119508 0 -1.13342)
(-0.222548 0 -1.10765)
(-0.178755 0 -0.331404)
(-0.0723655 0 -0.206677)
(-0.0366916 0 -0.212575)
(-0.0180597 0 -0.222446)
(-0.00874811 0 -0.220932)
(-0.0044122 0 -0.210572)
(-0.00213131 0 -0.195716)
(-0.000826398 0 -0.179309)
(-7.71452e-06 0 -0.162855)
(0.000560035 0 -0.147055)
(0.00099041 0 -0.132193)
(0.00133904 0 -0.118358)
(0.00163527 0 -0.105547)
(0.00189373 0 -0.0937181)
(0.00212194 0 -0.0828122)
(0.00232398 0 -0.0727656)
(0.00250277 0 -0.0635158)
(0.00266058 0 -0.0550046)
(0.00279927 0 -0.0471807)
(0.00292049 0 -0.0400007)
(0.0030257 0 -0.0334315)
(0.00311628 0 -0.02745)
(0.00319366 0 -0.022043)
(0.00326008 0 -0.0172091)
(0.0033152 0 -0.0129663)
(0.00336849 0 -0.00934049)
(0.00343489 0 -0.00592975)
(-0.00121295 0 -0.00166728)
(-0.00121084 0 -0.00424258)
(-0.0011939 0 -0.00691426)
(-0.00117525 0 -0.00970205)
(-0.0011521 0 -0.012601)
(-0.00112299 0 -0.0156324)
(-0.00108755 0 -0.0188211)
(-0.00104527 0 -0.0221938)
(-0.000995763 0 -0.0257771)
(-0.000938586 0 -0.0295966)
(-0.000873167 0 -0.033677)
(-0.000798776 0 -0.0380423)
(-0.000714518 0 -0.0427176)
(-0.000619326 0 -0.04773)
(-0.000511966 0 -0.0531096)
(-0.000391028 0 -0.0588901)
(-0.000254889 0 -0.0651091)
(-0.000101651 0 -0.0718088)
(7.09316e-05 0 -0.0790358)
(0.00026554 0 -0.0868429)
(0.000485401 0 -0.095289)
(0.000734434 0 -0.104441)
(0.00101749 0 -0.114375)
(0.0013408 0 -0.125181)
(0.00171258 0 -0.136966)
(0.00214392 0 -0.149867)
(0.00264964 0 -0.164068)
(0.00324891 0 -0.17983)
(0.00396324 0 -0.19754)
(0.00481321 0 -0.217745)
(0.00585526 0 -0.243071)
(0.00704562 0 -0.273889)
(0.0082064 0 -0.308255)
(0.00909379 0 -0.34699)
(0.00924032 0 -0.390815)
(0.00737127 0 -0.438431)
(0.00353725 0 -0.48026)
(0.000602647 0 -0.491001)
(0.0196979 0 -0.443405)
(0.133806 0 -0.480368)
(0.251441 0 -1.22471)
(-0.08928 0 -1.1634)
(-0.0571259 0 0.193526)
(0.0673194 0 0.427278)
(0.140121 0 0.511087)
(0.218902 0 -0.994001)
(-0.165053 0 -1.10827)
(-0.0885449 0 0.576434)
(-0.00921842 0 0.613473)
(0.0615622 0 0.652322)
(0.133804 0 0.697173)
(0.20072 0 -0.933564)
(-0.194078 0 -1.04811)
(-0.106196 0 0.716259)
(-0.0399411 0 0.719444)
(0.029139 0 0.726647)
(0.0956324 0 0.705156)
(0.192085 0 -1.04604)
(-0.215781 0 -0.904162)
(-0.166856 0 0.713612)
(-0.0937722 0 0.609074)
(-0.0330739 0 0.535765)
(0.00434893 0 0.522443)
(0.0642532 0 0.578398)
(0.117758 0 0.640032)
(0.216237 0 -0.973838)
(-0.209617 0 -0.919009)
(-0.161183 0 0.608741)
(-0.0963624 0 0.466175)
(-0.0570666 0 0.326233)
(0.0655676 0 -0.0230234)
(0.0879686 0 -0.990956)
(-0.178275 0 -0.99043)
(-0.151077 0 -0.408245)
(-0.0563695 0 -0.260582)
(-0.0298674 0 -0.241856)
(-0.0128492 0 -0.237321)
(-0.0051916 0 -0.228585)
(-0.0016636 0 -0.214617)
(0.00021683 0 -0.197982)
(0.00129736 0 -0.180688)
(0.00199141 0 -0.163785)
(0.00248051 0 -0.147751)
(0.00286214 0 -0.132762)
(0.00318017 0 -0.118853)
(0.00345691 0 -0.105996)
(0.00370299 0 -0.0941345)
(0.00392363 0 -0.0832023)
(0.00412178 0 -0.073132)
(0.0042995 0 -0.0638592)
(0.00445833 0 -0.0553248)
(0.00459952 0 -0.0474771)
(0.00472415 0 -0.040273)
(0.00483325 0 -0.0336795)
(0.00492793 0 -0.0276741)
(0.00500944 0 -0.0222442)
(0.00508018 0 -0.0173915)
(0.00513903 0 -0.0131371)
(0.00519454 0 -0.00950481)
(0.00525449 0 -0.00606106)
(-0.0018282 0 -0.00168339)
(-0.00182787 0 -0.00427791)
(-0.00180816 0 -0.00696428)
(-0.00178733 0 -0.00976493)
(-0.00176177 0 -0.0126766)
(-0.00172971 0 -0.0157213)
(-0.00169074 0 -0.0189233)
(-0.00164432 0 -0.0223091)
(-0.00159001 0 -0.0259051)
(-0.00152734 0 -0.0297372)
(-0.0014557 0 -0.0338301)
(-0.00137437 0 -0.0382081)
(-0.00128241 0 -0.0428965)
(-0.00117874 0 -0.0479226)
(-0.00106213 0 -0.0533166)
(-0.000931188 0 -0.0591124)
(-0.000784314 0 -0.0653477)
(-0.000619678 0 -0.0720647)
(-0.000435137 0 -0.0793107)
(-0.000228175 0 -0.0871382)
(4.16093e-06 0 -0.0956068)
(0.000265349 0 -0.104784)
(0.000559597 0 -0.114747)
(0.000892186 0 -0.125585)
(0.00126997 0 -0.137409)
(0.00170182 0 -0.150357)
(0.00219883 0 -0.164613)
(0.00277424 0 -0.180441)
(0.00343985 0 -0.198224)
(0.00420209 0 -0.21849)
(0.00507943 0 -0.243837)
(0.00597268 0 -0.274624)
(0.00665229 0 -0.308838)
(0.00679163 0 -0.347152)
(0.00588384 0 -0.390066)
(0.0028705 0 -0.436316)
(-0.00275417 0 -0.477577)
(-0.00462735 0 -0.497385)
(0.00697348 0 -0.476285)
(0.114688 0 -0.558433)
(0.202859 0 -1.15688)
(-0.0900709 0 -1.0488)
(-0.0544912 0 0.130618)
(0.059326 0 0.376893)
(0.129919 0 0.451434)
(0.190001 0 -0.888351)
(-0.137837 0 -1.00854)
(-0.0744999 0 0.519038)
(0.00474622 0 0.571616)
(0.0617717 0 0.609236)
(0.13288 0 0.646397)
(0.181045 0 -0.822478)
(-0.165373 0 -0.946796)
(-0.101168 0 0.662133)
(-0.032235 0 0.680366)
(0.0178466 0 0.689564)
(0.0880516 0 0.649468)
(0.147066 0 -0.944183)
(-0.204377 0 -0.782564)
(-0.162778 0 0.665377)
(-0.0899124 0 0.570161)
(-0.0358204 0 0.50211)
(0.000539845 0 0.489654)
(0.0510998 0 0.546846)
(0.10757 0 0.589221)
(0.182972 0 -0.871357)
(-0.185465 0 -0.789851)
(-0.159434 0 0.568628)
(-0.093063 0 0.432061)
(-0.0644376 0 0.277935)
(0.0585697 0 -0.086657)
(0.0706782 0 -0.877044)
(-0.131939 0 -0.898421)
(-0.119306 0 -0.461808)
(-0.0435924 0 -0.30411)
(-0.0230462 0 -0.264616)
(-0.0077127 0 -0.248815)
(-0.00152209 0 -0.234508)
(0.00142412 0 -0.217786)
(0.00297321 0 -0.199819)
(0.00383339 0 -0.181862)
(0.00438237 0 -0.164622)
(0.00477894 0 -0.148407)
(0.00509797 0 -0.133317)
(0.00537297 0 -0.119348)
(0.00561954 0 -0.106451)
(0.00584402 0 -0.0945609)
(0.00604934 0 -0.0836045)
(0.00623706 0 -0.0735116)
(0.00640815 0 -0.0642162)
(0.0065632 0 -0.0556586)
(0.00670265 0 -0.0477869)
(0.00682696 0 -0.0405582)
(0.00693675 0 -0.03394)
(0.00703288 0 -0.0279103)
(0.00711641 0 -0.0224574)
(0.00718956 0 -0.0175844)
(0.00725067 0 -0.0133138)
(0.00730792 0 -0.00966425)
(0.007362 0 -0.0061843)
(-0.00257791 0 -0.00170039)
(-0.00257945 0 -0.00431544)
(-0.00255761 0 -0.00701805)
(-0.00253541 0 -0.00983256)
(-0.00250839 0 -0.0127577)
(-0.00247454 0 -0.0158161)
(-0.0024335 0 -0.0190321)
(-0.0023847 0 -0.0224315)
(-0.00232769 0 -0.0260408)
(-0.00226199 0 -0.0298859)
(-0.00218703 0 -0.0339917)
(-0.00210208 0 -0.0383827)
(-0.00200628 0 -0.0430845)
(-0.00189862 0 -0.0481245)
(-0.00177796 0 -0.0535329)
(-0.00164303 0 -0.0593438)
(-0.00149241 0 -0.065595)
(-0.00132449 0 -0.0723289)
(-0.00113742 0 -0.0795928)
(-0.000929107 0 -0.0874395)
(-0.000697176 0 -0.0959287)
(-0.000438996 0 -0.105128)
(-0.000151523 0 -0.115116)
(0.000168952 0 -0.125982)
(0.000527073 0 -0.137838)
(0.000928457 0 -0.150822)
(0.001379 0 -0.16512)
(0.00188419 0 -0.180993)
(0.0024444 0 -0.198818)
(0.00305035 0 -0.219101)
(0.00367546 0 -0.244402)
(0.00416626 0 -0.275051)
(0.00426371 0 -0.308963)
(0.00359669 0 -0.346672)
(0.00163879 0 -0.388475)
(-0.00228449 0 -0.433294)
(-0.00940934 0 -0.474287)
(-0.00988452 0 -0.501505)
(-0.00327723 0 -0.507775)
(0.0958641 0 -0.622489)
(0.154539 0 -1.09617)
(-0.096914 0 -0.953102)
(-0.0562083 0 0.0695986)
(0.0485674 0 0.328445)
(0.116828 0 0.399309)
(0.162663 0 -0.797457)
(-0.117327 0 -0.922151)
(-0.0585265 0 0.465509)
(0.0176347 0 0.534415)
(0.0612389 0 0.571643)
(0.12801 0 0.60379)
(0.163164 0 -0.72194)
(-0.138357 0 -0.855465)
(-0.0917943 0 0.616175)
(-0.0233987 0 0.647511)
(0.00852248 0 0.658136)
(0.0781198 0 0.604584)
(0.110166 0 -0.847546)
(-0.189678 0 -0.681048)
(-0.150549 0 0.622697)
(-0.0831333 0 0.535287)
(-0.0373723 0 0.472038)
(-0.00277107 0 0.460464)
(0.0360889 0 0.519664)
(0.0927442 0 0.544508)
(0.147949 0 -0.779355)
(-0.166061 0 -0.675443)
(-0.15158 0 0.536499)
(-0.0871868 0 0.402395)
(-0.0650572 0 0.229551)
(0.0548912 0 -0.144352)
(0.0607377 0 -0.791715)
(-0.0913492 0 -0.827413)
(-0.0900222 0 -0.497869)
(-0.0345643 0 -0.339155)
(-0.0173599 0 -0.283348)
(-0.00383375 0 -0.258383)
(0.00139462 0 -0.239315)
(0.00410864 0 -0.220275)
(0.00552464 0 -0.201228)
(0.00630662 0 -0.182761)
(0.00680825 0 -0.16527)
(0.00717264 0 -0.148929)
(0.00746817 0 -0.133772)
(0.00772582 0 -0.119767)
(0.00795887 0 -0.106848)
(0.00817304 0 -0.0949413)
(0.00837102 0 -0.0839703)
(0.00855398 0 -0.0738625)
(0.00872235 0 -0.0645506)
(0.00887617 0 -0.0559749)
(0.00901543 0 -0.0480837)
(0.00914026 0 -0.0408344)
(0.00925114 0 -0.0341952)
(0.00934884 0 -0.0281443)
(0.00943433 0 -0.0226712)
(0.00950964 0 -0.0177794)
(0.00957261 0 -0.0134909)
(0.00963265 0 -0.00981991)
(0.00968264 0 -0.00630231)
(-0.00345922 0 -0.00171801)
(-0.00346291 0 -0.00435425)
(-0.00343916 0 -0.00707375)
(-0.00341608 0 -0.0099026)
(-0.00338831 0 -0.0128414)
(-0.00335356 0 -0.0159136)
(-0.00331159 0 -0.0191435)
(-0.00326183 0 -0.0225564)
(-0.00320387 0 -0.0261788)
(-0.00313725 0 -0.0300365)
(-0.00306145 0 -0.0341547)
(-0.00297582 0 -0.0385582)
(-0.0028796 0 -0.0432724)
(-0.00277191 0 -0.0483251)
(-0.00265177 0 -0.0537466)
(-0.00251814 0 -0.0595708)
(-0.0023699 0 -0.0658359)
(-0.00220578 0 -0.0725841)
(-0.00202438 0 -0.0798627)
(-0.0018242 0 -0.0877247)
(-0.00160371 0 -0.0962299)
(-0.00136143 0 -0.105446)
(-0.0010958 0 -0.115451)
(-0.000805109 0 -0.126336)
(-0.00048743 0 -0.138211)
(-0.000140998 0 -0.151216)
(0.000234273 0 -0.165534)
(0.000635677 0 -0.181425)
(0.00105184 0 -0.199252)
(0.00145924 0 -0.219501)
(0.00178585 0 -0.244682)
(0.00183396 0 -0.275085)
(0.00134174 0 -0.308556)
(-5.81197e-05 0 -0.345527)
(-0.00289813 0 -0.386149)
(-0.00738072 0 -0.429623)
(-0.0152582 0 -0.470759)
(-0.0146927 0 -0.504474)
(-0.010668 0 -0.536562)
(0.0758026 0 -0.671306)
(0.107202 0 -1.03843)
(-0.106187 0 -0.876844)
(-0.0627522 0 0.00990738)
(0.0360844 0 0.281623)
(0.102582 0 0.352707)
(0.137822 0 -0.719399)
(-0.102103 0 -0.85058)
(-0.0427749 0 0.414469)
(0.0290673 0 0.501427)
(0.0602867 0 0.539007)
(0.122504 0 0.567368)
(0.147836 0 -0.633399)
(-0.114839 0 -0.774711)
(-0.0808153 0 0.575849)
(-0.0144679 0 0.620321)
(0.00240759 0 0.631751)
(0.0689613 0 0.568275)
(0.0829947 0 -0.758297)
(-0.173118 0 -0.601069)
(-0.134101 0 0.584096)
(-0.0743764 0 0.505401)
(-0.0377955 0 0.445909)
(-0.00533701 0 0.435527)
(0.0210281 0 0.496897)
(0.0765057 0 0.504938)
(0.112869 0 -0.698932)
(-0.15205 0 -0.578291)
(-0.140122 0 0.508463)
(-0.0792471 0 0.375763)
(-0.0597753 0 0.182355)
(0.051697 0 -0.195498)
(0.0533158 0 -0.729035)
(-0.0601431 0 -0.772038)
(-0.0660107 0 -0.519677)
(-0.0281594 0 -0.366289)
(-0.0129805 0 -0.299383)
(-0.00118263 0 -0.267005)
(0.00357499 0 -0.243728)
(0.00627667 0 -0.222597)
(0.00771578 0 -0.202547)
(0.00855334 0 -0.183593)
(0.00910806 0 -0.165864)
(0.00951305 0 -0.149406)
(0.00983886 0 -0.134192)
(0.0101184 0 -0.120157)
(0.010367 0 -0.107222)
(0.010593 0 -0.0953036)
(0.0108006 0 -0.0843221)
(0.0109918 0 -0.0742027)
(0.0111672 0 -0.0648775)
(0.0113271 0 -0.0562866)
(0.0114717 0 -0.0483783)
(0.0116013 0 -0.0411107)
(0.0117164 0 -0.0344523)
(0.0118181 0 -0.0283822)
(0.0119073 0 -0.0228902)
(0.011986 0 -0.0179801)
(0.0120518 0 -0.0136721)
(0.012116 0 -0.00997735)
(0.0121641 0 -0.00642165)
(-0.0044636 0 -0.00173621)
(-0.00446999 0 -0.00439402)
(-0.00444431 0 -0.00713063)
(-0.00442073 0 -0.00997402)
(-0.00439283 0 -0.0129265)
(-0.00435796 0 -0.0160123)
(-0.00431602 0 -0.0192557)
(-0.00426652 0 -0.0226819)
(-0.00420906 0 -0.026317)
(-0.00414325 0 -0.0301869)
(-0.00406865 0 -0.0343168)
(-0.00398473 0 -0.0387318)
(-0.00389086 0 -0.0434574)
(-0.00378636 0 -0.0485215)
(-0.00367048 0 -0.0539544)
(-0.00354247 0 -0.0597902)
(-0.00340157 0 -0.0660667)
(-0.00324693 0 -0.0728264)
(-0.00307773 0 -0.0801163)
(-0.00289318 0 -0.0879894)
(-0.00269273 0 -0.0965053)
(-0.00247618 0 -0.105732)
(-0.00224367 0 -0.115746)
(-0.00199561 0 -0.12664)
(-0.00173294 0 -0.138522)
(-0.00145791 0 -0.15153)
(-0.0011761 0 -0.165848)
(-0.000897728 0 -0.181727)
(-0.000644615 0 -0.199521)
(-0.000452148 0 -0.219686)
(-0.000432301 0 -0.244687)
(-0.000808056 0 -0.274764)
(-0.00182695 0 -0.307714)
(-0.0038097 0 -0.343895)
(-0.00725763 0 -0.383401)
(-0.0119024 0 -0.425748)
(-0.0197235 0 -0.467509)
(-0.0183291 0 -0.507236)
(-0.0150783 0 -0.560715)
(0.0546262 0 -0.704552)
(0.0620316 0 -0.984469)
(-0.115662 0 -0.815789)
(-0.07243 0 -0.0484432)
(0.0230283 0 0.236784)
(0.0877878 0 0.311022)
(0.116431 0 -0.651908)
(-0.0887315 0 -0.792801)
(-0.0290585 0 0.36513)
(0.0390672 0 0.473126)
(0.0595916 0 0.511209)
(0.11728 0 0.536316)
(0.134737 0 -0.555184)
(-0.0947589 0 -0.70277)
(-0.0696294 0 0.540057)
(-0.00599891 0 0.598189)
(-0.000473232 0 0.609962)
(0.0620288 0 0.538911)
(0.0645581 0 -0.677016)
(-0.155341 0 -0.537984)
(-0.116038 0 0.549462)
(-0.0644181 0 0.480932)
(-0.0371513 0 0.423992)
(-0.00684087 0 0.415573)
(0.00753599 0 0.478243)
(0.0610813 0 0.471263)
(0.0801849 0 -0.62701)
(-0.141267 0 -0.49952)
(-0.126201 0 0.482093)
(-0.0687646 0 0.351625)
(-0.0494645 0 0.138487)
(0.0488593 0 -0.238654)
(0.0471484 0 -0.682577)
(-0.0379456 0 -0.727723)
(-0.0477483 0 -0.530601)
(-0.0232159 0 -0.386442)
(-0.00967286 0 -0.313183)
(0.000654287 0 -0.274981)
(0.00527768 0 -0.24808)
(0.00807294 0 -0.225057)
(0.00963972 0 -0.204031)
(0.0106167 0 -0.184568)
(0.0112879 0 -0.166574)
(0.0117852 0 -0.149974)
(0.0121823 0 -0.134682)
(0.0125162 0 -0.120603)
(0.012807 0 -0.107641)
(0.0130665 0 -0.095703)
(0.013301 0 -0.0847049)
(0.013514 0 -0.0745694)
(0.0137071 0 -0.0652276)
(0.0138816 0 -0.0566188)
(0.0140381 0 -0.0486915)
(0.0141777 0 -0.0414039)
(0.0143013 0 -0.0347251)
(0.0144102 0 -0.0286346)
(0.0145055 0 -0.0231226)
(0.0145894 0 -0.0181924)
(0.0146593 0 -0.0138628)
(0.014729 0 -0.0101418)
(0.0147766 0 -0.00654627)
(-0.00557781 0 -0.00175481)
(-0.00558761 0 -0.00443423)
(-0.00555991 0 -0.00718785)
(-0.00553618 0 -0.0100456)
(-0.00550871 0 -0.0130115)
(-0.0054744 0 -0.0161104)
(-0.00543332 0 -0.0193668)
(-0.00538508 0 -0.0228056)
(-0.00532932 0 -0.0264527)
(-0.00526573 0 -0.0303339)
(-0.00519397 0 -0.0344747)
(-0.00511364 0 -0.0389001)
(-0.00502429 0 -0.043636)
(-0.00492544 0 -0.04871)
(-0.00481663 0 -0.0541525)
(-0.00469745 0 -0.0599977)
(-0.00456751 0 -0.0662832)
(-0.00442647 0 -0.0730512)
(-0.0042741 0 -0.0803488)
(-0.00411039 0 -0.0882287)
(-0.00393581 0 -0.09675)
(-0.00375151 0 -0.10598)
(-0.0035593 0 -0.115996)
(-0.00336163 0 -0.126888)
(-0.00316211 0 -0.138765)
(-0.00296679 0 -0.151762)
(-0.00278618 0 -0.166059)
(-0.00263673 0 -0.181902)
(-0.00254829 0 -0.19963)
(-0.00256542 0 -0.219676)
(-0.00283063 0 -0.244451)
(-0.00357477 0 -0.274153)
(-0.00501184 0 -0.306554)
(-0.00738588 0 -0.341965)
(-0.0111421 0 -0.380503)
(-0.0156194 0 -0.422016)
(-0.0227243 0 -0.464819)
(-0.0207095 0 -0.510032)
(-0.0175117 0 -0.579424)
(0.0331522 0 -0.723829)
(0.0226471 0 -0.936083)
(-0.122962 0 -0.764891)
(-0.0833773 0 -0.10452)
(0.0097249 0 0.193224)
(0.0731138 0 0.272793)
(0.0997933 0 -0.593933)
(-0.0749345 0 -0.746226)
(-0.0178003 0 0.316615)
(0.0485529 0 0.44997)
(0.0595238 0 0.488145)
(0.112182 0 0.510159)
(0.123724 0 -0.485594)
(-0.077445 0 -0.638763)
(-0.0588291 0 0.508292)
(0.00177597 0 0.580204)
(-0.00078884 0 0.591949)
(0.0574886 0 0.514957)
(0.0534242 0 -0.603515)
(-0.136788 0 -0.487144)
(-0.0982013 0 0.518712)
(-0.053833 0 0.461688)
(-0.0352794 0 0.406239)
(-0.00723833 0 0.400654)
(-0.00306993 0 0.463012)
(0.0483324 0 0.443996)
(0.052338 0 -0.560738)
(-0.131391 0 -0.439295)
(-0.10992 0 0.455916)
(-0.0551862 0 0.32923)
(-0.0355022 0 0.0991554)
(0.0474248 0 -0.273063)
(0.0427584 0 -0.647051)
(-0.0222339 0 -0.691828)
(-0.0341765 0 -0.534425)
(-0.0188171 0 -0.401135)
(-0.00693293 0 -0.325016)
(0.00215989 0 -0.282373)
(0.00678084 0 -0.252439)
(0.00970422 0 -0.227714)
(0.0114509 0 -0.205746)
(0.0126052 0 -0.18576)
(0.0134232 0 -0.167468)
(0.0140392 0 -0.150695)
(0.0145304 0 -0.135299)
(0.0149391 0 -0.121154)
(0.0152899 0 -0.108146)
(0.0155978 0 -0.0961737)
(0.0158715 0 -0.0851474)
(0.0161163 0 -0.0749867)
(0.0163354 0 -0.0656209)
(0.0165311 0 -0.0569883)
(0.0167051 0 -0.0490372)
(0.0168592 0 -0.0417256)
(0.016995 0 -0.0350229)
(0.017114 0 -0.0289089)
(0.0172178 0 -0.0233738)
(0.0173084 0 -0.0184205)
(0.0173835 0 -0.0140661)
(0.0174595 0 -0.010316)
(0.0175077 0 -0.00667815)
(-0.00678691 0 -0.00177349)
(-0.00680075 0 -0.00447415)
(-0.00677094 0 -0.00724435)
(-0.00674737 0 -0.010116)
(-0.00672079 0 -0.0130946)
(-0.00668758 0 -0.0162059)
(-0.00664801 0 -0.0194744)
(-0.00660178 0 -0.0229248)
(-0.0065486 0 -0.0265828)
(-0.00648825 0 -0.0304744)
(-0.0064205 0 -0.0346247)
(-0.00634509 0 -0.0390592)
(-0.00626177 0 -0.0438036)
(-0.00617028 0 -0.0488857)
(-0.00607046 0 -0.0543358)
(-0.00596223 0 -0.0601877)
(-0.00584563 0 -0.0664792)
(-0.0057208 0 -0.0732523)
(-0.00558811 0 -0.0805536)
(-0.00544833 0 -0.0884354)
(-0.00530293 0 -0.0969566)
(-0.00515433 0 -0.106184)
(-0.00500586 0 -0.116193)
(-0.00486179 0 -0.127074)
(-0.00472806 0 -0.138933)
(-0.00461392 0 -0.151905)
(-0.00453387 0 -0.166164)
(-0.00450894 0 -0.18195)
(-0.00457453 0 -0.199588)
(-0.00478076 0 -0.219487)
(-0.00529119 0 -0.244008)
(-0.00632969 0 -0.273316)
(-0.0080653 0 -0.305176)
(-0.0106538 0 -0.339891)
(-0.0144656 0 -0.377662)
(-0.0185853 0 -0.418656)
(-0.0246589 0 -0.462741)
(-0.0223948 0 -0.512764)
(-0.0194076 0 -0.592574)
(0.0129267 0 -0.731635)
(-0.00887947 0 -0.892189)
(-0.127301 0 -0.723579)
(-0.0940057 0 -0.156662)
(-0.00454161 0 0.150013)
(0.0589114 0 0.235702)
(0.0889409 0 -0.545903)
(-0.0591749 0 -0.707621)
(-0.00848658 0 0.269177)
(0.0583897 0 0.431066)
(0.0602152 0 0.469569)
(0.107114 0 0.488342)
(0.114914 0 -0.423691)
(-0.062155 0 -0.581431)
(-0.048723 0 0.479914)
(0.00875582 0 0.565406)
(0.000564488 0 0.576735)
(0.0547715 0 0.494861)
(0.0479626 0 -0.537682)
(-0.117884 0 -0.44454)
(-0.0817468 0 0.491011)
(-0.0430499 0 0.446938)
(-0.0321519 0 0.392188)
(-0.00643476 0 0.389702)
(-0.00968471 0 0.450746)
(0.0393563 0 0.422792)
(0.0313795 0 -0.49948)
(-0.120661 0 -0.395665)
(-0.0911528 0 0.428737)
(-0.0385578 0 0.308083)
(-0.0192933 0 0.0646203)
(0.0482843 0 -0.298589)
(0.0405269 0 -0.618539)
(-0.0104934 0 -0.662398)
(-0.0235076 0 -0.534115)
(-0.0142616 0 -0.411835)
(-0.00417621 0 -0.335142)
(0.00379922 0 -0.289237)
(0.0083754 0 -0.256799)
(0.0113928 0 -0.230546)
(0.0133116 0 -0.207677)
(0.0146385 0 -0.187163)
(0.0156047 0 -0.168554)
(0.0163445 0 -0.151582)
(0.016937 0 -0.136056)
(0.0174285 0 -0.121822)
(0.0178472 0 -0.10875)
(0.0182107 0 -0.0967287)
(0.0185299 0 -0.0856619)
(0.018812 0 -0.0754658)
(0.0190617 0 -0.0660675)
(0.0192827 0 -0.0574043)
(0.0194779 0 -0.0494233)
(0.0196496 0 -0.0420826)
(0.0198 0 -0.0353514)
(0.0199313 0 -0.0292097)
(0.0200451 0 -0.0236476)
(0.0201438 0 -0.0186672)
(0.0202253 0 -0.0142844)
(0.0203079 0 -0.0105017)
(0.0203578 0 -0.00681836)
(-0.00807815 0 -0.00179205)
(-0.00809628 0 -0.00451334)
(-0.00806431 0 -0.00729949)
(-0.00804106 0 -0.0101843)
(-0.00801557 0 -0.0131747)
(-0.00798372 0 -0.0162973)
(-0.00794601 0 -0.0195768)
(-0.00790224 0 -0.0230377)
(-0.00785219 0 -0.0267055)
(-0.00779571 0 -0.030606)
(-0.00773268 0 -0.0347646)
(-0.007663 0 -0.0392065)
(-0.00758662 0 -0.0439576)
(-0.00750351 0 -0.0490456)
(-0.0074138 0 -0.0545008)
(-0.00731774 0 -0.0603569)
(-0.00721577 0 -0.0666513)
(-0.00710851 0 -0.0734257)
(-0.00699688 0 -0.0807265)
(-0.00688237 0 -0.0886055)
(-0.0067674 0 -0.0971208)
(-0.00665554 0 -0.106338)
(-0.00655143 0 -0.116333)
(-0.00646081 0 -0.127194)
(-0.00639156 0 -0.139025)
(-0.00635551 0 -0.151959)
(-0.00637013 0 -0.166166)
(-0.00645924 0 -0.181879)
(-0.00666166 0 -0.199409)
(-0.00703022 0 -0.219144)
(-0.00774153 0 -0.243399)
(-0.00900147 0 -0.272316)
(-0.0109331 0 -0.303673)
(-0.0136111 0 -0.337789)
(-0.0173225 0 -0.374994)
(-0.0210545 0 -0.415743)
(-0.0261329 0 -0.461141)
(-0.024195 0 -0.515068)
(-0.0220479 0 -0.600477)
(-0.00479883 0 -0.730964)
(-0.0330707 0 -0.852457)
(-0.129763 0 -0.690409)
(-0.103955 0 -0.203142)
(-0.0210606 0 0.10641)
(0.0446965 0 0.197509)
(0.0838591 0 -0.509154)
(-0.0403279 0 -0.673567)
(-0.000475079 0 0.223415)
(0.0685433 0 0.415195)
(0.0615675 0 0.455359)
(0.102245 0 0.470224)
(0.108234 0 -0.36899)
(-0.0483144 0 -0.529497)
(-0.039555 0 0.454468)
(0.0147861 0 0.55298)
(0.00270129 0 0.563599)
(0.0530978 0 0.477257)
(0.0463846 0 -0.479463)
(-0.0991022 0 -0.407721)
(-0.0671037 0 0.466065)
(-0.0324603 0 0.435764)
(-0.0279861 0 0.381242)
(-0.00428231 0 0.381525)
(-0.0117247 0 0.440674)
(0.0344914 0 0.406477)
(0.0185239 0 -0.443313)
(-0.107998 0 -0.365426)
(-0.0700841 0 0.399463)
(-0.0195292 0 0.288019)
(-0.00207188 0 0.0352003)