/*--------------------------------*- C++ -*----------------------------------*\
  =========                 |
  \\      /  F ield         | OpenFOAM: The Open Source CFD Toolbox
   \\    /   O peration     | Website:  https://openfoam.org
    \\  /    A nd           | Version:  9
     \\/     M anipulation  |
\*---------------------------------------------------------------------------*/
FoamFile
{
    format      ascii;
    class       surfaceVectorField;
    location    "0.06";
    object      Uf;
}
// * * * * * * * * * * * * * * * * * * * * * * * * * * * * * * * * * * * * * //

dimensions      [0 1 -1 0 0 0 0];

internalField   nonuniform List<vector> 
39700
(
(-1.39455e-05 0 -0.00284968)
(-8.14611e-05 0 -0.00160248)
(-1.26555e-05 0 -0.00546337)
(-7.37486e-05 0 -0.00416961)
(-1.15141e-05 0 -0.00816222)
(-7.24087e-05 0 -0.00682001)
(-8.65292e-06 0 -0.0109647)
(-6.90766e-05 0 -0.0095735)
(-4.28637e-06 0 -0.0138893)
(-6.29952e-05 0 -0.0124374)
(1.39851e-06 0 -0.0169604)
(-5.439e-05 0 -0.0154351)
(8.29429e-06 0 -0.020204)
(-4.34499e-05 0 -0.0185919)
(1.63525e-05 0 -0.0236463)
(-3.02315e-05 0 -0.0219347)
(2.55667e-05 0 -0.0273132)
(-1.47631e-05 0 -0.0254899)
(3.59791e-05 0 -0.0312289)
(2.99891e-06 0 -0.0292824)
(4.76805e-05 0 -0.0354167)
(2.31752e-05 0 -0.0333359)
(6.08078e-05 0 -0.0399006)
(4.59664e-05 0 -0.0376739)
(7.55374e-05 0 -0.0447059)
(7.16567e-05 0 -0.0423208)
(9.20841e-05 0 -0.0498608)
(0.000100601 0 -0.0473032)
(0.000110705 0 -0.0553966)
(0.000133226 0 -0.0526509)
(0.000131701 0 -0.0613486)
(0.000170034 0 -0.058397)
(0.000155429 0 -0.0677557)
(0.000211617 0 -0.0645789)
(0.000182314 0 -0.0746619)
(0.000258676 0 -0.0712379)
(0.000212861 0 -0.0821156)
(0.00031205 0 -0.0784202)
(0.000247673 0 -0.0901715)
(0.000372747 0 -0.0861774)
(0.000287489 0 -0.0988906)
(0.000441997 0 -0.0945673)
(0.000333239 0 -0.108342)
(0.000521335 0 -0.103655)
(0.000386145 0 -0.118604)
(0.000612738 0 -0.113514)
(0.000447894 0 -0.129771)
(0.000718855 0 -0.12423)
(0.000520941 0 -0.141956)
(0.000843396 0 -0.135904)
(0.000609042 0 -0.155306)
(0.000991779 0 -0.148664)
(0.000718137 0 -0.170029)
(0.00117217 0 -0.162683)
(0.000857469 0 -0.186439)
(0.00139684 0 -0.178209)
(0.00103999 0 -0.205009)
(0.00168333 0 -0.195627)
(0.00127913 0 -0.226389)
(0.00205351 0 -0.215509)
(0.00162185 0 -0.255298)
(0.00255342 0 -0.240542)
(0.00206969 0 -0.287435)
(0.00321753 0 -0.270982)
(0.00266331 0 -0.323808)
(0.00405975 0 -0.305064)
(0.00340509 0 -0.365982)
(0.00508803 0 -0.344043)
(0.00402209 0 -0.415122)
(0.00612989 0 -0.389662)
(0.00330739 0 -0.463695)
(0.00635124 0 -0.441932)
(-1.88083e-05 0 -0.468751)
(0.0040986 0 -0.485229)
(0.00447324 0 -0.366372)
(0.0012512 0 -0.455052)
(0.0376221 0 -0.132525)
(0.0301735 0 -0.300155)
(0.191287 0 -0.831511)
(0.0951311 0 -0.0663311)
(0.0473814 0 -1.72303)
(0.318835 0 -1.57726)
(-0.107986 0 -0.621351)
(-0.158789 0 -1.66085)
(-0.00620111 0 0.582616)
(-0.0380681 0 0.467197)
(0.0331994 0 0.743702)
(0.0320046 0 0.621814)
(0.139103 0 -0.340601)
(0.0723277 0 0.798302)
(0.00681177 0 -1.57428)
(0.225254 0 -1.44269)
(-0.137772 0 -0.364747)
(-0.212451 0 -1.53675)
(-0.027166 0 0.838242)
(-0.0580144 0 0.841072)
(0.00126094 0 0.802234)
(-0.0224407 0 0.772362)
(0.0242337 0 0.886326)
(0.0261539 0 0.809015)
(0.0915214 0 -0.230718)
(0.0504682 0 0.923327)
(-0.00302135 0 -1.44615)
(0.166404 0 -1.35151)
(-0.096882 0 -0.244044)
(-0.179313 0 -1.41972)
(-0.0225565 0 0.934934)
(-0.0456334 0 0.955529)
(0.000552584 0 0.881864)
(-0.022827 0 0.869528)
(0.0240327 0 0.942476)
(0.0247604 0 0.872411)
(0.101899 0 -0.214434)
(0.044869 0 0.966073)
(0.0262503 0 -1.46389)
(0.208828 0 -1.3793)
(-0.102358 0 -0.274612)
(-0.163198 0 -1.41659)
(-0.032252 0 0.849512)
(-0.0633615 0 0.916524)
(-0.0122433 0 0.696621)
(-0.0423421 0 0.741135)
(-0.00112846 0 0.635318)
(-0.0114264 0 0.63744)
(0.0103379 0 0.669935)
(0.00694419 0 0.623159)
(0.0312926 0 0.806696)
(0.0389874 0 0.701679)
(0.107276 0 -0.268259)
(0.0579703 0 0.867439)
(0.00751881 0 -1.45871)
(0.19584 0 -1.37416)
(-0.111446 0 -0.311596)
(-0.184373 0 -1.40571)
(-0.0340875 0 0.741489)
(-0.0667291 0 0.820753)
(-0.00920609 0 0.563677)
(-0.0424808 0 0.614714)
(0.0158887 0 0.43021)
(0.000257805 0 0.48741)
(0.113933 0 -0.615779)
(0.0531048 0 0.311471)
(0.115167 0 -1.69245)
(0.244434 0 -1.51482)
(-0.215097 0 -0.856512)
(-0.222348 0 -1.58735)
(-0.0644795 0 0.0240055)
(-0.128712 0 -0.0372152)
(-0.0202303 0 -0.0670393)
(-0.060964 0 -0.045468)
(-0.00619933 0 -0.150562)
(-0.0216892 0 -0.130111)
(-0.00212922 0 -0.191759)
(-0.00907195 0 -0.184169)
(-0.00113303 0 -0.20211)
(-0.00418619 0 -0.203606)
(-0.000926375 0 -0.196308)
(-0.0024169 0 -0.202411)
(-0.000857624 0 -0.183527)
(-0.00170181 0 -0.191499)
(-0.000785619 0 -0.168342)
(-0.00132678 0 -0.176802)
(-0.00069729 0 -0.15281)
(-0.00106941 0 -0.161125)
(-0.000601659 0 -0.137801)
(-0.000860147 0 -0.145701)
(-0.000506907 0 -0.123657)
(-0.000677621 0 -0.13104)
(-0.000417775 0 -0.110483)
(-0.00051519 0 -0.117329)
(-0.000336501 0 -0.098286)
(-0.000370358 0 -0.104607)
(-0.000263754 0 -0.0870266)
(-0.000241579 0 -0.0928502)
(-0.00019929 0 -0.076649)
(-0.000127451 0 -0.0820078)
(-0.000142439 0 -0.0670928)
(-2.66111e-05 0 -0.0720199)
(-9.24271e-05 0 -0.0582995)
(6.22219e-05 0 -0.062826)
(-4.85527e-05 0 -0.0502153)
(0.000140208 0 -0.0543692)
(-1.02137e-05 0 -0.0427931)
(0.000208391 0 -0.0465982)
(2.31312e-05 0 -0.0359949)
(0.000267721 0 -0.0394698)
(5.19783e-05 0 -0.0297923)
(0.00031914 0 -0.0329504)
(7.68115e-05 0 -0.0241664)
(0.000363534 0 -0.0270165)
(9.8121e-05 0 -0.0191057)
(0.000401692 0 -0.0216534)
(0.000116711 0 -0.014606)
(0.000434894 0 -0.0168533)
(0.000133905 0 -0.0106823)
(0.000463288 0 -0.0126177)
(0.000150713 0 -0.00718311)
(0.000492225 0 -0.00897512)
(0.000527503 0 -0.00559842)
(-0.000137272 0 -0.00286111)
(-0.000261095 0 -0.0016256)
(-0.00013421 0 -0.005463)
(-0.000252809 0 -0.00417913)
(-0.000130852 0 -0.00816616)
(-0.00024784 0 -0.00682997)
(-0.000124096 0 -0.0109795)
(-0.000240312 0 -0.00959259)
(-0.000113755 0 -0.0139146)
(-0.000228859 0 -0.0124652)
(-9.99289e-05 0 -0.0169957)
(-0.000213322 0 -0.0154706)
(-8.26921e-05 0 -0.0202488)
(-0.000193775 0 -0.0186342)
(-6.20913e-05 0 -0.0237008)
(-0.000170121 0 -0.0219828)
(-3.81143e-05 0 -0.0273774)
(-0.000142293 0 -0.0255432)
(-1.06541e-05 0 -0.0313031)
(-0.000110141 0 -0.0293406)
(2.05252e-05 0 -0.0355017)
(-7.34074e-05 0 -0.033399)
(5.5774e-05 0 -0.0399971)
(-3.17126e-05 0 -0.0377419)
(9.55533e-05 0 -0.0448149)
(1.54641e-05 0 -0.042394)
(0.00014042 0 -0.0499833)
(6.87679e-05 0 -0.0473819)
(0.000191049 0 -0.0555338)
(0.00012897 0 -0.0527355)
(0.00024823 0 -0.0615018)
(0.000196963 0 -0.0584881)
(0.000312895 0 -0.0679266)
(0.0002738 0 -0.0646771)
(0.000386157 0 -0.074852)
(0.000360728 0 -0.071344)
(0.000469346 0 -0.082327)
(0.000459235 0 -0.078535)
(0.000564078 0 -0.0904064)
(0.000571127 0 -0.0863021)
(0.000672343 0 -0.0991517)
(0.000698624 0 -0.0947032)
(0.000796673 0 -0.108633)
(0.000844501 0 -0.103804)
(0.000940401 0 -0.118929)
(0.00101231 0 -0.113678)
(0.00110809 0 -0.130134)
(0.00120677 0 -0.124412)
(0.00130625 0 -0.142364)
(0.00143439 0 -0.136109)
(0.00154445 0 -0.155769)
(0.00170443 0 -0.1489)
(0.00183693 0 -0.170561)
(0.00203042 0 -0.162958)
(0.00220421 0 -0.187057)
(0.0024318 0 -0.178539)
(0.00267263 0 -0.205734)
(0.00293488 0 -0.196027)
(0.0032669 0 -0.227237)
(0.00357155 0 -0.215994)
(0.00412193 0 -0.256333)
(0.00441712 0 -0.241112)
(0.00518362 0 -0.288722)
(0.00551119 0 -0.27169)
(0.00648081 0 -0.325399)
(0.00682959 0 -0.305929)
(0.00789167 0 -0.367812)
(0.00832547 0 -0.344984)
(0.00877579 0 -0.416701)
(0.00969957 0 -0.390251)
(0.00757932 0 -0.464362)
(0.00993452 0 -0.441134)
(0.0053236 0 -0.472419)
(0.00796099 0 -0.483725)
(0.0199277 0 -0.386015)
(0.00584384 0 -0.464788)
(0.0844798 0 -0.208804)
(0.044701 0 -0.343189)
(0.277057 0 -0.805954)
(0.149008 0 -0.194716)
(0.0932667 0 -1.54974)
(0.346537 0 -1.45473)
(-0.123477 0 -0.573299)
(-0.132697 0 -1.51636)
(-0.000747676 0 0.526805)
(-0.05946 0 0.385377)
(0.0780442 0 0.692263)
(0.0558269 0 0.569286)
(0.205156 0 -0.297268)
(0.117064 0 0.71356)
(0.0106296 0 -1.41885)
(0.265404 0 -1.31301)
(-0.178685 0 -0.323991)
(-0.235832 0 -1.41054)
(-0.0590355 0 0.789622)
(-0.0870536 0 0.761306)
(0.00370569 0 0.779075)
(-0.0314833 0 0.730535)
(0.0612695 0 0.852105)
(0.0451384 0 0.770639)
(0.154321 0 -0.194506)
(0.0884647 0 0.861293)
(-0.0102886 0 -1.32978)
(0.217189 0 -1.24177)
(-0.155864 0 -0.213906)
(-0.231001 0 -1.32267)
(-0.0555445 0 0.89727)
(-0.0768072 0 0.888649)
(0.00105902 0 0.859609)
(-0.0381397 0 0.831792)
(0.057597 0 0.903699)
(0.0393774 0 0.834719)
(0.166638 0 -0.190921)
(0.0748267 0 0.89338)
(0.0441323 0 -1.33689)
(0.265429 0 -1.29763)
(-0.167883 0 -0.222695)
(-0.210848 0 -1.27525)
(-0.0825767 0 0.81571)
(-0.111374 0 0.859653)
(-0.03436 0 0.681351)
(-0.0724868 0 0.70899)
(-0.00324618 0 0.624161)
(-0.0202491 0 0.616697)
(0.028386 0 0.654347)
(0.0104007 0 0.602071)
(0.0771591 0 0.770659)
(0.0641082 0 0.669163)
(0.174637 0 -0.232672)
(0.0948831 0 0.802454)
(0.013473 0 -1.326)
(0.254046 0 -1.26672)
(-0.18087 0 -0.267338)
(-0.237986 0 -1.27615)
(-0.085376 0 0.702554)
(-0.112715 0 0.757091)
(-0.0243013 0 0.539855)
(-0.0726362 0 0.573997)
(0.0365841 0 0.371955)
(-0.0102257 0 0.44682)
(0.164488 0 -0.60311)
(0.0883952 0 0.207119)
(0.00402906 0 -1.45796)
(0.194305 0 -1.3775)
(-0.253559 0 -0.755733)
(-0.259168 0 -1.35611)
(-0.120445 0 -0.0726325)
(-0.178195 0 -0.162565)
(-0.0538085 0 -0.103628)
(-0.0837079 0 -0.11129)
(-0.0228278 0 -0.164731)
(-0.0360652 0 -0.162212)
(-0.0100259 0 -0.197385)
(-0.017274 0 -0.198083)
(-0.0050384 0 -0.204685)
(-0.00843306 0 -0.209292)
(-0.00302325 0 -0.197881)
(-0.00462267 0 -0.204821)
(-0.00209849 0 -0.18476)
(-0.00284098 0 -0.192659)
(-0.0015775 0 -0.169425)
(-0.00188695 0 -0.177488)
(-0.00121567 0 -0.153793)
(-0.00129447 0 -0.161624)
(-0.000926484 0 -0.138696)
(-0.000871654 0 -0.146119)
(-0.00067912 0 -0.124468)
(-0.00053843 0 -0.131416)
(-0.000462099 0 -0.111216)
(-0.00025998 0 -0.117674)
(-0.000270379 0 -0.0989465)
(-1.98023e-05 0 -0.104927)
(-0.00010085 0 -0.0876199)
(0.000190673 0 -0.0931475)
(4.8973e-05 0 -0.0771805)
(0.000376278 0 -0.0822835)
(0.000181181 0 -0.0675677)
(0.000539996 0 -0.0722751)
(0.00029757 0 -0.0587223)
(0.000684106 0 -0.0630616)
(0.000399614 0 -0.0505901)
(0.000810547 0 -0.0545857)
(0.00048863 0 -0.0431238)
(0.000920986 0 -0.0467963)
(0.000565881 0 -0.036285)
(0.00101699 0 -0.0396502)
(0.000632618 0 -0.0300452)
(0.00110006 0 -0.0331139)
(0.000690085 0 -0.0243852)
(0.0011716 0 -0.0271642)
(0.000739581 0 -0.0192943)
(0.00123287 0 -0.0217869)
(0.000783115 0 -0.0147705)
(0.0012857 0 -0.0169765)
(0.000824278 0 -0.010829)
(0.00133027 0 -0.0127399)
(0.000865872 0 -0.00731355)
(0.00137552 0 -0.00910464)
(0.00143519 0 -0.00571915)
(-0.000372998 0 -0.0028823)
(-0.000553933 0 -0.00164484)
(-0.000366584 0 -0.00548246)
(-0.00054862 0 -0.00419908)
(-0.00035805 0 -0.00819146)
(-0.000538235 0 -0.00685527)
(-0.000345798 0 -0.0110131)
(-0.000525513 0 -0.00962723)
(-0.00032924 0 -0.013956)
(-0.000508594 0 -0.0125099)
(-0.000308127 0 -0.017044)
(-0.000486784 0 -0.0155248)
(-0.00028226 0 -0.0203032)
(-0.000459892 0 -0.0186975)
(-0.00025147 0 -0.0237605)
(-0.000427604 0 -0.0220547)
(-0.000215561 0 -0.0274418)
(-0.000389685 0 -0.0256232)
(-0.000174254 0 -0.031372)
(-0.000345837 0 -0.0294283)
(-0.000127142 0 -0.035575)
(-0.000295644 0 -0.0334943)
(-7.36777e-05 0 -0.0400749)
(-0.00023855 0 -0.0378451)
(-1.3165e-05 0 -0.0448974)
(-0.000173842 0 -0.0425053)
(5.52333e-05 0 -0.0500709)
(-0.000100651 0 -0.0475018)
(0.000132505 0 -0.055627)
(-1.79484e-05 0 -0.0528647)
(0.000219816 0 -0.061601)
(7.54442e-05 0 -0.0586273)
(0.000318533 0 -0.0680325)
(0.00018091 0 -0.0648271)
(0.000430281 0 -0.0749653)
(0.000300075 0 -0.0715058)
(0.000557013 0 -0.0824488)
(0.00043488 0 -0.07871)
(0.000701106 0 -0.0905378)
(0.000587682 0 -0.0864917)
(0.000865499 0 -0.0992943)
(0.000761371 0 -0.0949094)
(0.00105392 0 -0.108788)
(0.000959537 0 -0.104029)
(0.00127124 0 -0.119101)
(0.00118673 0 -0.113926)
(0.00152402 0 -0.130326)
(0.0014489 0 -0.124687)
(0.00182142 0 -0.142583)
(0.00175414 0 -0.136417)
(0.00217645 0 -0.156024)
(0.00211372 0 -0.14925)
(0.00260769 0 -0.170865)
(0.0025436 0 -0.163364)
(0.00314065 0 -0.187426)
(0.00306581 0 -0.179017)
(0.00380617 0 -0.206184)
(0.00370854 0 -0.196597)
(0.00463067 0 -0.227768)
(0.00450432 0 -0.216667)
(0.0057939 0 -0.256972)
(0.00553567 0 -0.241887)
(0.00716365 0 -0.289487)
(0.00682184 0 -0.272603)
(0.00871823 0 -0.326232)
(0.00827978 0 -0.306965)
(0.0102528 0 -0.368402)
(0.00979285 0 -0.346007)
(0.0111389 0 -0.416218)
(0.0109863 0 -0.390842)
(0.010188 0 -0.462607)
(0.0107485 0 -0.4405)
(0.00920803 0 -0.476775)
(0.00876291 0 -0.483071)
(0.0270374 0 -0.415665)
(0.00638896 0 -0.476675)
(0.0903563 0 -0.310219)
(0.0400543 0 -0.385402)
(0.276677 0 -0.826468)
(0.156994 0 -0.31893)
(0.114414 0 -1.41581)
(0.317884 0 -1.34656)
(-0.11294 0 -0.546001)
(-0.106206 0 -1.36479)
(0.00750589 0 0.446535)
(-0.0633021 0 0.30508)
(0.0919846 0 0.611786)
(0.0676064 0 0.512967)
(0.220505 0 -0.278557)
(0.138274 0 0.62788)
(0.0165135 0 -1.28407)
(0.255986 0 -1.17701)
(-0.177504 0 -0.304544)
(-0.212176 0 -1.2812)
(-0.0603543 0 0.719218)
(-0.0965709 0 0.683207)
(0.00938413 0 0.732873)
(-0.0273298 0 0.684043)
(0.0787449 0 0.793289)
(0.0559281 0 0.724399)
(0.180237 0 -0.167037)
(0.115499 0 0.793632)
(-0.00767618 0 -1.21196)
(0.221935 0 -1.11649)
(-0.173579 0 -0.19898)
(-0.228196 0 -1.21207)
(-0.0667358 0 0.836428)
(-0.0964959 0 0.81742)
(0.000192496 0 0.816109)
(-0.0439722 0 0.787173)
(0.06506 0 0.839077)
(0.0413238 0 0.791474)
(0.182776 0 -0.189009)
(0.0916873 0 0.814903)
(0.036032 0 -1.21106)
(0.252648 0 -1.1998)
(-0.197922 0 -0.174657)
(-0.221041 0 -1.11928)
(-0.108568 0 0.764052)
(-0.145059 0 0.800084)
(-0.0510837 0 0.649653)
(-0.0883048 0 0.670667)
(-0.00612113 0 0.598395)
(-0.0265145 0 0.586722)
(0.0385426 0 0.622933)
(0.00959529 0 0.572295)
(0.0931744 0 0.714117)
(0.0724986 0 0.632742)
(0.194546 0 -0.209916)
(0.114084 0 0.734873)
(0.0130003 0 -1.1924)
(0.253229 0 -1.14569)
(-0.20564 0 -0.230811)
(-0.239544 0 -1.13039)
(-0.109812 0 0.642958)
(-0.142254 0 0.693205)
(-0.0423587 0 0.492058)
(-0.0894279 0 0.529029)
(0.0278395 0 0.275942)
(-0.0306388 0 0.400021)
(0.1531 0 -0.588019)
(0.0858234 0 0.104923)
(-0.0444756 0 -1.27418)
(0.142834 0 -1.20841)
(-0.24545 0 -0.726898)
(-0.238981 0 -1.17569)
(-0.127067 0 -0.179999)
(-0.184338 0 -0.274042)
(-0.0632906 0 -0.158243)
(-0.0790847 0 -0.174287)
(-0.0302815 0 -0.190637)
(-0.0382556 0 -0.196414)
(-0.01476 0 -0.208589)
(-0.0190162 0 -0.214953)
(-0.00761757 0 -0.209378)
(-0.00935882 0 -0.217435)
(-0.00423559 0 -0.199913)
(-0.00491317 0 -0.208865)
(-0.00251973 0 -0.185735)
(-0.00265169 0 -0.194812)
(-0.00154766 0 -0.16998)
(-0.00138642 0 -0.178767)
(-0.000921676 0 -0.154178)
(-0.000601034 0 -0.162489)
(-0.00046772 0 -0.139008)
(-5.68178e-05 0 -0.146777)
(-0.000108897 0 -0.124745)
(0.000357149 0 -0.13196)
(0.000190565 0 -0.111473)
(0.000693712 0 -0.118151)
(0.000448189 0 -0.0991878)
(0.00097988 0 -0.105358)
(0.000673339 0 -0.0878476)
(0.00122934 0 -0.0935425)
(0.000871523 0 -0.0773952)
(0.00144921 0 -0.0826481)
(0.00104629 0 -0.0677695)
(0.00164342 0 -0.0726123)
(0.00120007 0 -0.0589113)
(0.00181479 0 -0.0633728)
(0.00133484 0 -0.0507662)
(0.0019656 0 -0.0548717)
(0.00145231 0 -0.043287)
(0.00209775 0 -0.0470578)
(0.0015541 0 -0.0364354)
(0.00221293 0 -0.0398879)
(0.00164173 0 -0.0301832)
(0.00231272 0 -0.0333286)
(0.00171667 0 -0.0245117)
(0.00239856 0 -0.0273569)
(0.00178049 0 -0.0194117)
(0.00247187 0 -0.0219591)
(0.00183556 0 -0.0148867)
(0.0025347 0 -0.0171324)
(0.00188642 0 -0.0109559)
(0.00258704 0 -0.0128909)
(0.00193676 0 -0.00744277)
(0.00263833 0 -0.00926137)
(0.00270516 0 -0.0058572)
(-0.000727915 0 -0.002901)
(-0.000971715 0 -0.00165971)
(-0.000718882 0 -0.0055094)
(-0.00096866 0 -0.00422718)
(-0.00070611 0 -0.00822628)
(-0.000953704 0 -0.00689314)
(-0.000688975 0 -0.0110571)
(-0.000936798 0 -0.00967567)
(-0.000666942 0 -0.0140091)
(-0.000915489 0 -0.0125692)
(-0.000639543 0 -0.0171058)
(-0.000888578 0 -0.0155952)
(-0.000606383 0 -0.020373)
(-0.000855722 0 -0.0187787)
(-0.000567124 0 -0.0238375)
(-0.000816474 0 -0.0221464)
(-0.000521418 0 -0.0275256)
(-0.000770483 0 -0.0257249)
(-0.00046884 0 -0.0314622)
(-0.000717342 0 -0.0295399)
(-0.000408832 0 -0.0356713)
(-0.000656522 0 -0.0336158)
(-0.000340684 0 -0.0401773)
(-0.000587339 0 -0.0379765)
(-0.000263526 0 -0.0450062)
(-0.000508947 0 -0.0426472)
(-0.000176322 0 -0.0501864)
(-0.000420331 0 -0.0476547)
(-7.78542e-05 0 -0.0557495)
(-0.000320307 0 -0.0530293)
(3.32894e-05 0 -0.0617311)
(-0.000207524 0 -0.0588044)
(0.000158764 0 -0.0681708)
(-8.04105e-05 0 -0.0650177)
(0.000300528 0 -0.0751128)
(6.28685e-05 0 -0.0717111)
(0.000460914 0 -0.0826064)
(0.000224494 0 -0.0789314)
(0.00064274 0 -0.090707)
(0.000407091 0 -0.086731)
(0.000849467 0 -0.0994768)
(0.000613838 0 -0.0951688)
(0.00108545 0 -0.108987)
(0.000848631 0 -0.104311)
(0.00135629 0 -0.119318)
(0.00111634 0 -0.114234)
(0.00166948 0 -0.130569)
(0.00142324 0 -0.125027)
(0.00203514 0 -0.142857)
(0.00177772 0 -0.136796)
(0.00246732 0 -0.156341)
(0.00219124 0 -0.149677)
(0.00298535 0 -0.171238)
(0.00267941 0 -0.163852)
(0.00361466 0 -0.187872)
(0.00326298 0 -0.179582)
(0.00438372 0 -0.206715)
(0.0039665 0 -0.197255)
(0.0053113 0 -0.228377)
(0.00481562 0 -0.217423)
(0.00657441 0 -0.257667)
(0.00587876 0 -0.242729)
(0.00797354 0 -0.290252)
(0.00713576 0 -0.273536)
(0.00942758 0 -0.32695)
(0.00844031 0 -0.307935)
(0.0106541 0 -0.368724)
(0.00959343 0 -0.346825)
(0.010993 0 -0.415468)
(0.010157 0 -0.391068)
(0.00938918 0 -0.461049)
(0.00889912 0 -0.439431)
(0.00711461 0 -0.481937)
(0.00582371 0 -0.481555)
(0.0221016 0 -0.444224)
(0.00292646 0 -0.486666)
(0.0800212 0 -0.395727)
(0.0268965 0 -0.424015)
(0.243683 0 -0.843945)
(0.143155 0 -0.428038)
(0.110985 0 -1.29882)
(0.274874 0 -1.25809)
(-0.0999361 0 -0.516253)
(-0.0930996 0 -1.22417)
(0.0114266 0 0.372601)
(-0.0596489 0 0.230838)
(0.0957685 0 0.533515)
(0.0688893 0 0.456739)
(0.2127 0 -0.263446)
(0.141775 0 0.549926)
(0.0212413 0 -1.16445)
(0.232546 0 -1.04937)
(-0.160084 0 -0.287442)
(-0.180939 0 -1.16032)
(-0.0530656 0 0.65202)
(-0.092906 0 0.611861)
(0.0170561 0 0.68097)
(-0.0159413 0 0.637295)
(0.0885993 0 0.730386)
(0.0604752 0 0.676703)
(0.185226 0 -0.145028)
(0.129818 0 0.729214)
(-0.00271768 0 -1.10145)
(0.209435 0 -0.991198)
(-0.171024 0 -0.185909)
(-0.207095 0 -1.09987)
(-0.0695668 0 0.773244)
(-0.104755 0 0.749782)
(-0.00203138 0 0.767525)
(-0.0422799 0 0.742149)
(0.0625444 0 0.772566)
(0.0342389 0 0.748424)
(0.172691 0 -0.185901)
(0.096157 0 0.741471)
(0.0135534 0 -1.09259)
(0.21452 0 -1.09371)
(-0.208086 0 -0.1343)
(-0.218888 0 -0.971518)
(-0.121723 0 0.710373)
(-0.162339 0 0.742508)
(-0.0607063 0 0.611353)
(-0.0933426 0 0.629989)
(-0.00993995 0 0.564565)
(-0.0311092 0 0.552878)
(0.0397448 0 0.586065)
(0.00630607 0 0.539172)
(0.0938296 0 0.6577)
(0.0685496 0 0.596686)
(0.188823 0 -0.190849)
(0.118618 0 0.671544)
(0.0105892 0 -1.0687)
(0.230557 0 -1.02687)
(-0.207096 0 -0.196549)
(-0.22139 0 -0.985262)
(-0.122134 0 0.584616)
(-0.157132 0 0.636564)
(-0.0594694 0 0.441448)
(-0.0955672 0 0.487252)
(0.0129676 0 0.1969)
(-0.0494419 0 0.35173)
(0.119813 0 -0.555398)
(0.0721127 0 0.0177516)
(-0.060278 0 -1.12023)
(0.103738 0 -1.05428)
(-0.21146 0 -0.71025)
(-0.200412 0 -1.03998)
(-0.114818 0 -0.267551)
(-0.164916 0 -0.365048)
(-0.0565568 0 -0.209697)
(-0.0643675 0 -0.231836)
(-0.0272357 0 -0.217628)
(-0.0332795 0 -0.226795)
(-0.0133791 0 -0.221671)
(-0.0154545 0 -0.230013)
(-0.00667724 0 -0.215628)
(-0.00696986 0 -0.225075)
(-0.00330446 0 -0.202966)
(-0.0030379 0 -0.212898)
(-0.001493 0 -0.187316)
(-0.000957238 0 -0.197084)
(-0.00042289 0 -0.170885)
(0.000235483 0 -0.180176)
(0.000274092 0 -0.154766)
(0.000991848 0 -0.163451)
(0.000774862 0 -0.139446)
(0.00152027 0 -0.147502)
(0.00116568 0 -0.12511)
(0.00192627 0 -0.132554)
(0.00148892 0 -0.111799)
(0.00225961 0 -0.118667)
(0.00176624 0 -0.0994912)
(0.00254609 0 -0.105822)
(0.00200908 0 -0.0881348)
(0.00279836 0 -0.0939684)
(0.00222378 0 -0.0776689)
(0.00302279 0 -0.0830431)
(0.00241412 0 -0.0680302)
(0.00322288 0 -0.0729795)
(0.00258263 0 -0.0591585)
(0.00340113 0 -0.0637137)
(0.00273118 0 -0.0509992)
(0.00355945 0 -0.0551869)
(0.00286134 0 -0.0435049)
(0.0036994 0 -0.0473475)
(0.00297457 0 -0.0366376)
(0.00382232 0 -0.0401522)
(0.00307232 0 -0.0303693)
(0.00392947 0 -0.0335681)
(0.00315603 0 -0.0246819)
(0.0040221 0 -0.0275722)
(0.00322734 0 -0.0195683)
(0.00410155 0 -0.0221515)
(0.00328875 0 -0.015037)
(0.00417013 0 -0.0173062)
(0.00334428 0 -0.0111101)
(0.00422711 0 -0.0130557)
(0.00339686 0 -0.00759437)
(0.00428152 0 -0.009425)
(0.00434469 0 -0.00599615)
(-0.00121114 0 -0.00292416)
(-0.00152058 0 -0.00167538)
(-0.00120045 0 -0.0055465)
(-0.00151935 0 -0.00426044)
(-0.00118477 0 -0.00827485)
(-0.00150103 0 -0.00693965)
(-0.00116412 0 -0.0111169)
(-0.00148129 0 -0.00973408)
(-0.001138 0 -0.0140804)
(-0.00145694 0 -0.0126396)
(-0.00110581 0 -0.0171886)
(-0.00142635 0 -0.0156779)
(-0.00106704 0 -0.0204672)
(-0.00138914 0 -0.0188737)
(-0.00102124 0 -0.0239426)
(-0.00134479 0 -0.0222533)
(-0.000967992 0 -0.0276412)
(-0.00129289 0 -0.0258434)
(-0.00090678 0 -0.0315881)
(-0.00123296 0 -0.0296698)
(-0.000836967 0 -0.0358075)
(-0.00116444 0 -0.033757)
(-0.000757754 0 -0.0403241)
(-0.00108657 0 -0.0381293)
(-0.000668171 0 -0.0451639)
(-0.000998461 0 -0.0428119)
(-0.000567074 0 -0.0503555)
(-0.000899033 0 -0.047832)
(-0.000453137 0 -0.0559308)
(-0.00078705 0 -0.0532197)
(-0.000324822 0 -0.0619253)
(-0.000661108 0 -0.0590089)
(-0.000180351 0 -0.0683789)
(-0.000519601 0 -0.0652372)
(-1.76492e-05 0 -0.0753359)
(-0.000360664 0 -0.0719467)
(0.000165731 0 -0.0828461)
(-0.000182103 0 -0.0791846)
(0.000372705 0 -0.090965)
(1.86824e-05 0 -0.0870034)
(0.000606808 0 -0.0997556)
(0.000244781 0 -0.0954625)
(0.000872422 0 -0.109289)
(0.000499892 0 -0.104629)
(0.00117513 0 -0.119649)
(0.000788545 0 -0.114579)
(0.00152219 0 -0.130933)
(0.00111649 0 -0.125404)
(0.00192322 0 -0.143263)
(0.00149128 0 -0.137212)
(0.0023911 0 -0.156798)
(0.00192287 0 -0.150139)
(0.00294287 0 -0.17176)
(0.00242424 0 -0.164372)
(0.00359954 0 -0.188473)
(0.00301157 0 -0.180171)
(0.0043813 0 -0.207401)
(0.00370154 0 -0.197924)
(0.00529212 0 -0.229134)
(0.00450765 0 -0.218166)
(0.00646899 0 -0.25848)
(0.00546734 0 -0.243514)
(0.00765922 0 -0.291072)
(0.00650915 0 -0.274329)
(0.00871109 0 -0.327623)
(0.00742934 0 -0.308636)
(0.00924777 0 -0.368902)
(0.00794271 0 -0.347182)
(0.00852259 0 -0.414623)
(0.00756208 0 -0.390585)
(0.00570342 0 -0.459345)
(0.00512089 0 -0.437551)
(0.0017262 0 -0.48563)
(0.000391544 0 -0.478903)
(0.0129995 0 -0.467203)
(-0.00201235 0 -0.494181)
(0.0661321 0 -0.461887)
(0.0133357 0 -0.459437)
(0.201226 0 -0.852539)
(0.124247 0 -0.5181)
(0.0932461 0 -1.19406)
(0.22715 0 -1.18611)
(-0.089929 0 -0.484938)
(-0.0896754 0 -1.10206)
(0.0115259 0 0.310402)
(-0.0558085 0 0.163201)
(0.0920295 0 0.469183)
(0.0633227 0 0.40307)
(0.192523 0 -0.241457)
(0.13502 0 0.48293)
(0.0239284 0 -1.05113)
(0.204451 0 -0.936976)
(-0.13589 0 -0.265917)
(-0.151445 0 -1.05377)
(-0.0417404 0 0.594954)
(-0.0815224 0 0.549095)
(0.0246308 0 0.632898)
(-0.0022361 0 0.593048)
(0.0927624 0 0.674747)
(0.061667 0 0.631282)
(0.177057 0 -0.118196)
(0.133342 0 0.673018)
(0.00238575 0 -0.990836)
(0.190882 0 -0.87475)
(-0.156306 0 -0.165925)
(-0.179726 0 -0.994071)
(-0.0672253 0 0.717852)
(-0.103682 0 0.690395)
(-0.00454774 0 0.723046)
(-0.0360881 0 0.700364)
(0.0551322 0 0.715902)
(0.0234928 0 0.708637)
(0.149136 0 -0.17044)
(0.091842 0 0.678802)
(-0.00566767 0 -0.975099)
(0.169576 0 -0.990507)
(-0.203123 0 -0.0952752)
(-0.210079 0 -0.839881)
(-0.125205 0 0.661343)
(-0.164817 0 0.690563)
(-0.0649839 0 0.572419)
(-0.0918423 0 0.589841)
(-0.0140064 0 0.529104)
(-0.0344471 0 0.518893)
(0.0357596 0 0.55042)
(0.00244439 0 0.505994)
(0.0862174 0 0.609215)
(0.0576765 0 0.563047)
(0.16977 0 -0.166903)
(0.112664 0 0.615842)
(0.00706952 0 -0.946423)
(0.199604 0 -0.918401)
(-0.195213 0 -0.155134)
(-0.197541 0 -0.850406)
(-0.125908 0 0.537458)
(-0.160308 0 0.59036)
(-0.0701395 0 0.396204)
(-0.0947127 0 0.450074)
(0.00349552 0 0.134031)
(-0.0607521 0 0.30264)
(0.0910374 0 -0.518555)
(0.0620687 0 -0.0536701)
(-0.0547034 0 -0.990687)
(0.0793234 0 -0.929557)
(-0.167355 0 -0.692381)
(-0.155107 0 -0.938846)
(-0.0954752 0 -0.332649)
(-0.135192 0 -0.432735)
(-0.0454527 0 -0.250995)
(-0.049981 0 -0.281247)
(-0.0207058 0 -0.239534)
(-0.0264568 0 -0.252437)
(-0.00908099 0 -0.232849)
(-0.010281 0 -0.242648)
(-0.00352331 0 -0.221434)
(-0.00335685 0 -0.231411)
(-0.000759155 0 -0.206101)
(-0.000119736 0 -0.216204)
(0.000737076 0 -0.189128)
(0.00159502 0 -0.198961)
(0.00162635 0 -0.172034)
(0.00256538 0 -0.181346)
(0.00222291 0 -0.155577)
(0.00318689 0 -0.164274)
(0.00266437 0 -0.140077)
(0.00362973 0 -0.148141)
(0.00301791 0 -0.125641)
(0.00398006 0 -0.133091)
(0.00331715 0 -0.112271)
(0.00427657 0 -0.119143)
(0.00357911 0 -0.0999236)
(0.00453822 0 -0.10626)
(0.00381259 0 -0.0885377)
(0.0047735 0 -0.0943778)
(0.00402225 0 -0.0780468)
(0.00498648 0 -0.0834287)
(0.00421068 0 -0.0683848)
(0.00517942 0 -0.073343)
(0.00437952 0 -0.05949)
(0.00535382 0 -0.0640552)
(0.00452997 0 -0.0513072)
(0.00551076 0 -0.055506)
(0.00466306 0 -0.043789)
(0.00565108 0 -0.0476436)
(0.00477986 0 -0.0368975)
(0.00577555 0 -0.0404249)
(0.00488154 0 -0.030605)
(0.005885 0 -0.0338172)
(0.00496939 0 -0.0248943)
(0.00598041 0 -0.027798)
(0.00504495 0 -0.0197599)
(0.00606292 0 -0.0223553)
(0.00511038 0 -0.0152135)
(0.00613487 0 -0.0174912)
(0.00516836 0 -0.0112776)
(0.00619485 0 -0.0132277)
(0.00522008 0 -0.00774178)
(0.00625123 0 -0.00958583)
(0.00630824 0 -0.00612316)
(-0.00182702 0 -0.00294965)
(-0.00220305 0 -0.00169191)
(-0.00181536 0 -0.005589)
(-0.00220366 0 -0.00429672)
(-0.00179796 0 -0.00833114)
(-0.00218289 0 -0.00699127)
(-0.00177504 0 -0.011186)
(-0.00216137 0 -0.0097989)
(-0.0017462 0 -0.0141626)
(-0.00213508 0 -0.0127174)
(-0.00171079 0 -0.017284)
(-0.00210212 0 -0.0157689)
(-0.00166819 0 -0.0205758)
(-0.00206212 0 -0.018978)
(-0.00161792 0 -0.0240641)
(-0.00201451 0 -0.0223707)
(-0.00155951 0 -0.0277754)
(-0.00195885 0 -0.0259734)
(-0.00149244 0 -0.0317347)
(-0.00189466 0 -0.0298121)
(-0.00141605 0 -0.0359668)
(-0.00182137 0 -0.0339116)
(-0.00132951 0 -0.0404963)
(-0.00173822 0 -0.0382963)
(-0.00123185 0 -0.0453495)
(-0.00164434 0 -0.0429916)
(-0.0011219 0 -0.0505552)
(-0.00153868 0 -0.0480248)
(-0.000998346 0 -0.0561453)
(-0.00142005 0 -0.0534263)
(-0.000859656 0 -0.0621555)
(-0.00128711 0 -0.0592299)
(-0.000704098 0 -0.068626)
(-0.00113836 0 -0.0654735)
(-0.000529678 0 -0.0756011)
(-0.000972084 0 -0.0721993)
(-0.000334093 0 -0.0831309)
(-0.000786281 0 -0.0794546)
(-0.000114665 0 -0.0912713)
(-0.000578641 0 -0.0872922)
(0.000131793 0 -0.100086)
(-0.000346507 0 -0.0957717)
(0.000409156 0 -0.109646)
(-8.68234e-05 0 -0.104961)
(0.000722249 0 -0.120036)
(0.000204037 0 -0.114936)
(0.00107717 0 -0.131356)
(0.000530569 0 -0.12579)
(0.00148171 0 -0.143728)
(0.000898524 0 -0.137631)
(0.00194587 0 -0.157314)
(0.00131514 0 -0.150598)
(0.00248191 0 -0.172338)
(0.00178892 0 -0.164876)
(0.00310326 0 -0.18912)
(0.00232921 0 -0.180729)
(0.00381766 0 -0.208115)
(0.00294213 0 -0.198535)
(0.00461009 0 -0.229888)
(0.00362622 0 -0.218813)
(0.00555057 0 -0.259231)
(0.00437744 0 -0.244141)
(0.00635083 0 -0.291731)
(0.00506947 0 -0.274863)
(0.00678952 0 -0.327995)
(0.005458 0 -0.308928)
(0.00642403 0 -0.368609)
(0.00519416 0 -0.346939)
(0.00446279 0 -0.413191)
(0.00376132 0 -0.389277)
(0.000305151 0 -0.456947)
(0.000293008 0 -0.434779)
(-0.00421144 0 -0.487481)
(-0.00608175 0 -0.475892)
(0.00349737 0 -0.486835)
(-0.00725593 0 -0.499321)
(0.0524587 0 -0.517359)
(0.00184812 0 -0.492078)
(0.160898 0 -0.857659)
(0.105276 0 -0.590393)
(0.067892 0 -1.10284)
(0.178699 0 -1.1241)
(-0.0866853 0 -0.459093)
(-0.0934924 0 -0.999005)
(0.00787892 0 0.253755)
(-0.0553498 0 0.100158)
(0.0835409 0 0.414163)
(0.0539467 0 0.352628)
(0.169237 0 -0.218459)
(0.123373 0 0.425799)
(0.0242118 0 -0.948445)
(0.176332 0 -0.840292)
(-0.112954 0 -0.24475)
(-0.127582 0 -0.962327)
(-0.028373 0 0.545327)
(-0.0665132 0 0.492708)
(0.0315639 0 0.590426)
(0.0111905 0 0.55309)
(0.0926657 0 0.627817)
(0.0615053 0 0.590548)
(0.163788 0 -0.0880402)
(0.130445 0 0.625603)
(0.00674249 0 -0.884637)
(0.172105 0 -0.770053)
(-0.136698 0 -0.142332)
(-0.151865 0 -0.898444)
(-0.0607573 0 0.671249)
(-0.096481 0 0.639769)
(-0.00630801 0 0.684965)
(-0.0278169 0 0.664065)
(0.0456644 0 0.669516)
(0.0131845 0 0.673989)
(0.122166 0 -0.147357)
(0.0830857 0 0.627801)
(-0.0240801 0 -0.863373)
(0.128616 0 -0.89301)
(-0.190005 0 -0.0585933)
(-0.197028 0 -0.729264)
(-0.120946 0 0.617769)
(-0.156664 0 0.644523)
(-0.0653127 0 0.536136)
(-0.0865228 0 0.552752)
(-0.0177015 0 0.495882)
(-0.0365963 0 0.487152)
(0.0286573 0 0.51825)
(-0.00111561 0 0.475088)
(0.0732355 0 0.568033)
(0.0435944 0 0.533328)
(0.14601 0 -0.141068)
(0.100157 0 0.567325)
(0.00171608 0 -0.830604)
(0.165461 0 -0.822205)
(-0.178677 0 -0.110611)
(-0.175763 0 -0.730145)
(-0.123248 0 0.500344)
(-0.155507 0 0.553408)
(-0.074509 0 0.354998)
(-0.0901249 0 0.417581)
(-0.00133265 0 0.0772932)
(-0.0647474 0 0.253856)
(0.0744367 0 -0.491295)
(0.0567305 0 -0.115488)
(-0.0384245 0 -0.887988)
(0.065708 0 -0.832969)
(-0.125123 0 -0.674897)
(-0.111644 0 -0.861015)
(-0.0756893 0 -0.381075)
(-0.104664 0 -0.479285)
(-0.0350805 0 -0.283891)
(-0.0390784 0 -0.321359)
(-0.0146158 0 -0.256527)
(-0.020203 0 -0.273641)
(-0.00477017 0 -0.24149)
(-0.00577323 0 -0.253349)
(-9.68305e-05 0 -0.225947)
(-6.37348e-05 0 -0.23674)
(0.00217579 0 -0.208588)
(0.00276638 0 -0.218922)
(0.00337353 0 -0.190626)
(0.00424893 0 -0.200464)
(0.00408754 0 -0.173036)
(0.00507 0 -0.182286)
(0.00456703 0 -0.156321)
(0.00559531 0 -0.164936)
(0.00492992 0 -0.140682)
(0.00597579 0 -0.148666)
(0.00523018 0 -0.126166)
(0.00628307 0 -0.133547)
(0.00549261 0 -0.112746)
(0.0065494 0 -0.119561)
(0.00572896 0 -0.100364)
(0.0067892 0 -0.106655)
(0.00594462 0 -0.0889517)
(0.00700853 0 -0.0947559)