/*--------------------------------*- C++ -*----------------------------------*\
  =========                 |
  \\      /  F ield         | OpenFOAM: The Open Source CFD Toolbox
   \\    /   O peration     | Website:  https://openfoam.org
    \\  /    A nd           | Version:  9
     \\/     M anipulation  |
\*---------------------------------------------------------------------------*/
FoamFile
{
    format      ascii;
    class       surfaceScalarField;
    location    "0.02";
    object      alphaPhi0.water;
}
// * * * * * * * * * * * * * * * * * * * * * * * * * * * * * * * * * * * * * //

dimensions      [0 3 -1 0 0 0 0];

internalField   nonuniform List<scalar> 
9850
(
3.036e-228
1.61755e-227
1.82187e-227
9.68372e-227
1.03372e-226
5.48322e-226
5.52534e-226
2.92585e-225
2.77096e-225
1.46538e-224
1.29798e-224
6.85795e-224
5.65095e-224
2.98431e-223
2.27394e-223
1.20089e-222
8.40519e-223
4.44108e-222
2.8339e-222
1.49888e-221
8.64668e-222
4.58039e-221
2.36606e-221
1.25598e-220
5.74706e-221
3.05877e-220
1.22467e-220
6.53883e-220
2.25932e-220
1.21079e-219
3.55548e-220
1.9135e-219
4.69815e-220
2.54046e-219
5.13429e-220
2.79081e-219
4.59208e-220
2.51027e-219
3.37139e-220
1.85422e-219
2.10583e-220
9.51936e-220
1.1508e-220
4.98601e-220
5.61134e-221
2.32997e-220
2.48441e-221
9.88513e-221
1.01417e-221
3.86621e-221
3.86737e-222
1.41233e-221
1.39304e-222
4.87252e-222
4.78478e-223
1.60267e-222
1.57985e-223
5.06649e-223
5.04931e-224
1.55008e-223
1.57149e-224
4.61723e-224
4.78751e-225
1.346e-224
1.43415e-225
3.85759e-225
4.24128e-226
1.09125e-225
1.24262e-226
3.05768e-226
3.61796e-227
8.51279e-227
1.04972e-227
2.36136e-227
3.04255e-228
6.54232e-228
8.82886e-229
1.81442e-228
2.56999e-229
5.04704e-229
7.51771e-230
1.41058e-229
2.21338e-230
3.96747e-230
6.56843e-231
1.12462e-230
1.96726e-231
3.2169e-231
5.95331e-232
9.29636e-232
1.82221e-232
2.71698e-232
5.64622e-233
8.03785e-233
1.77155e-233
2.40762e-233
5.60278e-234
7.26843e-234
2.10104e-234
1.37144e-225
7.30401e-225
8.24825e-225
4.38268e-224
4.69112e-224
2.48765e-223
2.51378e-223
1.33085e-222
1.26403e-222
6.6837e-222
5.93781e-222
3.1371e-221
2.59292e-221
1.36939e-220
1.04676e-220
5.52873e-220
3.88254e-220
2.05187e-219
1.31392e-219
6.9516e-219
4.02515e-219
2.13308e-218
1.10626e-218
5.87523e-218
2.6999e-218
1.43778e-217
5.7833e-218
3.08979e-217
1.07295e-217
5.75399e-217
1.69873e-217
9.149e-217
2.25902e-217
1.22247e-216
2.48487e-217
1.35174e-216
2.2367e-217
1.22365e-216
1.65193e-217
9.09239e-217
1.03688e-217
4.69068e-217
5.69213e-218
2.46797e-217
2.78734e-218
1.15815e-217
1.23906e-218
4.9332e-218
5.07755e-219
1.93679e-218
1.94343e-219
7.10104e-219
7.02554e-220
2.45856e-219
2.42158e-220
8.11468e-220
8.02306e-221
2.57397e-220
2.57286e-221
7.9011e-221
8.03394e-222
2.36117e-221
2.45548e-222
6.90529e-222
7.37919e-223
1.98528e-222
2.18915e-223
5.6335e-223
6.4337e-224
1.58335e-223
1.87893e-224
4.42145e-224
5.46796e-225
1.23011e-224
1.58953e-225
3.41809e-225
4.62591e-226
9.50691e-226
1.3504e-226
2.65196e-226
3.96125e-227
7.4325e-227
1.16948e-227
2.09621e-227
3.47991e-228
5.95785e-228
1.04499e-228
1.70868e-228
3.17049e-229
4.95052e-229
9.72875e-230
1.45049e-229
3.02191e-230
4.30159e-230
9.50421e-231
1.29154e-230
3.01274e-231
3.90794e-231
1.13187e-231
5.20757e-223
2.77264e-222
3.14102e-222
1.66856e-221
1.79187e-221
9.50023e-221
9.63275e-221
5.0991e-220
4.86021e-220
2.56971e-219
2.29134e-219
1.21057e-218
1.00441e-218
5.30491e-218
4.07135e-218
2.15069e-217
1.5167e-217
8.01729e-217
5.15682e-217
2.72912e-216
1.58774e-216
8.41709e-216
4.38749e-216
2.33114e-215
1.07711e-215
5.73871e-215
2.32192e-215
1.24118e-214
4.33731e-215
2.32734e-214
6.91714e-215
3.72767e-214
9.26876e-215
5.01891e-214
1.02742e-214
5.59255e-214
9.31772e-215
5.10066e-214
6.92956e-215
3.81633e-214
4.37441e-215
1.98002e-214
2.41414e-215
1.04725e-214
1.188e-215
4.93856e-215
5.30568e-216
2.11331e-215
2.18386e-216
8.33337e-216
8.39437e-217
3.06822e-216
3.04708e-217
1.06662e-216
1.05448e-217
3.53439e-217
3.50727e-218
1.12542e-217
1.12901e-218
3.46763e-218
3.53856e-219
1.04009e-218
1.08547e-219
3.05276e-219
3.27376e-220
8.80789e-220
9.74631e-221
2.50807e-220
2.87425e-221
7.07329e-221
8.42261e-222
1.98184e-221
2.45927e-222
5.532e-222
7.17245e-223
1.54216e-222
2.09405e-223
4.30294e-223
6.13218e-224
1.20406e-223
1.80435e-224
3.38488e-224
5.34306e-225
9.57513e-225
1.59457e-225
2.72944e-225
4.80219e-226
7.85037e-226
1.46109e-226
2.28087e-226
4.49575e-227
6.70121e-227
1.40021e-227
1.99264e-227
4.41535e-228
5.99842e-228
1.40314e-228
1.81952e-228
5.28129e-229
1.93999e-220
1.03267e-219
1.17353e-219
6.23287e-219
6.7153e-219
3.55988e-218
3.62182e-218
1.91706e-217
1.83374e-217
9.69519e-217
8.67716e-217
4.58449e-216
3.81868e-216
2.01706e-215
1.55443e-215
8.21256e-215
5.81699e-215
3.07553e-214
1.98746e-214
1.0521e-213
6.15151e-214
3.26217e-213
1.70958e-213
9.0867e-213
4.22287e-213
2.25084e-212
9.16403e-213
4.90084e-212
1.72412e-212
9.25584e-212
2.77063e-212
1.49384e-211
3.74217e-212
2.02735e-211
4.18171e-212
2.27733e-211
3.82242e-212
2.09342e-211
2.86367e-212
1.57779e-211
1.81886e-212
8.23604e-212
1.00954e-212
4.3809e-212
4.99473e-213
2.07696e-212
2.24208e-213
8.93273e-213
9.27377e-214
3.5395e-213
3.58149e-214
1.30928e-213
1.306e-214
4.5721e-214
4.53966e-215
1.52169e-214
1.51648e-215
4.8662e-215
4.90236e-216
1.50567e-215
1.5429e-216
4.53474e-216
4.75223e-217
1.33637e-216
1.439e-217
3.871e-217
4.30088e-218
1.10657e-217
1.27325e-218
3.13271e-218
3.74522e-219
8.81042e-219
1.09761e-219
2.46836e-219
3.21284e-220
6.90599e-220
9.41362e-221
1.93376e-220
2.76633e-221
5.42995e-221
8.16766e-222
1.5317e-221
2.42675e-222
4.34737e-222
7.26615e-223
1.2433e-222
2.1953e-223
3.58743e-223
6.70031e-224
1.04557e-223
2.06801e-224
3.08131e-224
6.46015e-225
9.18982e-225
2.04306e-225
2.77446e-225
6.5107e-226
8.43936e-226
2.4555e-226
7.19271e-218
3.82822e-217
4.36304e-217
2.31706e-216
2.50406e-216
1.32735e-215
1.35482e-215
7.17094e-215
6.88278e-215
3.63905e-214
3.26874e-214
1.72711e-213
1.44414e-213
7.62893e-213
5.90331e-213
3.11939e-212
2.21917e-212
1.17355e-211
7.61942e-212
4.03448e-211
2.3709e-211
1.25765e-210
6.62713e-211
3.52354e-210
1.64726e-210
8.78308e-210
3.59899e-210
1.92539e-209
6.82063e-210
3.66297e-209
1.1046e-209
5.95783e-209
1.50408e-209
8.15134e-209
1.69468e-209
9.2322e-209
1.56171e-209
8.55555e-209
1.17896e-209
6.49738e-209
7.53682e-210
3.4135e-209
4.20885e-210
1.82673e-209
2.09442e-210
8.7102e-210
9.45373e-211
3.76672e-210
3.93115e-211
1.50041e-210
1.52604e-211
5.57849e-211
5.59268e-212
1.95775e-211
1.95356e-212
6.54745e-212
6.55717e-213
2.10374e-212
2.1297e-213
6.53955e-213
6.7336e-214
1.97856e-213
2.08337e-214
5.85687e-214
6.33655e-215
1.70401e-214
1.90212e-215
4.89219e-215
5.65521e-216
1.39087e-215
1.67045e-216
3.92801e-216
4.91576e-217
1.105e-216
1.44473e-217
3.10403e-217
4.24988e-218
8.72601e-218
1.25375e-218
2.45974e-218
3.71585e-219
6.96491e-219
1.10817e-219
1.98419e-219
3.3302e-220
5.69528e-220
1.00975e-220
1.6492e-220
3.09264e-221
4.82345e-221
9.57788e-222
1.42634e-221
3.00199e-222
4.26818e-222
9.52485e-223
1.29279e-222
3.04478e-223
3.94469e-223
1.15086e-223
2.65352e-215
1.41222e-214
1.61382e-214
8.57017e-214
9.28824e-214
4.92349e-213
5.04069e-213
2.66807e-212
2.56921e-212
1.35847e-211
1.22449e-211
6.47047e-211
5.43069e-211
2.86921e-210
2.22919e-210
1.17812e-209
8.41795e-210
4.45241e-209
2.90449e-209
1.53825e-208
9.08621e-209
4.82092e-208
2.55459e-208
1.35857e-207
6.39003e-208
3.40799e-207
1.40572e-207
7.52227e-207
2.6838e-207
1.44167e-206
4.38075e-207
2.36337e-206
6.01448e-207
3.2602e-206
6.83405e-207
3.72364e-206
6.35057e-207
3.47948e-206
4.83228e-207
2.6633e-206
3.11032e-207
1.40872e-206
1.74822e-207
7.58738e-207
8.7536e-208
3.6401e-207
3.97479e-208
1.58348e-207
1.6624e-208
6.34369e-208
6.48958e-209
2.37171e-208
2.39137e-209
8.36867e-209
8.39803e-210
2.81369e-209
2.83364e-210
9.08772e-210
9.25087e-211
2.8394e-210
2.93971e-211
8.63388e-211
9.14069e-212
2.56839e-211
2.79372e-212
7.50882e-212
8.42653e-213
2.16606e-212
2.51712e-213
6.1871e-213
7.46958e-214
1.75538e-213
2.20813e-214
4.96049e-214
6.51863e-215
1.39963e-214
1.92595e-215
3.95182e-215
5.70613e-216
1.11874e-215
1.6983e-216
3.18109e-216
5.0857e-217
9.09976e-217
1.53451e-217
2.62248e-217
4.67119e-218
7.62402e-218
1.43623e-218
2.23846e-218
4.46486e-219
6.64441e-219
1.40461e-219
1.99566e-219
4.47271e-220
6.06651e-220
1.43474e-220
1.85752e-220
5.43578e-221
9.72853e-213
5.17774e-212
5.93123e-212
3.14992e-211
3.42284e-211
1.81448e-210
1.86298e-210
9.86167e-210
9.52569e-210
5.0372e-209
4.55572e-209
2.40762e-208
2.02812e-208
1.07167e-207
8.35937e-208
4.41855e-207
3.17091e-207
1.67743e-206
1.09946e-206
5.82385e-206
3.45796e-206
1.83503e-205
9.77911e-206
5.20158e-205
2.46179e-205
1.31316e-204
5.45324e-205
2.91856e-204
1.04894e-204
5.63533e-204
1.72588e-204
9.31181e-204
2.38944e-204
1.29528e-203
2.73847e-204
1.4921e-203
2.5666e-204
1.40616e-203
1.96904e-204
1.0851e-203
1.2765e-204
5.78045e-204
7.22427e-205
3.13463e-204
3.64127e-205
1.51374e-204
1.664e-205
6.62675e-205
7.00281e-206
2.67118e-205
2.75033e-206
1.00469e-205
1.01951e-206
3.566e-206
3.6012e-207
1.20589e-206
1.22206e-207
3.91693e-207
4.01206e-208
1.23066e-207
1.28199e-208
3.76266e-208
4.00787e-209
1.12536e-208
1.2315e-209
3.30753e-209
3.73402e-210
9.59111e-210
1.12117e-210
2.75368e-210
3.34398e-211
7.85217e-211
9.9347e-212
2.22996e-211
2.94721e-212
6.32274e-212
8.74951e-213
1.79378e-212
2.60452e-213
5.10202e-213
7.78771e-214
1.45745e-213
2.34269e-214
4.18808e-214
7.10012e-215
1.21235e-214
2.17078e-215
3.5399e-215
6.70299e-216
1.04378e-215
2.09252e-216
3.11126e-216
6.6099e-217
9.38308e-217
2.11324e-217
2.86378e-217
6.80493e-218
8.80259e-218
2.58471e-218
3.54003e-210
1.88428e-209
2.16323e-209
1.14896e-208
1.25154e-208
6.63533e-208
6.83088e-208
3.61638e-207
3.50344e-207
1.85288e-206
1.68119e-206
8.88606e-206
7.51208e-206
3.96999e-205
3.10888e-205
1.64352e-204
1.18454e-204
6.26719e-204
4.12734e-204
2.18656e-203
1.30509e-203
6.92657e-203
3.71255e-203
1.97494e-202
9.40612e-203
5.01778e-202
2.09819e-202
1.12299e-201
4.06642e-202
2.18465e-201
6.74481e-202
3.63893e-201
9.41755e-202
5.10461e-201
1.08879e-201
5.93147e-201
1.02943e-201
5.63861e-201
7.96471e-202
4.38787e-201
5.20233e-202
2.35494e-201
2.96568e-202
1.28626e-201
1.50535e-202
6.25491e-202
6.92647e-203
2.75688e-202
2.93451e-203
1.11867e-202
1.1601e-203
4.235e-203
4.32809e-204
1.51278e-203
1.5385e-204
5.14787e-204
5.2535e-205
1.68249e-204
1.73533e-205
5.31847e-205
5.57853e-206
1.63587e-205
1.7544e-206
4.92165e-206
5.42234e-207
1.45496e-206
1.65359e-207
4.24329e-207
4.99322e-208
1.22517e-207
1.49759e-208
3.51303e-208
4.47363e-209
1.00314e-208
1.33429e-209
2.85955e-209
3.98217e-210
8.15551e-210
1.19157e-210
2.33171e-210
3.58106e-211
6.69478e-211
1.08265e-211
1.93342e-211
3.29737e-212
5.62427e-212
1.01299e-212
1.65013e-212
3.14273e-213
4.88861e-213
9.8563e-214
1.46393e-213
3.12757e-214
4.43504e-214
1.00435e-214
1.35962e-214
3.24798e-215
4.19706e-215
1.23705e-215
1.27695e-207
6.79817e-207
7.81995e-207
4.15417e-206
4.53507e-206
2.4048e-205
2.48184e-205
1.31415e-204
1.27666e-204
6.75304e-204
6.14638e-204
3.24923e-203
2.75636e-203
1.4569e-202
1.1453e-202
6.05545e-202
4.38311e-202
2.31929e-201
1.53467e-201
8.13104e-201
4.87878e-201
2.5895e-200
1.39602e-200
7.42652e-200
3.55975e-200
1.89896e-199
7.99633e-200
4.27954e-199
1.5615e-199
8.38807e-199
2.61105e-199
1.40845e-198
3.67699e-199
1.99255e-198
4.28882e-199
2.3357e-198
4.09137e-199
2.24012e-198
3.19324e-199
1.75834e-198
2.10217e-199
9.51058e-199
1.20758e-199
5.23417e-199
6.17538e-200
2.56417e-199
2.86223e-200
1.13836e-199
1.22132e-200
4.65204e-200
4.8623e-201
1.77346e-200
1.8266e-201
6.37858e-201
6.53736e-202
2.1853e-201
2.24732e-202
7.18999e-202
7.47253e-203
2.28778e-202
2.41786e-203
7.08253e-203
7.65285e-204
2.14447e-203
2.38026e-204
6.37955e-204
7.30408e-205
1.87211e-204
2.21909e-205
5.43843e-205
6.69575e-206
1.56879e-205
2.01205e-206
4.50617e-206
6.03611e-207
1.29202e-206
1.81179e-207
3.70596e-207
5.45188e-208
1.06552e-207
1.64754e-208
3.07621e-208
5.008e-209
8.93215e-209
1.53339e-209
2.61219e-209
4.7354e-210
7.70408e-210
1.47665e-210
2.2941e-210
4.65442e-211
6.90442e-211
1.48421e-211
2.10207e-211
4.78924e-212
6.47532e-212
1.55602e-212
2.00822e-212
5.94358e-213
4.53571e-205
2.4153e-204
2.78196e-204
1.47821e-203
1.61621e-203
8.57217e-203
8.86235e-203
4.69369e-202
4.56897e-202
2.41729e-201
2.20517e-201
1.16595e-200
9.91654e-201
5.24228e-200
4.13308e-200
2.18553e-199
1.58712e-199
8.39889e-199
5.57782e-199
2.95541e-198
1.78051e-198
9.45041e-198
5.1178e-198
2.72243e-197
1.31146e-197
6.99529e-197
2.96191e-197
1.58491e-196
5.81817e-197
3.12466e-196
9.79171e-197
5.28018e-196
1.38866e-196
7.52213e-196
1.63225e-196
8.88499e-196
1.57022e-196
8.5924e-196
1.2365e-196
6.8042e-196
8.21054e-197
3.71181e-196
4.75794e-197
2.0606e-196
2.45457e-197
1.01829e-196
1.14762e-197
4.55995e-197
4.93937e-198
1.87949e-197
1.98324e-198
7.22581e-198
7.51297e-199
2.6206e-198
2.71108e-199
9.05188e-199
9.39536e-200
3.00225e-199
3.14891e-200
9.62852e-200
1.02684e-200
3.00398e-200
3.27497e-201
9.16492e-201
1.02626e-201
2.74685e-201
3.17235e-202
8.11989e-202
9.70756e-203
2.37576e-202
2.9498e-203
6.90153e-203
8.92536e-204
1.99607e-203
2.69574e-204
5.76189e-204
8.14522e-205
1.66367e-204
2.46691e-205
4.81435e-205
7.50236e-206
1.39877e-205
2.29469e-206
4.08679e-206
7.0689e-207
1.20246e-206
2.19605e-207
3.56759e-207
6.88803e-208
1.06856e-207
2.18354e-208
3.23441e-208
7.00197e-209
9.90248e-209
2.27176e-209
3.06714e-209
7.41986e-210
9.56251e-210
2.84342e-210
1.03321e-202
5.5037e-202
6.19199e-202
3.29114e-201
3.50794e-201
1.86109e-200
1.87164e-200
9.9151e-200
9.36587e-200
4.95627e-199
4.3758e-199
2.31408e-198
1.8992e-198
1.00415e-197
7.61515e-198
4.02725e-197
2.8035e-197
1.48368e-196
9.4116e-197
4.98677e-196
2.85927e-196
1.51754e-195
7.79477e-196
4.14595e-195
1.88906e-195
1.00742e-194
4.02848e-195
2.15504e-194
7.4763e-195
4.01372e-194
1.19349e-194
6.43297e-194
1.61949e-194
8.76767e-194
1.84733e-194
1.00493e-193
1.75768e-194
9.61096e-194
1.39721e-194
7.68198e-194
9.51382e-195
4.29696e-194
5.71678e-195
2.47334e-194
3.08112e-195
1.27681e-194
1.5119e-195
6.00038e-195
6.84586e-196
2.60172e-195
2.89414e-196
1.0531e-195
1.15405e-196
4.02004e-196
4.37909e-197
1.46007e-196
1.59342e-197
5.0844e-197
5.5973e-198
1.70898e-197
1.90929e-198
5.57712e-198
6.35695e-199
1.77624e-198
2.07532e-199
5.54604e-199
6.67004e-200
1.70454e-199
2.11801e-200
5.17515e-200
6.66606e-201
1.5571e-200
2.08538e-201
4.65612e-201
6.50104e-202
1.38725e-201
2.0242e-202
4.12761e-202
6.30801e-203
1.22901e-202
1.97107e-203
3.66884e-203
6.18602e-204
1.09989e-203
1.95286e-204
3.31642e-204
6.20981e-205
1.00714e-204
1.99143e-205
3.08424e-205
6.44774e-206
9.53505e-206
2.10965e-206
2.97864e-206
6.97695e-207
9.40424e-207
2.31983e-207
2.98485e-207
9.00928e-208
9.55952e-201
5.09413e-200
5.54456e-200
2.94808e-199
3.03728e-199
1.61192e-198
1.56562e-198
8.29635e-198
7.56337e-198
4.00342e-197
3.40919e-197
1.80327e-196
1.42685e-196
7.5452e-196
5.51523e-196
2.917e-195
1.95716e-195
1.03581e-194
6.33423e-195
3.35609e-194
1.85601e-194
9.84948e-194
4.88363e-194
2.59704e-193
1.14361e-193
6.09703e-193
2.36009e-193
1.26205e-192
4.24799e-193
2.27947e-192
6.59846e-193
3.55453e-192
8.75627e-193
4.73723e-192
9.84215e-193
5.34968e-192
9.32173e-193
5.09242e-192
7.45869e-193
4.09661e-192
5.15679e-193
2.32646e-192
3.16585e-193
1.36803e-192
1.75083e-193
7.246e-193
8.8419e-194
3.50432e-193
4.12879e-194
1.56686e-193
1.80263e-194
6.54945e-194
7.43086e-195
2.58444e-194
2.91694e-195
9.70999e-195
1.09852e-195
3.49942e-195
3.99488e-196
1.21766e-195
1.41088e-196
4.11413e-196
4.86346e-197
1.35654e-196
1.64355e-197
4.38434e-197
5.46642e-198
1.39442e-197
1.79561e-198
4.37937e-198
5.84325e-199
1.36239e-198
1.88901e-199
4.20986e-199
6.08181e-200
1.29537e-199
1.95443e-200
3.97788e-200
6.28161e-201
1.22157e-200
2.02292e-201
3.75829e-201
6.53826e-202
1.16033e-201
2.12407e-202
3.6004e-202
6.94524e-203
1.12431e-202
2.2885e-203
3.53771e-203
7.60746e-204
1.12291e-203
2.55359e-204
3.59873e-204
8.65652e-205
1.16465e-204
2.94635e-205
3.78396e-205
1.16481e-205
5.14317e-199
2.74197e-198
2.88971e-198
1.53711e-197
1.53246e-197
8.13596e-197
7.64319e-197
4.05152e-196
3.57118e-196
1.8908e-195
1.55651e-195
8.23483e-195
6.29899e-195
3.33142e-194
2.3548e-194
1.24555e-193
8.08635e-194
4.27963e-193
2.53489e-193
1.34296e-192
7.20384e-193
3.82228e-192
1.84168e-192
9.79113e-192
4.19947e-192
2.23807e-191
8.46118e-192
4.5224e-191
1.49137e-191
7.99789e-191
2.2765e-191
1.22544e-190
2.98129e-191
1.61155e-190
3.32473e-191
1.80541e-190
3.145e-191
1.71622e-190
2.53117e-191
1.38853e-190
1.7702e-191
7.97564e-191
1.10395e-191
4.76366e-191
6.22193e-192
2.57116e-191
3.21032e-192
1.27034e-191
1.53473e-192
5.81465e-192
6.87152e-193
2.49233e-192
2.90883e-193
1.00989e-192
1.17388e-193
3.90048e-193
4.54871e-194
1.44631e-193
1.7031e-194
5.18118e-194
6.19531e-195
1.80302e-194
2.2001e-195
6.12443e-195
7.65986e-196
2.03924e-195
2.62441e-196
6.68097e-196
8.87825e-197
2.1609e-196
2.97445e-197
6.92078e-197
9.89549e-198
2.20073e-197
3.27693e-198
6.965e-198
1.08255e-198
2.19871e-198
3.57465e-199
6.93697e-199
1.18197e-199
2.19132e-199
3.91994e-200
6.94206e-200
1.30585e-200
2.20884e-200
4.37557e-201
7.0684e-201
1.47652e-201
2.27771e-201
5.02321e-202
7.39907e-202
1.72449e-202
2.42523e-202
5.97452e-203
8.02142e-203
2.07579e-203
2.66039e-203
8.3328e-204
1.91673e-197
1.02239e-196
1.04454e-196
5.55879e-196
5.37053e-196
2.85245e-195
2.59613e-195
1.37666e-194
1.17548e-194
6.22558e-194
4.96499e-194
2.62736e-193
1.94765e-193
1.03023e-192
7.06158e-193
3.7354e-192
2.35394e-192
1.24577e-191
7.17234e-192
3.79935e-191
1.98465e-191
1.05279e-190
4.95133e-191
2.63141e-190
1.10475e-190
5.88494e-190
2.18486e-190
1.16709e-189
3.79315e-190
2.03272e-189
5.72411e-190
3.07868e-189
7.44e-190
4.01775e-189
8.26992e-190
4.4857e-189
7.8338e-190
4.2695e-189
6.34361e-190
3.47506e-189
4.48033e-190
2.01557e-189
2.8301e-190
1.21925e-189
1.61963e-190
6.68159e-190
8.50365e-191
3.35893e-190
4.1445e-191
1.5673e-190
1.8949e-191
6.85959e-191
8.20279e-192
2.84216e-191
3.38909e-192
1.1238e-191
1.34578e-192
4.27006e-192
5.16718e-193
1.56859e-192
1.92845e-193
5.60014e-193
7.02816e-194
1.95211e-193
2.51139e-194
6.67096e-194
8.83069e-195
2.24295e-194
3.06534e-195
7.4438e-195
1.05346e-195
2.44551e-195
3.59373e-196
7.97391e-196
1.21977e-196
2.58658e-196
4.12806e-197
8.36488e-197
1.3957e-197
2.7022e-197
4.7226e-198
8.7351e-198
1.60184e-198
2.83019e-198
5.45438e-199
9.20459e-199
1.867e-199
3.00899e-199
6.43208e-200
9.89928e-200
2.23278e-200
3.28122e-200
7.81666e-201
1.09675e-200
2.7598e-201
3.69678e-201
9.76163e-202
1.24821e-201
3.9692e-202
5.45829e-196
2.91317e-195
2.88688e-195
1.53714e-194
1.44039e-194
7.65389e-194
6.75708e-194
3.58452e-193
2.96968e-193
1.5733e-192
1.21803e-192
6.44706e-192
4.64295e-192
2.45629e-191
1.63742e-191
8.66193e-191
5.31638e-191
2.81341e-190
1.58056e-190
8.37114e-190
4.27689e-190
2.26808e-189
1.04624e-189
5.55798e-189
2.29621e-189
1.22249e-188
4.48267e-189
2.39286e-188
7.71108e-189
4.12885e-188
1.15739e-188
6.21883e-188
1.50172e-188
8.10042e-188
1.67198e-188
9.05739e-188
1.59128e-188
8.66021e-188
1.2981e-188
7.09981e-188
9.25259e-189
4.1554e-188
5.90832e-189
2.5408e-188
3.4234e-189
1.40959e-188
1.82254e-189
7.18466e-189
9.01995e-190
3.40394e-189
4.19349e-190
1.51479e-189
1.84823e-190
6.3897e-190
7.78341e-191
2.57505e-190
3.1533e-191
9.98195e-191
1.2362e-191
3.74381e-191
4.71353e-192
1.36549e-191
1.75578e-192
4.86485e-192
6.41442e-193
1.69964e-192
2.3063e-193
5.84326e-193
8.18641e-194
1.98297e-193
2.87674e-194
6.66117e-194
1.00331e-194
2.22052e-194
3.48085e-195
7.36247e-195
1.20382e-195
2.43312e-195
4.15804e-196
8.02974e-196
1.43688e-196
2.65091e-196
4.97569e-197
8.76873e-197
1.72909e-197
2.91048e-197
6.03804e-198
9.70645e-198
2.12138e-198
3.25656e-198
7.50688e-199
1.10037e-198
2.67799e-199
3.74794e-199
9.63019e-200
1.28671e-199
3.46633e-200
4.42116e-200
1.42698e-200
1.26663e-194
6.76454e-194
6.50051e-194
3.46326e-193
3.14867e-193
1.67398e-192
1.43491e-192
7.6152e-192
6.13171e-192
3.24961e-191
2.44814e-191
1.29613e-190
9.09724e-191
4.81346e-190
3.13319e-190
1.6575e-189
9.9561e-190
5.26826e-189
2.9043e-189
1.53788e-188
7.73415e-189
4.10005e-188
1.86829e-188
9.92006e-188
4.06425e-188
2.1624e-187
7.89585e-188
4.21146e-187
1.35714e-187
7.25979e-187
2.04312e-187
1.09657e-186
2.66753e-187
1.43704e-186
2.99531e-187
1.62026e-186
2.87832e-187
1.56396e-186
2.37111e-187
1.29457e-186
1.70564e-187
7.64567e-187
1.09911e-187
4.71712e-187
6.42772e-188
2.64104e-187
3.45519e-188
1.35907e-187
1.72766e-188
6.50487e-188
8.12124e-189
2.92663e-188
3.62219e-189
1.24921e-188
1.54508e-189
5.09892e-189
6.34616e-190
2.00378e-189
2.52457e-190
7.62571e-190
9.77601e-191
2.82458e-190
3.70113e-191
1.02275e-190
1.37522e-191
3.63406e-191
5.03205e-192
1.27144e-191
1.81874e-192
4.39336e-192
6.51078e-193
1.50341e-192
2.31421e-193
5.10756e-193
8.18561e-194
1.72654e-193
2.88716e-194
5.81909e-194
1.01736e-194
1.95915e-194
3.58761e-195
6.60024e-195
1.2681e-195
2.22852e-195
4.49927e-196
7.55215e-196
1.60454e-196
2.57217e-196
5.75842e-197
8.81516e-197
2.08195e-197
3.04326e-197
7.58969e-198
1.05925e-197
2.7892e-198
3.71637e-198
1.02545e-198
1.3043e-198
4.28732e-199
2.51213e-193
1.34258e-192
1.24988e-192
6.6632e-192
5.8788e-192
3.12718e-191
2.60635e-191
1.38386e-190
1.0858e-190
5.75652e-190
4.23648e-190
2.24351e-189
1.5426e-189
8.16325e-189
5.222e-189
2.76256e-188
1.63658e-188
8.65891e-188
4.72652e-188
2.50211e-187
1.25131e-187
6.63073e-187
3.0183e-187
1.60171e-186
6.58615e-187
3.50161e-186
1.2892e-186
6.87008e-186
2.24184e-186
1.19794e-185
3.42615e-186
1.83656e-185
4.55101e-186
2.44821e-185
5.20151e-186
2.80916e-185
5.08017e-186
2.75543e-185
4.2411e-186
2.31103e-185
3.08054e-186
1.378e-185
1.99993e-186
8.56427e-186
1.17625e-186
4.8218e-186
6.35103e-187
2.49207e-186
3.18736e-187
1.19707e-186
1.50335e-187
5.40353e-187
6.72843e-188
2.31428e-187
2.88127e-188
9.4825e-188
1.1889e-188
3.74343e-188
4.75578e-189
1.43245e-188
1.85382e-189
5.3408e-189
7.07339e-190
1.94891e-189
2.65212e-190
6.98765e-190
9.80517e-191
2.47008e-190
3.58538e-191
8.63491e-191
1.30024e-191
2.99335e-191
4.68801e-192
1.03153e-191
1.68427e-192
3.54172e-192
6.04205e-193
1.21407e-192
2.16835e-193
4.16293e-193
7.79839e-194
1.43032e-193
2.81517e-194
4.93224e-194
1.02157e-194
1.70952e-194
3.73152e-195
5.96362e-195
1.37368e-195
2.09648e-195
5.10198e-196
7.43514e-196
1.91339e-196
2.66233e-196
7.24257e-197
9.62104e-197
2.74299e-197
3.47844e-197
1.1733e-197
4.42395e-192
2.36617e-191
2.13185e-191
1.13729e-190
9.7473e-191
5.1881e-190
4.21679e-190
2.24005e-189
1.72101e-189
9.12765e-189
6.60626e-189
3.4994e-188
2.37733e-188
1.25822e-187
7.99205e-188
4.22797e-187
2.50021e-187
1.32262e-186
7.24634e-187
3.83486e-186
1.93568e-186
1.02524e-185
4.73601e-186
2.51161e-185
1.05337e-185
5.59574e-185
2.11046e-185
1.12352e-184
3.76829e-185
2.0112e-184
5.92394e-185
3.17107e-184
8.09453e-185
4.34756e-184
9.49679e-185
5.11982e-184
9.48086e-185
5.13227e-184
8.04537e-185
4.37465e-184
5.90426e-185
2.63509e-184
3.85695e-185
1.64767e-184
2.27451e-185
9.30027e-185
1.22778e-185
4.80493e-185
6.14588e-186
2.30187e-185
2.88637e-186
1.03452e-185
1.28491e-186
4.40668e-186
5.4701e-187
1.79491e-186
2.24406e-187
7.04436e-187
8.92951e-188
2.6813e-187
3.46583e-188
9.95372e-188
1.31846e-188
3.62123e-188
4.93658e-189
1.2965e-188
1.82586e-189
4.58482e-189
6.69267e-190
1.6066e-189
2.43822e-190
5.59483e-190
8.85161e-191
1.94129e-190
3.20983e-191
6.7275e-191
1.1652e-191
2.3336e-191
4.2428e-192
8.11868e-192
1.55256e-192
2.83819e-192
5.71923e-193
9.98711e-193
2.12423e-193
3.54298e-193
7.96636e-194
1.26897e-193
3.02041e-194
4.59453e-194
1.15902e-194
1.6835e-194
4.50439e-195
6.247e-195
1.77142e-195
2.34548e-195
6.97579e-196
8.81739e-196
3.07654e-196
7.13637e-191
3.82015e-190
3.33306e-190
1.77944e-189
1.48656e-189
7.91751e-189
6.31335e-189
3.35557e-188
2.54572e-188
1.35072e-187
9.71711e-188
5.14868e-187
3.5e-187
1.85265e-186
1.18549e-186
6.27137e-186
3.76098e-186
1.98921e-185
1.11229e-185
5.88431e-185
3.04881e-185
1.61394e-184
7.68998e-185
4.07521e-184
1.76928e-184
9.39021e-184
3.67433e-184
1.95386e-183
6.80376e-184
3.62647e-183
1.10806e-183
5.92236e-183
1.56438e-183
8.38767e-183
1.8883e-183
1.01603e-182
1.92865e-183
1.04181e-182
1.66413e-183
9.0276e-183
1.23405e-183
5.49392e-183
8.11049e-184
3.45566e-183
4.79266e-184
1.95429e-183
2.5828e-184
1.00789e-183
1.2865e-184
4.80412e-184
5.99529e-185
2.14223e-184
2.64229e-185
9.03343e-185
1.1118e-185
3.63644e-185
4.50329e-186
1.409e-185
1.76843e-186
5.29242e-186
6.77458e-187
1.93905e-186
2.54534e-187
6.96699e-187
9.42335e-188
2.46632e-187
3.45179e-188
8.63739e-188
1.25557e-188
3.00349e-188
4.55003e-189
1.04039e-188
1.64758e-189
3.6006e-189
5.97744e-190
1.24837e-189
2.17826e-190
4.34701e-190
7.99177e-191
1.5238e-190
2.95834e-191
5.38876e-191
1.10709e-191
1.92635e-191
4.19587e-192
6.97334e-192
1.61302e-192
2.56025e-192
6.29791e-193
9.54612e-193
2.49988e-193
3.61827e-193
1.00921e-193
1.3947e-193
4.13665e-194
5.45791e-194
1.69946e-194
2.14057e-194
7.74537e-195
1.08098e-189
5.79184e-189
4.91516e-189
2.62622e-188
2.15441e-188
1.14825e-187
9.07348e-188
4.82536e-187
3.65953e-187
1.94254e-186
1.40863e-186
7.46589e-186
5.15577e-186
2.72946e-185
1.78697e-185
9.45291e-185
5.83633e-185
3.08622e-184
1.78561e-184
9.44254e-184
5.08066e-184
2.68793e-183
1.33278e-183
7.05724e-183
3.19033e-183
1.6915e-182
6.88622e-183
3.65731e-182
1.32242e-182
7.0384e-182
2.22655e-182
1.18806e-181
3.2369e-182
1.73223e-181
4.00459e-182
2.15019e-181
4.17136e-182
2.24802e-181
3.65323e-182
1.9768e-181
2.73696e-182
1.2152e-181
1.81128e-182
7.69546e-182
1.07414e-182
4.36695e-182
5.78985e-183
2.25237e-182
2.87523e-183
1.07024e-182
1.33183e-183
4.74316e-183
5.81848e-184
1.98247e-183
2.42116e-184
7.89158e-184
9.67932e-185
3.01779e-184
3.74602e-185
1.11706e-184
1.41284e-185
4.02919e-185
5.2235e-186
1.42449e-185
1.90295e-186
4.96196e-186
6.86273e-187
1.71082e-186
2.46022e-187
5.86294e-187
8.8003e-188
2.0046e-187
3.15195e-188
6.86202e-188
1.13404e-188
2.35936e-188
4.11113e-189
8.1729e-189
1.50599e-189
2.86048e-189
5.58945e-190
1.01424e-189
2.10699e-190
3.65213e-190
8.08416e-191
1.33841e-190
3.16277e-191
5.00089e-191
1.26342e-191
1.90774e-191
5.15746e-192
7.43634e-192
2.15132e-192
2.96176e-192
9.14484e-193
1.202e-192
3.90045e-193
4.89429e-193
1.82872e-193
1.56722e-188
8.40541e-188
7.00345e-188
3.74529e-187
3.05234e-187
1.62805e-186
1.29177e-186
6.87399e-186
5.28417e-186
2.80623e-185
2.07932e-185
1.1024e-184
7.83059e-185
4.14606e-184
2.80626e-184
1.48441e-183
9.50832e-184
5.02671e-183
3.02322e-183
1.598e-182
8.94283e-183
4.72808e-182
2.43688e-182
1.28921e-181
6.04915e-182
3.20367e-181
1.35089e-181
7.16502e-181
2.67666e-181
1.42237e-180
4.63525e-181
2.46882e-180
6.90627e-181
3.68833e-180
8.72297e-181
4.67294e-180
9.24063e-181
4.96743e-180
8.20257e-181
4.42635e-180
6.2083e-181
2.74845e-180
4.14057e-181
1.75378e-180
2.4679e-181
1.00011e-180
1.33323e-181
5.16923e-181
6.61749e-182
2.45471e-181
3.05595e-182
1.08448e-181
1.32793e-182
4.50804e-182
5.48456e-183
1.78099e-182
2.17216e-183
6.74659e-183
8.31407e-184
2.46969e-183
3.0967e-184
8.79675e-184
1.12928e-184
3.06746e-184
4.0541e-185
1.05289e-184
1.43987e-185
3.57504e-185
5.08214e-186
1.20622e-185
1.79012e-186
4.0611e-186
6.31741e-187
1.36973e-186
2.24205e-187
4.64548e-187
8.03106e-188
1.59002e-187
2.91363e-188
5.51142e-188
1.07418e-188
1.94117e-188
4.03703e-189
6.96879e-189
1.55092e-189
2.55714e-189
6.10466e-190
9.6129e-190
2.46606e-190
3.70842e-190
1.02329e-190
1.4694e-190
4.36005e-191
5.97806e-191
1.90078e-191
2.48821e-191
8.32989e-192
1.041e-191
3.98379e-192
2.20678e-187
1.18482e-186
9.821e-187
5.257e-186
4.31371e-186
2.30269e-185
1.85773e-185
9.89213e-185
7.79021e-185
4.13915e-184
3.15886e-184
1.67528e-183
1.22988e-183
6.51272e-183
4.5643e-183
2.4142e-182
1.60212e-182
8.46753e-182
5.27445e-182
2.78656e-181
1.61372e-181
8.52558e-181
4.54199e-181
2.4006e-180
1.16289e-180
6.1513e-180
2.67449e-180
1.41646e-179
5.44821e-180
2.89021e-179
9.67955e-180
5.14538e-179
1.47554e-179
7.86273e-179
1.90036e-179
1.01553e-178
2.04569e-179
1.09672e-178
1.83994e-179
9.89964e-179
1.40714e-179
6.21e-179
9.46173e-180
3.99442e-179
5.67084e-180
2.29018e-179
3.07227e-180
1.18692e-179
1.52543e-180
5.63755e-180
7.03158e-181
2.48581e-180
3.04445e-181
1.02949e-180
1.25102e-181
4.04621e-181
4.92358e-182
1.52302e-181
1.87078e-182
5.53418e-182
6.91079e-183
1.95493e-182
2.49734e-183
6.75483e-183
8.87684e-184
2.29556e-183
3.11906e-184
7.71096e-184
1.0883e-184
2.57185e-184
3.78686e-185
8.55353e-185
1.31939e-185
2.84818e-185
4.62107e-186
9.5328e-186
1.63333e-186
3.21953e-186
5.84859e-187
1.10145e-186
2.12985e-187
3.83194e-187
7.91782e-188
1.36078e-187
3.01547e-188
4.95001e-188
1.18017e-188
1.85023e-188
4.75796e-189
7.12354e-189
1.97883e-189
2.82908e-189
8.48931e-190
1.15888e-189
3.7424e-190
4.87764e-190
1.66357e-190
2.06995e-190
8.03492e-191
3.05127e-186
1.6401e-185
1.37015e-185
7.3416e-185
6.12959e-185
3.27485e-184
2.7056e-184
1.44171e-183
1.16715e-183
6.20465e-183
4.87679e-183
2.58725e-182
1.95732e-182
1.03663e-181
7.48545e-182
3.95899e-181
2.70588e-181
1.42968e-180
9.16864e-181
4.84132e-180
2.88608e-180
1.52357e-179
8.35634e-180
4.41202e-179
2.20078e-179
1.16262e-178
5.20525e-179
2.75247e-178
1.0896e-178
5.76954e-178
1.98575e-178
1.05334e-177
3.09645e-178
1.64609e-177
4.06502e-178
2.16655e-177
4.44524e-178
2.37622e-177
4.05134e-178
2.17292e-177
3.1325e-178
1.37781e-177
2.12537e-178
8.94096e-178
1.28201e-178
5.15835e-178
6.96998e-179
2.68243e-178
3.46331e-179
1.27487e-178
1.59383e-179
5.61156e-179
6.87658e-180
2.31562e-179
2.81197e-180
9.05602e-180
1.10031e-180
3.38882e-180
4.15448e-181
1.22357e-180
1.5247e-181
4.2938e-181
5.47358e-182
1.47381e-181
1.93286e-182
4.97561e-182
6.74703e-183
1.66034e-182
2.33852e-183
5.50081e-183
8.08093e-184
1.81679e-183
2.79475e-184
6.00491e-184
9.70957e-185
1.99362e-184
3.40122e-185
6.67287e-185
1.20579e-185
2.26018e-185
4.34284e-186
7.77677e-186
1.59531e-186
2.72886e-186
6.00046e-187
9.80371e-187
2.31958e-187
3.6195e-187
9.24576e-188
1.37777e-187
3.8092e-188
5.42042e-188
1.62356e-188
2.20597e-188
7.13672e-189
9.25828e-189
3.17566e-189
3.93307e-189