/*--------------------------------*- C++ -*----------------------------------*\
  =========                 |
  \\      /  F ield         | OpenFOAM: The Open Source CFD Toolbox
   \\    /   O peration     | Website:  https://openfoam.org
    \\  /    A nd           | Version:  9
     \\/     M anipulation  |
\*---------------------------------------------------------------------------*/
FoamFile
{
    format      ascii;
    class       volScalarField;
    location    "0.02";
    object      p;
}
// * * * * * * * * * * * * * * * * * * * * * * * * * * * * * * * * * * * * * //

dimensions      [1 -1 -2 0 0 0 0];

internalField   nonuniform List<scalar> 
5000
(
0.599834
0.599644
0.599477
0.599338
0.59923
0.599156
0.59912
0.599124
0.59917
0.59926
0.599394
0.599572
0.599792
0.600053
0.60035
0.600679
0.601035
0.601412
0.601804
0.602203
0.602566
0.60288
0.603171
0.603437
0.603679
0.603898
0.604094
0.604267
0.604421
0.604555
0.604672
0.604772
0.604859
0.604932
0.604994
0.605045
0.605087
0.60512
0.605147
0.605167
0.605181
0.605191
0.605197
0.605198
0.605197
0.605192
0.605184
0.605173
0.605157
0.605134
0.599324
0.599175
0.599047
0.598942
0.598863
0.598814
0.598796
0.598813
0.598865
0.598954
0.599079
0.59924
0.599436
0.599663
0.599919
0.600201
0.600501
0.600817
0.60114
0.601466
0.601757
0.602005
0.60223
0.602433
0.602613
0.602772
0.602909
0.603027
0.603127
0.60321
0.603278
0.603333
0.603376
0.603409
0.603433
0.603448
0.603456
0.603458
0.603455
0.603448
0.603436
0.603421
0.603402
0.603381
0.603357
0.60333
0.6033
0.603266
0.603227
0.603182
0.598619
0.598499
0.598395
0.598311
0.59825
0.598214
0.598204
0.598223
0.598272
0.598351
0.598461
0.598601
0.598768
0.598962
0.599177
0.599412
0.599661
0.599919
0.600182
0.600441
0.600669
0.600858
0.601027
0.601175
0.601301
0.601407
0.601494
0.601564
0.601618
0.601657
0.601684
0.6017
0.601707
0.601705
0.601696
0.601682
0.601663
0.601639
0.601613
0.601583
0.601552
0.601518
0.601483
0.601447
0.60141
0.601371
0.601332
0.601293
0.601253
0.601213
0.597887
0.597794
0.597714
0.59765
0.597604
0.597579
0.597576
0.597597
0.597642
0.597712
0.597807
0.597926
0.598066
0.598227
0.598405
0.598596
0.598796
0.599
0.599204
0.599402
0.59957
0.599706
0.599821
0.599916
0.599992
0.600048
0.600088
0.600111
0.600121
0.600118
0.600105
0.600083
0.600054
0.600019
0.599979
0.599935
0.599888
0.599839
0.599789
0.599738
0.599687
0.599635
0.599584
0.599534
0.599484
0.599435
0.599387
0.599341
0.599296
0.599253
0.597204
0.597137
0.59708
0.597035
0.597005
0.596991
0.596995
0.597017
0.597058
0.597119
0.597198
0.597296
0.597409
0.597537
0.597676
0.597823
0.597974
0.598124
0.598269
0.598405
0.598513
0.598594
0.598655
0.598697
0.598721
0.598728
0.598718
0.598695
0.59866
0.598615
0.598561
0.5985
0.598433
0.598363
0.59829
0.598215
0.59814
0.598064
0.597989
0.597916
0.597843
0.597773
0.597704
0.597638
0.597574
0.597513
0.597455
0.597399
0.597346
0.597294
0.596538
0.596498
0.596463
0.596438
0.596422
0.596419
0.596429
0.596452
0.59649
0.596541
0.596606
0.596682
0.59677
0.596865
0.596967
0.59707
0.597173
0.59727
0.597357
0.59743
0.597479
0.597505
0.597512
0.597502
0.597474
0.597431
0.597374
0.597304
0.597225
0.597136
0.597041
0.596941
0.596838
0.596732
0.596626
0.59652
0.596415
0.596312
0.596211
0.596113
0.596019
0.595928
0.595841
0.595758
0.595679
0.595603
0.595532
0.595464
0.595399
0.595337
0.595858
0.595843
0.59583
0.595823
0.595822
0.595829
0.595845
0.595869
0.595903
0.595946
0.595996
0.596053
0.596115
0.596181
0.596246
0.596308
0.596364
0.59641
0.596442
0.596455
0.596446
0.596419
0.596374
0.596313
0.596236
0.596145
0.596041
0.595927
0.595803
0.595673
0.595538
0.5954
0.59526
0.595119
0.59498
0.594843
0.594708
0.594577
0.59445
0.594328
0.594211
0.594099
0.593992
0.59389
0.593794
0.593702
0.593616
0.593534
0.593456
0.593381
0.595162
0.595172
0.59518
0.59519
0.595203
0.59522
0.595242
0.595268
0.595298
0.595333
0.59537
0.595409
0.595447
0.595483
0.595514
0.595537
0.595549
0.595546
0.595524
0.59548
0.595414
0.595336
0.595241
0.595131
0.595006
0.594868
0.594719
0.594562
0.594396
0.594226
0.594052
0.593876
0.5937
0.593526
0.593353
0.593184
0.59302
0.592861
0.592708
0.59256
0.592419
0.592285
0.592157
0.592035
0.591919
0.59181
0.591707
0.591608
0.591515
0.591426
0.59446
0.594493
0.594522
0.594549
0.594576
0.594604
0.594632
0.59466
0.594687
0.594714
0.594739
0.594761
0.594777
0.594785
0.594783
0.594768
0.594737
0.594687
0.594613
0.594512
0.594392
0.594264
0.59412
0.593961
0.593789
0.593606
0.593413
0.593213
0.593007
0.592797
0.592585
0.592372
0.592161
0.591952
0.591747
0.591546
0.591352
0.591164
0.590983
0.59081
0.590644
0.590485
0.590334
0.590191
0.590055
0.589926
0.589804
0.589688
0.589577
0.589472
0.593755
0.593811
0.593861
0.593906
0.593947
0.593985
0.59402
0.594051
0.594077
0.594097
0.594111
0.594116
0.594111
0.594093
0.59406
0.594008
0.593936
0.593838
0.593714
0.593558
0.593384
0.593206
0.593014
0.592807
0.592589
0.592361
0.592124
0.591882
0.591635
0.591386
0.591136
0.590887
0.590641
0.590398
0.59016
0.589928
0.589703
0.589486
0.589277
0.589076
0.588884
0.588701
0.588526
0.588359
0.588201
0.588051
0.587908
0.587772
0.587642
0.587518
0.593046
0.593126
0.593196
0.59326
0.593316
0.593366
0.593408
0.593442
0.593467
0.593483
0.593486
0.593477
0.593452
0.593409
0.593345
0.593258
0.593145
0.593003
0.592828
0.592618
0.592391
0.592164
0.591923
0.591669
0.591405
0.591132
0.590853
0.590568
0.590282
0.589994
0.589706
0.589421
0.58914
0.588863
0.588593
0.588329
0.588074
0.587827
0.587589
0.58736
0.587141
0.586931
0.586731
0.586539
0.586357
0.586184
0.586018
0.58586
0.585709
0.585566
0.592332
0.592437
0.592529
0.592611
0.592683
0.592745
0.592796
0.592835
0.592861
0.592872
0.592867
0.592844
0.5928
0.592734
0.592642
0.592521
0.592369
0.592182
0.591958
0.591694
0.591414
0.591139
0.59085
0.590549
0.590239
0.589921
0.589598
0.589273
0.588946
0.588619
0.588295
0.587974
0.587657
0.587347
0.587044
0.586749
0.586462
0.586185
0.585918
0.58566
0.585413
0.585175
0.584948
0.584731
0.584523
0.584324
0.584135
0.583953
0.583779
0.583614
0.591615
0.591744
0.591859
0.591961
0.59205
0.592126
0.592187
0.592232
0.59226
0.592269
0.592257
0.592222
0.592161
0.592072
0.591952
0.591799
0.591609
0.591379
0.591107
0.59079
0.590458
0.590134
0.589797
0.589449
0.589092
0.58873
0.588364
0.587996
0.587629
0.587264
0.586902
0.586545
0.586194
0.58585
0.585514
0.585187
0.584869
0.584561
0.584263
0.583976
0.5837
0.583434
0.583178
0.582933
0.582698
0.582473
0.582257
0.58205
0.581852
0.581663
0.590895
0.591051
0.591189
0.591313
0.59142
0.591511
0.591584
0.591637
0.591668
0.591676
0.591659
0.591613
0.591537
0.591427
0.591281
0.591096
0.590869
0.590597
0.590278
0.589909
0.589525
0.589153
0.588767
0.588372
0.587969
0.587561
0.587151
0.586741
0.586333
0.585929
0.585529
0.585136
0.584749
0.584371
0.584002
0.583642
0.583292
0.582953
0.582625
0.582307
0.582001
0.581705
0.58142
0.581146
0.580883
0.580629
0.580386
0.580152
0.579926
0.579713
0.590174
0.590358
0.590522
0.590668
0.590796
0.590903
0.590989
0.591052
0.591088
0.591097
0.591075
0.591021
0.59093
0.590801
0.59063
0.590415
0.590153
0.58984
0.589474
0.589053
0.588618
0.588198
0.587764
0.58732
0.58687
0.586417
0.585963
0.58551
0.58506
0.584615
0.584177
0.583746
0.583324
0.582911
0.582508
0.582115
0.581733
0.581361
0.581001
0.580652
0.580315
0.579988
0.579673
0.579369
0.579075
0.578792
0.57852
0.578257
0.578003
0.577763
0.589455
0.589667
0.589858
0.590029
0.590178
0.590304
0.590405
0.590479
0.590523
0.590534
0.59051
0.590448
0.590344
0.590197
0.590003
0.589759
0.589462
0.58911
0.588698
0.588226
0.58774
0.587272
0.58679
0.586298
0.585801
0.585301
0.584801
0.584304
0.583811
0.583325
0.582847
0.582378
0.581919
0.58147
0.581031
0.580604
0.580188
0.579784
0.579391
0.57901
0.578641
0.578282
0.577935
0.5776
0.577275
0.576961
0.576658
0.576365
0.576082
0.575814
0.588738
0.58898
0.5892
0.589397
0.58957
0.589717
0.589835
0.589921
0.589973
0.589988
0.589964
0.589896
0.589782
0.589618
0.589402
0.589131
0.5888
0.588409
0.587953
0.587431
0.586895
0.586379
0.585849
0.585308
0.584763
0.584215
0.583668
0.583126
0.582589
0.582061
0.581541
0.581032
0.580534
0.580047
0.579573
0.57911
0.578659
0.578221
0.577794
0.577379
0.576977
0.576586
0.576206
0.575838
0.575481
0.575135
0.5748
0.574476
0.574162
0.573866
0.588026
0.5883
0.588551
0.588776
0.588974
0.589143
0.589279
0.58938
0.589442
0.589463
0.589439
0.589367
0.589244
0.589066
0.588829
0.588531
0.588169
0.58774
0.587241
0.58667
0.586084
0.585521
0.584942
0.584353
0.583759
0.583163
0.582568
0.581979
0.581397
0.580823
0.580261
0.57971
0.579171
0.578645
0.578132
0.577632
0.577145
0.57667
0.576208
0.575759
0.575321
0.574896
0.574483
0.574081
0.573691
0.573313
0.572945
0.572589
0.572244
0.571918
0.58732
0.587629
0.587911
0.588166
0.588392
0.588584
0.58874
0.588857
0.588932
0.58896
0.588939
0.588864
0.588733
0.588541
0.588286
0.587963
0.587571
0.587105
0.586564
0.585945
0.58531
0.5847
0.584074
0.583436
0.582792
0.582147
0.581503
0.580866
0.580236
0.579616
0.579008
0.578413
0.577831
0.577264
0.57671
0.57617
0.575644
0.575131
0.574632
0.574146
0.573673
0.573212
0.572764
0.572328
0.571904
0.571492
0.571091
0.570703
0.570325
0.56997
0.586624
0.586968
0.587284
0.587571
0.587825
0.588042
0.58822
0.588355
0.588443
0.58848
0.588463
0.588388
0.58825
0.588047
0.587774
0.587429
0.587007
0.586507
0.585925
0.585259
0.584575
0.583919
0.583245
0.582558
0.581864
0.581169
0.580476
0.579788
0.579109
0.578441
0.577785
0.577143
0.576516
0.575904
0.575306
0.574724
0.574157
0.573604
0.573065
0.572541
0.57203
0.571532
0.571047
0.570576
0.570117
0.569671
0.569237
0.568816
0.568407
0.568022
0.58594
0.58632
0.586672
0.586991
0.587275
0.587519
0.58772
0.587875
0.587977
0.588025
0.588014
0.587939
0.587797
0.587584
0.587295
0.586928
0.586479
0.585945
0.585324
0.584612
0.583881
0.583179
0.582457
0.581721
0.580978
0.580231
0.579487
0.578748
0.578018
0.577299
0.576594
0.575902
0.575227
0.574567
0.573923
0.573295
0.572683
0.572087
0.571506
0.570941
0.57039
0.569854
0.569331
0.568823
0.568329
0.567848
0.567381
0.566928
0.566488
0.566073
0.585269
0.585687
0.586076
0.586429
0.586744
0.587017
0.587242
0.587417
0.587537
0.587597
0.587593
0.58752
0.587375
0.587154
0.586851
0.586464
0.585989
0.585423
0.584763
0.584006
0.583229
0.582482
0.581712
0.580928
0.580133
0.579335
0.578539
0.577747
0.576964
0.576193
0.575434
0.574691
0.573963
0.573253
0.572559
0.571882
0.571223
0.57058
0.569955
0.569345
0.568753
0.568176
0.567614
0.567069
0.566538
0.566023
0.565524
0.565039
0.564568
0.564125
0.584613
0.585071
0.585498
0.585887
0.586234
0.586536
0.586787
0.586984
0.587122
0.587196
0.587201
0.587133
0.586987
0.586759
0.586444
0.586038
0.585538
0.584941
0.584243
0.583443
0.58262
0.581828
0.581011
0.580177
0.579332
0.578481
0.577631
0.576785
0.575948
0.575121
0.574307
0.573509
0.572727
0.571962
0.571215
0.570486
0.569776
0.569084
0.56841
0.567755
0.567117
0.566498
0.565896
0.565312
0.564745
0.564196
0.563663
0.563147
0.562647
0.562176
0.583975
0.584474
0.584939
0.585364
0.585745
0.586078
0.586357
0.586577
0.586735
0.586824
0.58684
0.586778
0.586633
0.5864
0.586074
0.585651
0.585128
0.584501
0.583767
0.582923
0.582055
0.581218
0.580354
0.57947
0.578573
0.577669
0.576764
0.575862
0.574968
0.574084
0.573212
0.572356
0.571516
0.570694
0.56989
0.569106
0.568342
0.567597
0.566873
0.566168
0.565485
0.564821
0.564177
0.563554
0.56295
0.562366
0.561801
0.561254
0.560726
0.560227
0.583355
0.583895
0.5844
0.584863
0.58528
0.585645
0.585953
0.586199
0.586378
0.586485
0.586514
0.586459
0.586316
0.58608
0.585745
0.585306
0.584761
0.584104
0.583334
0.582447
0.581534
0.580652
0.57974
0.578806
0.577856
0.576898
0.575936
0.574976
0.574023
0.573079
0.572147
0.57123
0.570329
0.569447
0.568584
0.567742
0.566921
0.566121
0.565343
0.564588
0.563856
0.563147
0.56246
0.561796
0.561155
0.560535
0.559938
0.559361
0.558804
0.558278
0.582753
0.583337
0.583883
0.584386
0.584839
0.585238
0.585577
0.58585
0.586053
0.586179
0.586223
0.586178
0.586039
0.585801
0.585457
0.585004
0.584437
0.583752
0.582946
0.582016
0.581057
0.58013
0.57917
0.578184
0.57718
0.576165
0.575145
0.574125
0.57311
0.572103
0.571109
0.570128
0.569165
0.56822
0.567296
0.566393
0.565512
0.564655
0.563823
0.563016
0.562234
0.561477
0.560747
0.560042
0.559362
0.558707
0.558076
0.557468
0.556882
0.55633
0.582171
0.582799
0.583389
0.583932
0.584424
0.584859
0.585231
0.585534
0.585763
0.58591
0.585971
0.585937
0.585804
0.585565
0.585214
0.584747
0.584159
0.583445
0.582603
0.58163
0.580625
0.579652
0.578641
0.577602
0.576542
0.575468
0.574387
0.573305
0.572226
0.571154
0.570094
0.569048
0.568019
0.56701
0.566022
0.565057
0.564116
0.563201
0.562313
0.561452
0.56062
0.559816
0.559041
0.558294
0.557575
0.556884
0.556219
0.555579
0.554963
0.554382
0.581607
0.582283
0.582917
0.583504
0.584036
0.58451
0.584917
0.585252
0.585509
0.58568
0.585759
0.585739
0.585613
0.585374
0.585018
0.584537
0.583928
0.583186
0.582307
0.58129
0.580237
0.579215
0.578153
0.577058
0.575939
0.574805
0.57366
0.572512
0.571367
0.570228
0.5691
0.567986
0.56689
0.565814
0.564761
0.563733
0.562732
0.561758
0.560814
0.5599
0.559017
0.558166
0.557346
0.556556
0.555798
0.555069
0.554368
0.553695
0.553047
0.552435
0.581063
0.581787
0.582469
0.583101
0.583677
0.584191
0.584637
0.585007
0.585294
0.585491
0.585591
0.585585
0.585468
0.585231
0.584869
0.584376
0.583745
0.582974
0.582058
0.580995
0.579892
0.57882
0.577704
0.576551
0.575371
0.574172
0.572961
0.571745
0.57053
0.569321
0.568122
0.566939
0.565774
0.564631
0.563512
0.562421
0.561359
0.560327
0.559328
0.558361
0.557429
0.55653
0.555665
0.554833
0.554033
0.553265
0.552527
0.551817
0.551134
0.550489
0.580537
0.581313
0.582044
0.582725
0.583347
0.583906
0.584392
0.5848
0.58512
0.585345
0.585467
0.585478
0.585371
0.585137
0.58477
0.584264
0.583612
0.582811
0.581856
0.580745
0.57959
0.578466
0.577292
0.576078
0.574834
0.573568
0.572287
0.571
0.569713
0.568431
0.56716
0.565905
0.56467
0.563459
0.562274
0.56112
0.559998
0.558909
0.557855
0.556837
0.555855
0.55491
0.554
0.553124
0.552283
0.551474
0.550696
0.549948
0.549227
0.548545
0.580029
0.580859
0.581643
0.582375
0.583048
0.583653
0.584184
0.584631
0.584987
0.585243
0.58539
0.58542
0.585323
0.585094
0.584723
0.584204
0.583531
0.582698
0.581703
0.580542
0.579332
0.578152
0.576918
0.57564
0.574328
0.572991
0.571639
0.570277
0.568915
0.567558
0.566213
0.564885
0.563579
0.562299
0.561049
0.559832
0.55865
0.557505
0.556398
0.55533
0.554299
0.553307
0.552351
0.551432
0.550547
0.549695
0.548875
0.548085
0.547323
0.546602
0.579538
0.580425
0.581266
0.582053
0.582778
0.583434
0.584012
0.584503
0.584897
0.585186
0.58536
0.58541
0.585327
0.585102
0.584728
0.584197
0.583502
0.582638
0.581601
0.580387
0.579119
0.57788
0.576582
0.575236
0.573853
0.572443
0.571015
0.569578
0.568139
0.566706
0.565285
0.563883
0.562506
0.561157
0.559842
0.558562
0.557321
0.55612
0.55496
0.55384
0.55276
0.55172
0.550718
0.549753
0.548823
0.547927
0.547062
0.546228
0.545423
0.54466
0.579064
0.580011
0.580912
0.581757
0.582539
0.583249
0.583877
0.584414
0.584849
0.585174
0.585378
0.585451
0.585383
0.585165
0.584789
0.584246
0.583529
0.582633
0.581552
0.580283
0.578953
0.577652
0.576287
0.57487
0.573413
0.571927
0.570421
0.568905
0.567388
0.565877
0.564381
0.562905
0.561456
0.560039
0.558658
0.557316
0.556016
0.554758
0.553542
0.55237
0.55124
0.55015
0.549099
0.548086
0.547108
0.546164
0.545254
0.544374
0.543525
0.542719
0.578606
0.579617
0.580581
0.581488
0.582329
0.583096
0.583778
0.584365
0.584845
0.585209
0.585445
0.585543
0.585493
0.585284
0.584907
0.584354
0.583616
0.582687
0.581561
0.580235
0.57884
0.577473
0.576037
0.574546
0.573013
0.571448
0.569862
0.568267
0.566671
0.565082
0.56351
0.561961
0.560441
0.558955
0.557508
0.556103
0.554741
0.553423
0.552151
0.550923
0.549737
0.548594
0.54749
0.546425
0.545397
0.544405
0.543446
0.542521
0.541627
0.540778
0.578163
0.579242
0.580271
0.581244
0.582149
0.582976
0.583716
0.584355
0.584884
0.58529
0.585562
0.585689
0.585659
0.585462
0.585087
0.584525
0.583767
0.582805
0.581635
0.580248
0.578786
0.57735
0.575841
0.574273
0.57266
0.571015
0.569348
0.567673
0.565997
0.564332
0.562684
0.561061
0.55947
0.557916
0.556401
0.55493
0.553504
0.552124
0.550789
0.5495
0.548255
0.547052
0.545891
0.54477
0.543689
0.542645
0.541638
0.540666
0.539728
0.538838
0.577735
0.578884
0.579984
0.581025
0.581997
0.582889
0.583689
0.584386
0.584967
0.585419
0.585732
0.585891
0.585885
0.585703
0.585333
0.584764
0.583988
0.582995
0.581779
0.580332
0.578801
0.577294
0.575709
0.574062
0.572368
0.57064
0.568892
0.567135
0.565381
0.563638
0.561915
0.56022
0.558557
0.556932
0.555348
0.553808
0.552313
0.550865
0.549462
0.548105
0.546793
0.545526
0.544302
0.543121
0.541982
0.540885
0.539827
0.538809
0.537828
0.536897
0.57732
0.578543
0.579716
0.580829
0.581872
0.582833
0.583698
0.584457
0.585094
0.585599
0.585956
0.586152
0.586175
0.586012
0.585651
0.585079
0.584287
0.583265
0.582004
0.580496
0.578894
0.577316
0.575654
0.573926
0.572149
0.570338
0.568508
0.56667
0.564836
0.563016
0.561217
0.559447
0.55771
0.556012
0.554355
0.552742
0.551173
0.54965
0.548173
0.546742
0.545357
0.544019
0.542727
0.541481
0.540282
0.539128
0.538019
0.536953
0.535929
0.534956
0.576919
0.578218
0.579468
0.580657
0.581775
0.582808
0.583744
0.584569
0.585269
0.58583
0.586237
0.586477
0.586534
0.586395
0.586047
0.585477
0.584672
0.583623
0.582319
0.580752
0.579079
0.577428
0.575689
0.57388
0.57202
0.570126
0.568212
0.566293
0.564378
0.562478
0.5606
0.558752
0.556938
0.555162
0.553427
0.551734
0.550085
0.548481
0.546923
0.545413
0.54395
0.542537
0.541174
0.53986
0.538598
0.537385
0.536222
0.535106
0.534036
0.533019
0.576529
0.577909
0.579239
0.580508
0.581705
0.582816
0.583827
0.584724
0.585493
0.586116
0.58658
0.586869
0.586967
0.586858
0.586529
0.585964
0.585151
0.584078
0.582734
0.581109
0.579368
0.577646
0.57583
0.573941
0.571998
0.57002
0.568021
0.566017
0.564018
0.562035
0.560074
0.558143
0.556245
0.554384
0.552563
0.550784
0.549049
0.547359
0.545716
0.544122
0.542579
0.541089
0.539652
0.538269
0.536941
0.535667
0.534446
0.533275
0.532153
0.531087
0.576149
0.577613
0.579027
0.580381
0.581662
0.582857
0.583949
0.584925
0.585768
0.586462
0.586989
0.587334
0.587479
0.587407
0.587102
0.586549
0.585733
0.58464
0.58326
0.581581
0.579774
0.577983
0.576092
0.574123
0.572097
0.570033
0.567948
0.565856
0.563768
0.561695
0.559644
0.557621
0.555631
0.553677
0.551763
0.54989
0.548063
0.546282
0.544551
0.542873
0.541248
0.53968
0.53817
0.536717
0.535321
0.533982
0.532697
0.531465
0.530281
0.529156
0.575778
0.577329
0.578832
0.580276
0.581647
0.582931
0.584111
0.585173
0.586098
0.586869
0.587468
0.587876
0.588075
0.588047
0.587774
0.587238
0.586425
0.585318
0.583906
0.582177
0.580308
0.578451
0.576486
0.574438
0.572329
0.570178
0.568002
0.565817
0.563633
0.561462
0.559312
0.557187
0.555095
0.553039
0.551023
0.54905
0.547125
0.545251
0.543431
0.541667
0.539962
0.538317
0.536732
0.535208
0.533742
0.532333
0.530979
0.529676
0.528422
0.527228
0.575413
0.577057
0.578654
0.580193
0.58166
0.583039
0.584315
0.58547
0.586485
0.587341
0.588019
0.5885
0.588762
0.588785
0.588551
0.58804
0.587235
0.58612
0.584681
0.582907
0.58098
0.579059
0.577022
0.574895
0.572701
0.570459
0.568188
0.565902
0.563615
0.561337
0.559077
0.556841
0.554637
0.55247
0.550344
0.548266
0.54624
0.544269
0.542358
0.540509
0.538722
0.537
0.53534
0.533741
0.5322
0.530716
0.529285
0.527905
0.526572
0.525302
0.575053
0.576794
0.57849
0.580131
0.5817
0.583183
0.584561
0.585817
0.586931
0.587881
0.588648
0.589209
0.589542
0.589626
0.589438
0.588959
0.58817
0.587053
0.585594
0.583779
0.581797
0.579815
0.577707
0.575499
0.573216
0.570879
0.568505
0.566112
0.563712
0.561318
0.558938
0.556582
0.554257
0.551972
0.549732
0.547544
0.545413
0.543344
0.54134
0.539402
0.537531
0.535726
0.533984
0.532304
0.530682
0.529115
0.527602
0.526139
0.524725
0.523376
0.574697
0.576539
0.57834
0.580088
0.581767
0.583361
0.58485
0.586216
0.587437
0.588491
0.589356
0.590007
0.590421
0.590574
0.590443
0.590005
0.589239
0.588127
0.586652
0.584801
0.582767
0.580724
0.578542
0.576251
0.573874
0.571435
0.568952
0.566442
0.563921
0.561401
0.558893
0.55641
0.553959
0.551552
0.549194
0.546894
0.544657
0.542486
0.540384
0.538352
0.536388
0.534491
0.532657
0.530885
0.529172
0.527515
0.525914
0.524367
0.522873
0.521449
0.574341
0.576291
0.578203
0.580065
0.581861
0.583573
0.585182
0.586667
0.588005
0.589173
0.590146
0.590899
0.591404
0.591637
0.591571
0.591182
0.590448
0.589348
0.587863
0.58598
0.583894
0.581788
0.57953
0.57715
0.574673
0.572124
0.569523
0.566888
0.564238
0.561585
0.558945
0.55633
0.553751
0.551219
0.548743
0.546329
0.543982
0.541704
0.539498
0.537361
0.535292
0.53329
0.531352
0.529476
0.527662
0.525908
0.524216
0.522586
0.521015
0.51952
0.573983
0.576046
0.578075
0.580059
0.581979
0.583819
0.585557
0.58717
0.588637
0.589929
0.591022
0.591887
0.592495
0.592819
0.59283
0.592501
0.591806
0.590724
0.589234
0.58732
0.585181
0.58301
0.580671
0.578196
0.575612
0.572945
0.570217
0.567451
0.564664
0.561874
0.559098
0.55635
0.553642
0.550986
0.54839
0.545858
0.543396
0.541004
0.538682
0.536429
0.534243
0.532123
0.530068
0.528079
0.526157
0.524303
0.522518
0.520804
0.519158
0.517592
0.573622
0.575803
0.577955
0.580067
0.58212
0.584096
0.585972
0.587726
0.589331
0.590761
0.591986
0.592977
0.593701
0.594128
0.594227
0.593967
0.593321
0.592264
0.590772
0.588828
0.586634
0.584394
0.581968
0.579391
0.576692
0.5739
0.571039
0.568135
0.565207
0.562278
0.559364
0.556481
0.553643
0.55086
0.548139
0.545485
0.542899
0.540382
0.537933
0.535552
0.533238
0.530991
0.528814
0.526709
0.524677
0.522721
0.520843
0.519041
0.517313
0.515669
0.573253
0.575557
0.57784
0.580087
0.582282
0.584403
0.586429
0.588334
0.590092
0.591672
0.593044
0.594174
0.595028
0.595572
0.59577
0.595591
0.595001
0.593974
0.592484
0.59051
0.58826
0.585946
0.583428
0.580743
0.577923
0.574999
0.572
0.568954
0.565883
0.562811
0.559757
0.556738
0.553765
0.550849
0.547994
0.545205
0.542483
0.539829
0.537242
0.534724
0.532276
0.529901
0.527602
0.525383
0.523245
0.521189
0.519214
0.517317
0.515494
0.513754
0.572873
0.575307
0.577726
0.580117
0.582462
0.584739
0.586926
0.588996
0.59092
0.592666
0.5942
0.595485
0.596484
0.597157
0.597468
0.597379
0.596854
0.595863
0.594378
0.592376
0.590067
0.587675
0.585062
0.582263
0.579318
0.576259
0.573119
0.569928
0.566712
0.563495
0.560297
0.557134
0.554017
0.550955
0.547953
0.545015
0.542142
0.539336
0.536602
0.533941
0.531358
0.528857
0.526442
0.524114
0.521872
0.519714
0.517636
0.515634
0.513699
0.511848
0.572477
0.575047
0.57761
0.580153
0.582658
0.585103
0.587465
0.589714
0.59182
0.593747
0.595459
0.596915
0.598073
0.598891
0.599326
0.599338
0.598888
0.59794
0.596464
0.594435
0.592066
0.589596
0.586883
0.58397
0.580896
0.577701
0.574418
0.571081
0.567717
0.564351
0.561001
0.557684
0.554409
0.551185
0.548018
0.544912
0.541873
0.538906
0.536016
0.533209
0.530492
0.527866
0.525334
0.522895
0.520544
0.518276
0.516086
0.513967
0.511914
0.509946
0.572062
0.574772
0.577487
0.580191
0.582868
0.585494
0.588044
0.590488
0.592792
0.594918
0.596825
0.598468
0.599802
0.600779
0.601352
0.601476
0.60111
0.600213
0.598752
0.5967
0.594272
0.591723
0.588911
0.585883
0.582681
0.579348
0.575922
0.572436
0.568919
0.565395
0.561883
0.558396
0.554947
0.551544
0.548195
0.544908
0.541691
0.538554
0.535504
0.532548
0.529691
0.526934
0.524275
0.521711
0.519235
0.516841
0.514525
0.512284
0.510116
0.508039
0.57162
0.574479
0.577353
0.580229
0.58309
0.58591
0.588664
0.591319
0.593838
0.59618
0.598299
0.600147
0.601672
0.602824
0.603549
0.6038
0.603528
0.602693
0.601256
0.599186
0.596703
0.594077
0.591168
0.588024
0.584695
0.581224
0.577651
0.574011
0.570332
0.566638
0.562948
0.559276
0.555636
0.552038
0.548495
0.545018
0.541619
0.538307
0.535093
0.531981
0.528973
0.526068
0.523262
0.520548
0.517924
0.515386
0.512933
0.510569
0.508295
0.506125
0.571146
0.574161
0.577204
0.580263
0.58332
0.58635
0.589324
0.592207
0.594958
0.597534
0.599883
0.601952
0.603687
0.60503
0.605924
0.606316
0.606154
0.605393
0.60399
0.601911
0.599378
0.59668
0.593675
0.590418
0.58696
0.583347
0.579621
0.575817
0.571963
0.568083
0.564198
0.560325
0.55648
0.552678
0.548935
0.545264
0.54168
0.538192
0.534808
0.531528
0.528353
0.525278
0.522299
0.519413
0.516622
0.513927
0.511334
0.508848
0.506472
0.50421
0.570634
0.573811
0.577034
0.580288
0.583555
0.586809
0.590018
0.593146
0.596148
0.598975
0.601573
0.603883
0.605847
0.6074
0.608483
0.609035
0.609001
0.60833
0.606975
0.604898
0.602322
0.599555
0.596457
0.593086
0.589495
0.585733
0.581842
0.577859
0.573812
0.569729
0.565633
0.561544
0.557484
0.553472
0.549525
0.54566
0.54189
0.53822
0.534655
0.531193
0.527831
0.524566
0.521399
0.518331
0.515368
0.512518
0.509787
0.507177
0.504684
0.502308
0.570076
0.573425
0.576836
0.580297
0.583788
0.58728
0.590741
0.59413
0.5974
0.600498
0.603365
0.605938
0.608152
0.609939
0.611233
0.611968
0.612084
0.611522
0.610232
0.608169
0.605559
0.602728
0.599537
0.596048
0.592317
0.588394
0.584323
0.580142
0.575883
0.571579
0.567256
0.562941
0.558658
0.55443
0.550277
0.546214
0.542248
0.538384
0.534621
0.530958
0.527394
0.52393
0.520572
0.517328
0.514205
0.51121
0.508342
0.505596
0.502957
0.500427
0.569465
0.572993
0.576603
0.580283
0.58401
0.587755
0.591483
0.59515
0.598706
0.602095
0.605254
0.608114
0.610604
0.612653
0.614186
0.615132
0.615421
0.614991
0.613784
0.61175
0.609114
0.606222
0.602938
0.599325
0.595442
0.591342
0.587072
0.582674
0.578186
0.573644
0.569082
0.56453
0.560018
0.555569
0.551201
0.546925
0.542746
0.538667
0.534686
0.530806
0.52703
0.523368
0.519828
0.516419
0.513146
0.510005
0.50699
0.504084
0.501271
0.49856
0.568794
0.572508
0.576327
0.580235
0.584209
0.58822
0.59223
0.596194
0.600057
0.60376
0.607236
0.610411
0.613209
0.61555
0.617354
0.618541
0.619034
0.618761
0.617656
0.615666
0.613012
0.61006
0.606677
0.602931
0.598882
0.594589
0.590102
0.585469
0.580736
0.575945
0.571134
0.566339
0.561589
0.556907
0.552306
0.547796
0.543381
0.539062
0.534845
0.530737
0.526749
0.522892
0.519176
0.515603
0.51217
0.508864
0.505672
0.50258
0.499581
0.49669
0.568055
0.571961
0.575995
0.58014
0.584373
0.588663
0.592971
0.597249
0.601441
0.605484
0.609306
0.61283
0.61597
0.618641
0.620753
0.622215
0.622942
0.622852
0.621872
0.619939
0.617273
0.614261
0.610774
0.606881
0.602651
0.598147
0.593426
0.588546
0.583557
0.578507
0.573441
0.568393
0.563393
0.558459
0.553604
0.548835
0.544159
0.539583
0.535119
0.530781
0.526581
0.52253
0.51863
0.514874
0.511249
0.507741
0.504339
0.501043
0.49786
0.49481
0.567238
0.571341
0.575595
0.579985
0.584487
0.589068
0.59369
0.598303
0.602849
0.607261
0.611464
0.615371
0.618894
0.621935
0.624394
0.626171
0.627166
0.627288
0.626454
0.624593
0.621919
0.618844
0.615241
0.611189
0.606762
0.602031
0.597064
0.591924
0.586671
0.581355
0.576023
0.57071
0.56544
0.560233
0.555099
0.550049
0.545096
0.540255
0.535543
0.530975
0.526561
0.522303
0.518194
0.51422
0.510366
0.506626
0.502999
0.499497
0.496135
0.492931
0.566333
0.570635
0.575114
0.579755
0.584534
0.58942
0.594373
0.599343
0.604271
0.609085
0.613704
0.618037
0.621985
0.625441
0.628291
0.630423
0.631724
0.632088
0.631423
0.629648
0.626968
0.623824
0.620096
0.61587
0.611231
0.60626
0.601035
0.595626
0.590098
0.584505
0.578892
0.573292
0.56773
0.562223
0.556788
0.551442
0.546205
0.541097
0.536138
0.531336
0.526694
0.522203
0.517851
0.513624
0.509519
0.505538
0.501695
0.498002
0.494459
0.491073
0.565328
0.56983
0.574537
0.579433
0.584499
0.589703
0.595006
0.600358
0.605696
0.610947
0.616023
0.620826
0.625247
0.629165
0.632455
0.634986
0.636633
0.637274
0.636802
0.635126
0.632443
0.629223
0.625358
0.620945
0.616081
0.610857
0.605362
0.599672
0.593855
0.587967
0.58205
0.576137
0.570255
0.564424
0.55867
0.553017
0.547491
0.542114
0.536899
0.531847
0.526949
0.522193
0.517567
0.513068
0.508707
0.504499
0.500455
0.496576
0.492838
0.489236
0.564211
0.568911
0.573846
0.579004
0.584364
0.5899
0.595573
0.601332
0.607112
0.612837
0.618414
0.623734
0.628678
0.633111
0.636894
0.639875
0.641912
0.642867
0.642615
0.641053
0.638368
0.635068
0.631056
0.626444
0.621342
0.615853
0.610074
0.604086
0.597959
0.591749
0.585499
0.579244
0.573014
0.566839
0.560753
0.554786
0.548965
0.543304
0.53781
0.532475
0.527287
0.522237
0.517322
0.512554
0.507949
0.503522
0.499273
0.495186
0.491232
0.487404
0.562966
0.567862
0.573026
0.578448
0.584113
0.589995
0.596057
0.602249
0.608504
0.614742
0.620864
0.626753
0.632275
0.637281
0.641616
0.645103
0.647582
0.648892
0.64889
0.647459
0.644775
0.641391
0.637226
0.632404
0.627051
0.621282
0.615199
0.60889
0.602425
0.595862
0.589247
0.58262
0.576021
0.569488
0.563061
0.55677
0.550636
0.544666
0.538857
0.533201
0.527692
0.522333
0.517134
0.512112
0.507277
0.502627
0.498146
0.493814
0.489619
0.485567
0.561576
0.566665
0.572057
0.577747
0.583725
0.589966
0.596437
0.603088
0.609851
0.616643
0.623358
0.62987
0.636033
0.641678
0.646627
0.650685
0.653662
0.655374
0.655658
0.654379
0.651705
0.648236
0.643909
0.638867
0.633248
0.627178
0.620766
0.614103
0.607266
0.600315
0.593303
0.586279
0.579294
0.572392
0.565611
0.558979
0.552507
0.546194
0.540035
0.534026
0.528177
0.522504
0.517027
0.511759
0.506691
0.501803
0.497068
0.492471
0.488023
0.483747
0.560025
0.565301
0.570919
0.57688
0.583176
0.58979
0.596687
0.603821
0.611126
0.618514
0.625874
0.63307
0.639941
0.646299
0.651937
0.656637
0.660177
0.662346
0.662956
0.661856
0.6592
0.655647
0.651152
0.645876
0.63997
0.633569
0.626793
0.619738
0.612487
0.60511
0.59767
0.590228
0.582841
0.575554
0.568402
0.561402
0.554559
0.547869
0.541331
0.534955
0.52876
0.522773
0.517011
0.511476
0.506151
0.501012
0.49604
0.491232
0.486584
0.48206
0.558293
0.563751
0.569591
0.575822
0.582441
0.589435
0.596775
0.604417
0.612296
0.620325
0.628386
0.636333
0.643987
0.651138
0.657551
0.662974
0.667151
0.669839
0.670824
0.669935
0.667312
0.663674
0.659002
0.653471
0.647247
0.640479
0.633294
0.6258
0.61809
0.610248
0.60235
0.594465
0.586654
0.578959
0.571406
0.564003
0.556754
0.54966
0.542731
0.535987
0.52945
0.523137
0.517047
0.511166
0.505474
0.499965
0.494655
0.489596
0.48489
0.480644
0.556362