/*--------------------------------*- C++ -*----------------------------------*\
  =========                 |
  \\      /  F ield         | OpenFOAM: The Open Source CFD Toolbox
   \\    /   O peration     | Website:  https://openfoam.org
    \\  /    A nd           | Version:  9
     \\/     M anipulation  |
\*---------------------------------------------------------------------------*/
FoamFile
{
    format      ascii;
    class       volScalarField;
    location    "0.02";
    object      rAU;
}
// * * * * * * * * * * * * * * * * * * * * * * * * * * * * * * * * * * * * * //

dimensions      [-1 3 1 0 0 0 0];

internalField   nonuniform List<scalar> 
5000
(
2.66113e-05
2.66296e-05
2.66455e-05
2.66587e-05
2.66691e-05
2.66764e-05
2.66803e-05
2.66807e-05
2.66774e-05
2.66702e-05
2.66589e-05
2.66435e-05
2.66239e-05
2.66001e-05
2.65722e-05
2.65402e-05
2.65042e-05
2.64644e-05
2.6421e-05
2.63626e-05
2.61131e-05
2.59952e-05
2.58867e-05
2.57746e-05
2.56587e-05
2.55389e-05
2.54148e-05
2.52862e-05
2.51527e-05
2.50138e-05
2.48691e-05
2.4718e-05
2.45601e-05
2.43947e-05
2.42211e-05
2.40389e-05
2.38472e-05
2.36455e-05
2.34329e-05
2.32089e-05
2.29726e-05
2.27233e-05
2.24603e-05
2.2183e-05
2.18906e-05
2.15824e-05
2.12579e-05
2.09166e-05
2.05582e-05
2.19708e-05
3.25277e-05
3.25379e-05
3.25469e-05
3.25544e-05
3.25602e-05
3.25644e-05
3.25667e-05
3.2567e-05
3.25652e-05
3.25613e-05
3.25551e-05
3.25466e-05
3.25357e-05
3.25225e-05
3.25069e-05
3.2489e-05
3.24688e-05
3.24464e-05
3.2422e-05
3.23782e-05
3.20445e-05
3.19054e-05
3.17795e-05
3.16472e-05
3.15081e-05
3.13617e-05
3.12076e-05
3.10452e-05
3.0874e-05
3.06933e-05
3.05025e-05
3.03008e-05
3.00876e-05
2.98619e-05
2.96232e-05
2.93704e-05
2.91029e-05
2.88197e-05
2.852e-05
2.8203e-05
2.78678e-05
2.75138e-05
2.714e-05
2.6746e-05
2.63309e-05
2.58944e-05
2.54361e-05
2.49556e-05
2.4453e-05
2.64849e-05
3.25273e-05
3.25376e-05
3.25466e-05
3.25541e-05
3.256e-05
3.25642e-05
3.25665e-05
3.25669e-05
3.25652e-05
3.25613e-05
3.25552e-05
3.25467e-05
3.25359e-05
3.25227e-05
3.25072e-05
3.24893e-05
3.24692e-05
3.24469e-05
3.24224e-05
3.23786e-05
3.20451e-05
3.1906e-05
3.17801e-05
3.16478e-05
3.15086e-05
3.13622e-05
3.12081e-05
3.10457e-05
3.08745e-05
3.06937e-05
3.05028e-05
3.03011e-05
3.00878e-05
2.98621e-05
2.96233e-05
2.93705e-05
2.91029e-05
2.88197e-05
2.85199e-05
2.82029e-05
2.78677e-05
2.75135e-05
2.71397e-05
2.67456e-05
2.63306e-05
2.5894e-05
2.54356e-05
2.49551e-05
2.44525e-05
2.64842e-05
3.2527e-05
3.25373e-05
3.25463e-05
3.25538e-05
3.25598e-05
3.2564e-05
3.25663e-05
3.25667e-05
3.25651e-05
3.25612e-05
3.25552e-05
3.25468e-05
3.2536e-05
3.25229e-05
3.25074e-05
3.24896e-05
3.24695e-05
3.24472e-05
3.24228e-05
3.2379e-05
3.20456e-05
3.19064e-05
3.17806e-05
3.16482e-05
3.15091e-05
3.13627e-05
3.12085e-05
3.10461e-05
3.08748e-05
3.0694e-05
3.0503e-05
3.03013e-05
3.00879e-05
2.98621e-05
2.96233e-05
2.93704e-05
2.91027e-05
2.88194e-05
2.85196e-05
2.82025e-05
2.78672e-05
2.7513e-05
2.71392e-05
2.6745e-05
2.63299e-05
2.58933e-05
2.54349e-05
2.49544e-05
2.44517e-05
2.64832e-05
3.25268e-05
3.25371e-05
3.25461e-05
3.25536e-05
3.25595e-05
3.25637e-05
3.25661e-05
3.25666e-05
3.25649e-05
3.25611e-05
3.25551e-05
3.25467e-05
3.2536e-05
3.2523e-05
3.25075e-05
3.24898e-05
3.24697e-05
3.24474e-05
3.24231e-05
3.23793e-05
3.20459e-05
3.19068e-05
3.17809e-05
3.16486e-05
3.15094e-05
3.13629e-05
3.12087e-05
3.10462e-05
3.08749e-05
3.0694e-05
3.0503e-05
3.03012e-05
3.00877e-05
2.98619e-05
2.9623e-05
2.937e-05
2.91023e-05
2.88189e-05
2.85191e-05
2.82019e-05
2.78665e-05
2.75123e-05
2.71384e-05
2.67442e-05
2.6329e-05
2.58924e-05
2.54339e-05
2.49534e-05
2.44507e-05
2.6482e-05
3.25266e-05
3.25369e-05
3.25458e-05
3.25533e-05
3.25593e-05
3.25635e-05
3.25659e-05
3.25664e-05
3.25647e-05
3.2561e-05
3.25549e-05
3.25466e-05
3.2536e-05
3.25229e-05
3.25075e-05
3.24898e-05
3.24698e-05
3.24476e-05
3.24232e-05
3.23795e-05
3.20461e-05
3.1907e-05
3.17811e-05
3.16487e-05
3.15095e-05
3.1363e-05
3.12088e-05
3.10462e-05
3.08748e-05
3.06939e-05
3.05028e-05
3.03009e-05
3.00874e-05
2.98615e-05
2.96225e-05
2.93694e-05
2.91016e-05
2.88182e-05
2.85182e-05
2.82009e-05
2.78656e-05
2.75112e-05
2.71373e-05
2.6743e-05
2.63278e-05
2.58911e-05
2.54326e-05
2.49521e-05
2.44494e-05
2.64803e-05
3.25264e-05
3.25367e-05
3.25456e-05
3.25531e-05
3.25591e-05
3.25633e-05
3.25657e-05
3.25661e-05
3.25645e-05
3.25608e-05
3.25548e-05
3.25465e-05
3.25358e-05
3.25228e-05
3.25075e-05
3.24898e-05
3.24698e-05
3.24476e-05
3.24233e-05
3.23796e-05
3.20462e-05
3.1907e-05
3.17811e-05
3.16487e-05
3.15095e-05
3.13629e-05
3.12086e-05
3.1046e-05
3.08745e-05
3.06935e-05
3.05024e-05
3.03004e-05
3.00868e-05
2.98608e-05
2.96217e-05
2.93686e-05
2.91007e-05
2.88171e-05
2.85171e-05
2.81997e-05
2.78643e-05
2.75099e-05
2.71358e-05
2.67415e-05
2.63262e-05
2.58895e-05
2.54309e-05
2.49503e-05
2.44476e-05
2.64781e-05
3.25264e-05
3.25366e-05
3.25455e-05
3.2553e-05
3.25589e-05
3.25631e-05
3.25655e-05
3.25659e-05
3.25643e-05
3.25605e-05
3.25545e-05
3.25463e-05
3.25356e-05
3.25227e-05
3.25073e-05
3.24897e-05
3.24697e-05
3.24475e-05
3.24232e-05
3.23795e-05
3.20461e-05
3.1907e-05
3.1781e-05
3.16486e-05
3.15093e-05
3.13627e-05
3.12083e-05
3.10456e-05
3.0874e-05
3.0693e-05
3.05017e-05
3.02996e-05
3.00859e-05
2.98599e-05
2.96206e-05
2.93674e-05
2.90994e-05
2.88158e-05
2.85156e-05
2.81982e-05
2.78626e-05
2.75082e-05
2.7134e-05
2.67396e-05
2.63242e-05
2.58874e-05
2.54288e-05
2.49482e-05
2.44455e-05
2.64755e-05
3.25263e-05
3.25365e-05
3.25454e-05
3.25529e-05
3.25587e-05
3.25629e-05
3.25653e-05
3.25657e-05
3.25641e-05
3.25603e-05
3.25543e-05
3.2546e-05
3.25354e-05
3.25224e-05
3.25071e-05
3.24895e-05
3.24695e-05
3.24474e-05
3.24231e-05
3.23794e-05
3.20459e-05
3.19068e-05
3.17808e-05
3.16483e-05
3.15089e-05
3.13623e-05
3.12078e-05
3.1045e-05
3.08734e-05
3.06922e-05
3.05009e-05
3.02987e-05
3.00848e-05
2.98587e-05
2.96193e-05
2.9366e-05
2.90979e-05
2.88141e-05
2.85139e-05
2.81963e-05
2.78607e-05
2.75061e-05
2.71319e-05
2.67374e-05
2.63219e-05
2.58851e-05
2.54264e-05
2.49457e-05
2.44429e-05
2.64723e-05
3.25264e-05
3.25366e-05
3.25454e-05
3.25528e-05
3.25586e-05
3.25628e-05
3.25651e-05
3.25655e-05
3.25638e-05
3.25601e-05
3.2554e-05
3.25458e-05
3.25352e-05
3.25222e-05
3.25069e-05
3.24893e-05
3.24693e-05
3.24472e-05
3.24229e-05
3.23793e-05
3.20457e-05
3.19065e-05
3.17804e-05
3.16479e-05
3.15084e-05
3.13617e-05
3.12071e-05
3.10443e-05
3.08725e-05
3.06912e-05
3.04998e-05
3.02974e-05
3.00835e-05
2.98572e-05
2.96177e-05
2.93643e-05
2.9096e-05
2.88122e-05
2.85118e-05
2.81941e-05
2.78584e-05
2.75037e-05
2.71294e-05
2.67348e-05
2.63192e-05
2.58823e-05
2.54236e-05
2.49428e-05
2.444e-05
2.64686e-05
3.25265e-05
3.25367e-05
3.25454e-05
3.25528e-05
3.25586e-05
3.25627e-05
3.2565e-05
3.25653e-05
3.25636e-05
3.25598e-05
3.25538e-05
3.25455e-05
3.25349e-05
3.25219e-05
3.25066e-05
3.2489e-05
3.24691e-05
3.2447e-05
3.24227e-05
3.2379e-05
3.20453e-05
3.1906e-05
3.17799e-05
3.16473e-05
3.15078e-05
3.13609e-05
3.12063e-05
3.10433e-05
3.08714e-05
3.069e-05
3.04984e-05
3.0296e-05
3.00819e-05
2.98554e-05
2.96158e-05
2.93623e-05
2.90939e-05
2.88099e-05
2.85094e-05
2.81916e-05
2.78557e-05
2.75009e-05
2.71265e-05
2.67318e-05
2.63162e-05
2.58791e-05
2.54203e-05
2.49395e-05
2.44366e-05
2.64644e-05
3.25268e-05
3.25368e-05
3.25456e-05
3.25529e-05
3.25586e-05
3.25626e-05
3.25649e-05
3.25652e-05
3.25635e-05
3.25596e-05
3.25536e-05
3.25453e-05
3.25346e-05
3.25217e-05
3.25063e-05
3.24887e-05
3.24688e-05
3.24467e-05
3.24224e-05
3.23788e-05
3.20448e-05
3.19055e-05
3.17793e-05
3.16466e-05
3.1507e-05
3.136e-05
3.12053e-05
3.10421e-05
3.08701e-05
3.06886e-05
3.04968e-05
3.02942e-05
3.008e-05
2.98534e-05
2.96137e-05
2.93599e-05
2.90914e-05
2.88073e-05
2.85066e-05
2.81887e-05
2.78527e-05
2.74977e-05
2.71232e-05
2.67284e-05
2.63126e-05
2.58755e-05
2.54166e-05
2.49357e-05
2.44328e-05
2.64597e-05
3.25271e-05
3.25371e-05
3.25458e-05
3.2553e-05
3.25587e-05
3.25627e-05
3.25649e-05
3.25651e-05
3.25634e-05
3.25595e-05
3.25534e-05
3.2545e-05
3.25344e-05
3.25214e-05
3.25061e-05
3.24884e-05
3.24685e-05
3.24464e-05
3.24221e-05
3.23784e-05
3.20443e-05
3.19049e-05
3.17786e-05
3.16458e-05
3.15061e-05
3.1359e-05
3.12041e-05
3.10408e-05
3.08686e-05
3.06869e-05
3.0495e-05
3.02923e-05
3.00779e-05
2.98511e-05
2.96112e-05
2.93573e-05
2.90886e-05
2.88043e-05
2.85035e-05
2.81854e-05
2.78492e-05
2.74942e-05
2.71195e-05
2.67245e-05
2.63087e-05
2.58714e-05
2.54124e-05
2.49315e-05
2.44285e-05
2.64543e-05
3.25275e-05
3.25374e-05
3.25461e-05
3.25532e-05
3.25588e-05
3.25628e-05
3.25649e-05
3.25651e-05
3.25633e-05
3.25594e-05
3.25532e-05
3.25448e-05
3.25341e-05
3.25211e-05
3.25058e-05
3.24881e-05
3.24682e-05
3.2446e-05
3.24217e-05
3.23781e-05
3.20437e-05
3.19042e-05
3.17778e-05
3.16449e-05
3.1505e-05
3.13577e-05
3.12027e-05
3.10393e-05
3.08669e-05
3.0685e-05
3.0493e-05
3.029e-05
3.00755e-05
2.98485e-05
2.96084e-05
2.93543e-05
2.90854e-05
2.88009e-05
2.85e-05
2.81817e-05
2.78454e-05
2.74902e-05
2.71153e-05
2.67202e-05
2.63043e-05
2.58669e-05
2.54078e-05
2.49268e-05
2.44237e-05
2.64484e-05
3.2528e-05
3.25379e-05
3.25464e-05
3.25536e-05
3.25591e-05
3.2563e-05
3.2565e-05
3.25652e-05
3.25633e-05
3.25593e-05
3.25531e-05
3.25447e-05
3.2534e-05
3.25209e-05
3.25055e-05
3.24878e-05
3.24679e-05
3.24457e-05
3.24214e-05
3.23777e-05
3.2043e-05
3.19034e-05
3.17769e-05
3.16438e-05
3.15038e-05
3.13564e-05
3.12011e-05
3.10375e-05
3.0865e-05
3.06829e-05
3.04907e-05
3.02875e-05
3.00727e-05
2.98456e-05
2.96053e-05
2.9351e-05
2.90819e-05
2.87972e-05
2.84961e-05
2.81776e-05
2.78411e-05
2.74857e-05
2.71107e-05
2.67155e-05
2.62994e-05
2.58619e-05
2.54027e-05
2.49216e-05
2.44184e-05
2.64419e-05
3.25286e-05
3.25384e-05
3.25469e-05
3.2554e-05
3.25595e-05
3.25633e-05
3.25653e-05
3.25653e-05
3.25634e-05
3.25593e-05
3.25531e-05
3.25446e-05
3.25339e-05
3.25208e-05
3.25053e-05
3.24876e-05
3.24676e-05
3.24454e-05
3.2421e-05
3.23773e-05
3.20423e-05
3.19026e-05
3.17759e-05
3.16427e-05
3.15024e-05
3.13549e-05
3.11994e-05
3.10356e-05
3.08629e-05
3.06806e-05
3.04881e-05
3.02848e-05
3.00698e-05
2.98424e-05
2.96018e-05
2.93473e-05
2.9078e-05
2.87931e-05
2.84918e-05
2.81731e-05
2.78364e-05
2.74808e-05
2.71057e-05
2.67103e-05
2.6294e-05
2.58564e-05
2.53971e-05
2.49159e-05
2.44126e-05
2.64347e-05
3.25294e-05
3.25391e-05
3.25475e-05
3.25545e-05
3.25599e-05
3.25637e-05
3.25656e-05
3.25656e-05
3.25636e-05
3.25595e-05
3.25532e-05
3.25446e-05
3.25338e-05
3.25206e-05
3.25052e-05
3.24874e-05
3.24674e-05
3.24451e-05
3.24207e-05
3.23769e-05
3.20416e-05
3.19017e-05
3.17748e-05
3.16414e-05
3.1501e-05
3.13532e-05
3.11976e-05
3.10336e-05
3.08606e-05
3.06781e-05
3.04853e-05
3.02817e-05
3.00665e-05
2.98389e-05
2.95981e-05
2.93433e-05
2.90738e-05
2.87887e-05
2.84871e-05
2.81682e-05
2.78313e-05
2.74755e-05
2.71002e-05
2.67046e-05
2.62882e-05
2.58504e-05
2.5391e-05
2.49096e-05
2.44063e-05
2.64269e-05
3.25302e-05
3.25399e-05
3.25483e-05
3.25552e-05
3.25605e-05
3.25642e-05
3.2566e-05
3.2566e-05
3.25639e-05
3.25597e-05
3.25533e-05
3.25447e-05
3.25338e-05
3.25206e-05
3.25051e-05
3.24873e-05
3.24671e-05
3.24448e-05
3.24204e-05
3.23765e-05
3.20408e-05
3.19007e-05
3.17737e-05
3.164e-05
3.14994e-05
3.13514e-05
3.11955e-05
3.10313e-05
3.08581e-05
3.06753e-05
3.04823e-05
3.02784e-05
3.00629e-05
2.9835e-05
2.9594e-05
2.9339e-05
2.90692e-05
2.87838e-05
2.84819e-05
2.81628e-05
2.78257e-05
2.74697e-05
2.70942e-05
2.66984e-05
2.62818e-05
2.58439e-05
2.53844e-05
2.49029e-05
2.43994e-05
2.64184e-05
3.25312e-05
3.25408e-05
3.25491e-05
3.2556e-05
3.25612e-05
3.25648e-05
3.25666e-05
3.25665e-05
3.25643e-05
3.256e-05
3.25536e-05
3.25449e-05
3.2534e-05
3.25207e-05
3.25051e-05
3.24872e-05
3.2467e-05
3.24446e-05
3.24201e-05
3.23761e-05
3.204e-05
3.18997e-05
3.17725e-05
3.16386e-05
3.14977e-05
3.13495e-05
3.11934e-05
3.10288e-05
3.08553e-05
3.06723e-05
3.0479e-05
3.02748e-05
3.0059e-05
2.98309e-05
2.95895e-05
2.93342e-05
2.90642e-05
2.87785e-05
2.84764e-05
2.8157e-05
2.78196e-05
2.74634e-05
2.70877e-05
2.66917e-05
2.62749e-05
2.58369e-05
2.53771e-05
2.48956e-05
2.4392e-05
2.64092e-05
3.25323e-05
3.25419e-05
3.25501e-05
3.25569e-05
3.25621e-05
3.25656e-05
3.25673e-05
3.25671e-05
3.25648e-05
3.25605e-05
3.2554e-05
3.25452e-05
3.25342e-05
3.25208e-05
3.25051e-05
3.24872e-05
3.24669e-05
3.24444e-05
3.24198e-05
3.23758e-05
3.20391e-05
3.18986e-05
3.17712e-05
3.16371e-05
3.14959e-05
3.13474e-05
3.1191e-05
3.10262e-05
3.08524e-05
3.0669e-05
3.04754e-05
3.0271e-05
3.00549e-05
2.98264e-05
2.95847e-05
2.93291e-05
2.90587e-05
2.87728e-05
2.84704e-05
2.81507e-05
2.78131e-05
2.74566e-05
2.70806e-05
2.66845e-05
2.62675e-05
2.58292e-05
2.53694e-05
2.48876e-05
2.4384e-05
2.63992e-05
3.25336e-05
3.25431e-05
3.25513e-05
3.2558e-05
3.25631e-05
3.25665e-05
3.25682e-05
3.25679e-05
3.25655e-05
3.25611e-05
3.25545e-05
3.25457e-05
3.25345e-05
3.25211e-05
3.25053e-05
3.24873e-05
3.24669e-05
3.24443e-05
3.24196e-05
3.23754e-05
3.20383e-05
3.18975e-05
3.17698e-05
3.16354e-05
3.1494e-05
3.13452e-05
3.11885e-05
3.10233e-05
3.08492e-05
3.06655e-05
3.04716e-05
3.02668e-05
3.00504e-05
2.98215e-05
2.95796e-05
2.93236e-05
2.90529e-05
2.87666e-05
2.84639e-05
2.8144e-05
2.7806e-05
2.74493e-05
2.70731e-05
2.66766e-05
2.62595e-05
2.5821e-05
2.5361e-05
2.48791e-05
2.43753e-05
2.63885e-05
3.2535e-05
3.25445e-05
3.25526e-05
3.25592e-05
3.25643e-05
3.25676e-05
3.25692e-05
3.25688e-05
3.25664e-05
3.25619e-05
3.25552e-05
3.25463e-05
3.2535e-05
3.25215e-05
3.25056e-05
3.24874e-05
3.2467e-05
3.24443e-05
3.24195e-05
3.23752e-05
3.20374e-05
3.18964e-05
3.17684e-05
3.16337e-05
3.1492e-05
3.13429e-05
3.11858e-05
3.10203e-05
3.08458e-05
3.06618e-05
3.04675e-05
3.02623e-05
3.00455e-05
2.98163e-05
2.9574e-05
2.93177e-05
2.90467e-05
2.876e-05
2.8457e-05
2.81367e-05
2.77985e-05
2.74414e-05
2.70649e-05
2.66683e-05
2.62509e-05
2.58122e-05
2.5352e-05
2.48699e-05
2.43661e-05
2.6377e-05
3.25367e-05
3.25461e-05
3.25541e-05
3.25607e-05
3.25657e-05
3.25689e-05
3.25704e-05
3.25699e-05
3.25674e-05
3.25628e-05
3.2556e-05
3.2547e-05
3.25357e-05
3.2522e-05
3.25061e-05
3.24878e-05
3.24672e-05
3.24444e-05
3.24194e-05
3.2375e-05
3.20366e-05
3.18953e-05
3.1767e-05
3.1632e-05
3.14899e-05
3.13404e-05
3.1183e-05
3.10171e-05
3.08423e-05
3.06578e-05
3.04631e-05
3.02576e-05
3.00404e-05
2.98108e-05
2.95681e-05
2.93114e-05
2.904e-05
2.87529e-05
2.84495e-05
2.81289e-05
2.77904e-05
2.7433e-05
2.70562e-05
2.66593e-05
2.62416e-05
2.58027e-05
2.53423e-05
2.48601e-05
2.43561e-05
2.63647e-05
3.25384e-05
3.25478e-05
3.25558e-05
3.25623e-05
3.25672e-05
3.25704e-05
3.25718e-05
3.25712e-05
3.25687e-05
3.2564e-05
3.25571e-05
3.25479e-05
3.25365e-05
3.25227e-05
3.25066e-05
3.24882e-05
3.24675e-05
3.24445e-05
3.24194e-05
3.23748e-05
3.20358e-05
3.18941e-05
3.17655e-05
3.16301e-05
3.14877e-05
3.13378e-05
3.118e-05
3.10137e-05
3.08384e-05
3.06536e-05
3.04585e-05
3.02525e-05
3.00349e-05
2.98049e-05
2.95617e-05
2.93046e-05
2.90328e-05
2.87454e-05
2.84416e-05
2.81206e-05
2.77817e-05
2.7424e-05
2.70469e-05
2.66497e-05
2.62317e-05
2.57926e-05
2.5332e-05
2.48496e-05
2.43454e-05
2.63515e-05
3.25404e-05
3.25497e-05
3.25576e-05
3.25641e-05
3.2569e-05
3.25721e-05
3.25734e-05
3.25728e-05
3.25701e-05
3.25653e-05
3.25583e-05
3.25491e-05
3.25375e-05
3.25236e-05
3.25074e-05
3.24888e-05
3.2468e-05
3.24448e-05
3.24195e-05
3.23748e-05
3.2035e-05
3.1893e-05
3.1764e-05
3.16282e-05
3.14854e-05
3.13351e-05
3.11768e-05
3.10101e-05
3.08344e-05
3.06491e-05
3.04535e-05
3.02471e-05
3.0029e-05
2.97986e-05
2.9555e-05
2.92974e-05
2.90252e-05
2.87373e-05
2.84331e-05
2.81118e-05
2.77725e-05
2.74144e-05
2.7037e-05
2.66394e-05
2.62212e-05
2.57818e-05
2.5321e-05
2.48384e-05
2.43341e-05
2.63374e-05
3.25425e-05
3.25518e-05
3.25597e-05
3.25661e-05
3.25709e-05
3.2574e-05
3.25752e-05
3.25745e-05
3.25717e-05
3.25669e-05
3.25598e-05
3.25504e-05
3.25387e-05
3.25247e-05
3.25083e-05
3.24896e-05
3.24686e-05
3.24453e-05
3.24198e-05
3.23748e-05
3.20342e-05
3.18919e-05
3.17624e-05
3.16263e-05
3.1483e-05
3.13322e-05
3.11735e-05
3.10063e-05
3.08301e-05
3.06444e-05
3.04483e-05
3.02414e-05
3.00228e-05
2.97919e-05
2.95478e-05
2.92898e-05
2.9017e-05
2.87288e-05
2.84241e-05
2.81023e-05
2.77626e-05
2.74042e-05
2.70264e-05
2.66285e-05
2.621e-05
2.57703e-05
2.53092e-05
2.48264e-05
2.43219e-05
2.63224e-05
3.25449e-05
3.25542e-05
3.2562e-05
3.25684e-05
3.25731e-05
3.25761e-05
3.25773e-05
3.25765e-05
3.25736e-05
3.25687e-05
3.25614e-05
3.2552e-05
3.25402e-05
3.2526e-05
3.25095e-05
3.24906e-05
3.24694e-05
3.24459e-05
3.24202e-05
3.2375e-05
3.20336e-05
3.18908e-05
3.17609e-05
3.16243e-05
3.14805e-05
3.13293e-05
3.11701e-05
3.10024e-05
3.08257e-05
3.06394e-05
3.04428e-05
3.02353e-05
3.00162e-05
2.97848e-05
2.95402e-05
2.92817e-05
2.90084e-05
2.87197e-05
2.84146e-05
2.80923e-05
2.77522e-05
2.73933e-05
2.70151e-05
2.66169e-05
2.61981e-05
2.57581e-05
2.52967e-05
2.48137e-05
2.4309e-05
2.63065e-05
3.25475e-05
3.25567e-05
3.25645e-05
3.25709e-05
3.25756e-05
3.25785e-05
3.25796e-05
3.25787e-05
3.25758e-05
3.25707e-05
3.25634e-05
3.25538e-05
3.25418e-05
3.25275e-05
3.25108e-05
3.24918e-05
3.24704e-05
3.24467e-05
3.24207e-05
3.23753e-05
3.2033e-05
3.18897e-05
3.17594e-05
3.16223e-05
3.1478e-05
3.13262e-05
3.11665e-05
3.09982e-05
3.0821e-05
3.06341e-05
3.0437e-05
3.02289e-05
3.00093e-05
2.97773e-05
2.95321e-05
2.92731e-05
2.89993e-05
2.871e-05
2.84044e-05
2.80817e-05
2.77411e-05
2.73818e-05
2.70032e-05
2.66046e-05
2.61854e-05
2.57452e-05
2.52835e-05
2.48003e-05
2.42954e-05
2.62895e-05
3.25503e-05
3.25595e-05
3.25673e-05
3.25736e-05
3.25782e-05
3.25812e-05
3.25822e-05
3.25812e-05
3.25782e-05
3.2573e-05
3.25656e-05
3.25559e-05
3.25438e-05
3.25293e-05
3.25124e-05
3.24932e-05
3.24716e-05
3.24476e-05
3.24214e-05
3.23757e-05
3.20324e-05
3.18887e-05
3.17579e-05
3.16202e-05
3.14754e-05
3.13231e-05
3.11627e-05
3.09939e-05
3.08161e-05
3.06286e-05
3.04309e-05
3.02222e-05
3.0002e-05
2.97694e-05
2.95236e-05
2.9264e-05
2.89897e-05
2.86998e-05
2.83937e-05
2.80705e-05
2.77294e-05
2.73696e-05
2.69906e-05
2.65916e-05
2.6172e-05
2.57314e-05
2.52695e-05
2.4786e-05
2.42809e-05
2.62716e-05
3.25533e-05
3.25625e-05
3.25703e-05
3.25766e-05
3.25812e-05
3.25841e-05
3.2585e-05
3.2584e-05
3.25809e-05
3.25756e-05
3.25681e-05
3.25582e-05
3.2546e-05
3.25314e-05
3.25143e-05
3.24948e-05
3.2473e-05
3.24488e-05
3.24224e-05
3.23763e-05
3.2032e-05
3.18878e-05
3.17564e-05
3.16182e-05
3.14728e-05
3.13198e-05
3.11589e-05
3.09894e-05
3.08109e-05
3.06228e-05
3.04245e-05
3.02152e-05
2.99943e-05
2.9761e-05
2.95147e-05
2.92544e-05
2.89795e-05
2.86891e-05
2.83824e-05
2.80586e-05
2.7717e-05
2.73567e-05
2.69772e-05
2.65778e-05
2.61578e-05
2.57169e-05
2.52547e-05
2.47709e-05
2.42656e-05
2.62526e-05
3.25565e-05
3.25658e-05
3.25736e-05
3.25798e-05
3.25845e-05
3.25873e-05
3.25882e-05
3.25871e-05
3.2584e-05
3.25786e-05
3.25709e-05
3.25609e-05
3.25485e-05
3.25337e-05
3.25165e-05
3.24968e-05
3.24747e-05
3.24502e-05
3.24235e-05
3.23771e-05
3.20317e-05
3.1887e-05
3.1755e-05
3.16161e-05
3.14701e-05
3.13165e-05
3.11549e-05
3.09848e-05
3.08056e-05
3.06168e-05
3.04177e-05
3.02078e-05
2.99862e-05
2.97523e-05
2.95052e-05
2.92443e-05
2.89688e-05
2.86777e-05
2.83704e-05
2.8046e-05
2.77039e-05
2.73431e-05
2.69631e-05
2.65632e-05
2.61428e-05
2.57015e-05
2.5239e-05
2.47549e-05
2.42494e-05
2.62326e-05
3.256e-05
3.25693e-05
3.25771e-05
3.25834e-05
3.2588e-05
3.25908e-05
3.25917e-05
3.25906e-05
3.25873e-05
3.25818e-05
3.25741e-05
3.25639e-05
3.25514e-05
3.25364e-05
3.25189e-05
3.2499e-05
3.24766e-05
3.24519e-05
3.24248e-05
3.23782e-05
3.20316e-05
3.18862e-05
3.17536e-05
3.16141e-05
3.14674e-05
3.13131e-05
3.11508e-05
3.09799e-05
3.08e-05
3.06105e-05
3.04107e-05
3.02e-05
2.99777e-05
2.9743e-05
2.94953e-05
2.92337e-05
2.89574e-05
2.86657e-05
2.83578e-05
2.80328e-05
2.769e-05
2.73287e-05
2.69482e-05
2.65478e-05
2.6127e-05
2.56853e-05
2.52224e-05
2.4738e-05
2.42322e-05
2.62114e-05
3.25638e-05
3.25731e-05
3.2581e-05
3.25872e-05
3.25919e-05
3.25947e-05
3.25955e-05
3.25943e-05
3.2591e-05
3.25855e-05
3.25776e-05
3.25673e-05
3.25546e-05
3.25394e-05
3.25217e-05
3.25015e-05
3.24789e-05
3.24539e-05
3.24264e-05
3.23794e-05
3.20316e-05
3.18856e-05
3.17523e-05
3.16121e-05
3.14647e-05
3.13096e-05
3.11466e-05
3.09749e-05
3.07943e-05
3.06039e-05
3.04034e-05
3.01919e-05
2.99688e-05
2.97334e-05
2.94849e-05
2.92225e-05
2.89455e-05
2.86531e-05
2.83445e-05
2.80189e-05
2.76754e-05
2.73135e-05
2.69324e-05
2.65315e-05
2.61102e-05
2.56681e-05
2.52048e-05
2.47201e-05
2.4214e-05
2.61888e-05
3.25678e-05
3.25772e-05
3.25851e-05
3.25914e-05
3.2596e-05
3.25988e-05
3.25997e-05
3.25985e-05
3.25951e-05
3.25895e-05
3.25815e-05
3.25711e-05
3.25582e-05
3.25428e-05
3.25249e-05
3.25044e-05
3.24815e-05
3.24561e-05
3.24283e-05
3.23809e-05
3.20318e-05
3.18851e-05
3.17511e-05
3.16101e-05
3.14619e-05
3.13061e-05
3.11422e-05
3.09698e-05
3.07883e-05
3.05971e-05
3.03957e-05
3.01834e-05
2.99595e-05
2.97232e-05
2.94739e-05
2.92108e-05
2.8933e-05
2.86399e-05
2.83305e-05
2.80042e-05
2.76601e-05
2.72975e-05
2.69159e-05
2.65144e-05
2.60926e-05
2.565e-05
2.51863e-05
2.47012e-05
2.41948e-05
2.6165e-05
3.25721e-05
3.25816e-05
3.25895e-05
3.25959e-05
3.26006e-05
3.26034e-05
3.26043e-05
3.2603e-05
3.25996e-05
3.25939e-05
3.25858e-05
3.25752e-05
3.25622e-05
3.25466e-05
3.25284e-05
3.25077e-05
3.24845e-05
3.24587e-05
3.24305e-05
3.23826e-05
3.20322e-05
3.18847e-05
3.175e-05
3.16082e-05
3.14592e-05
3.13025e-05
3.11378e-05
3.09645e-05
3.07821e-05
3.059e-05
3.03877e-05
3.01745e-05
2.99497e-05
2.97126e-05
2.94625e-05
2.91985e-05
2.89199e-05
2.8626e-05
2.83158e-05
2.79887e-05
2.76439e-05
2.72807e-05
2.68984e-05
2.64964e-05
2.6074e-05
2.5631e-05
2.51668e-05
2.46814e-05
2.41746e-05
2.61398e-05
3.25767e-05
3.25863e-05
3.25943e-05
3.26008e-05
3.26055e-05
3.26083e-05
3.26092e-05
3.2608e-05
3.26045e-05
3.25987e-05
3.25905e-05
3.25798e-05
3.25666e-05
3.25508e-05
3.25324e-05
3.25114e-05
3.24878e-05
3.24617e-05
3.24331e-05
3.23847e-05
3.20328e-05
3.18846e-05
3.1749e-05
3.16064e-05
3.14565e-05
3.12989e-05
3.11332e-05
3.0959e-05
3.07756e-05
3.05827e-05
3.03794e-05
3.01653e-05
2.99396e-05
2.97015e-05
2.94505e-05
2.91856e-05
2.89061e-05
2.86113e-05
2.83004e-05
2.79725e-05
2.7627e-05
2.72631e-05
2.68801e-05
2.64774e-05
2.60545e-05
2.56109e-05
2.51463e-05
2.46605e-05
2.41534e-05
2.61135e-05
3.25816e-05
3.25913e-05
3.25994e-05
3.2606e-05
3.26108e-05
3.26137e-05
3.26146e-05
3.26133e-05
3.26099e-05
3.2604e-05
3.25957e-05
3.25849e-05
3.25715e-05
3.25555e-05
3.25368e-05
3.25155e-05
3.24916e-05
3.2465e-05
3.2436e-05
3.23871e-05
3.20337e-05
3.18846e-05
3.17482e-05
3.16047e-05
3.14538e-05
3.12953e-05
3.11286e-05
3.09534e-05
3.0769e-05
3.0575e-05
3.03708e-05
3.01556e-05
2.99289e-05
2.96899e-05
2.94379e-05
2.91721e-05
2.88917e-05
2.8596e-05
2.82842e-05
2.79555e-05
2.76092e-05
2.72445e-05
2.68608e-05
2.64575e-05
2.6034e-05
2.55898e-05
2.51247e-05
2.46385e-05
2.4131e-05
2.60856e-05
3.25868e-05
3.25966e-05
3.26049e-05
3.26116e-05
3.26165e-05
3.26194e-05
3.26204e-05
3.26192e-05
3.26157e-05
3.26098e-05
3.26014e-05
3.25905e-05
3.25769e-05
3.25607e-05
3.25417e-05
3.25201e-05
3.24958e-05
3.24688e-05
3.24393e-05
3.23899e-05
3.20348e-05
3.18849e-05
3.17475e-05
3.1603e-05
3.14512e-05
3.12916e-05
3.11239e-05
3.09476e-05
3.07622e-05
3.05671e-05
3.03618e-05
3.01456e-05
2.99178e-05
2.96778e-05
2.94247e-05
2.91579e-05
2.88766e-05
2.85799e-05
2.82672e-05
2.79377e-05
2.75905e-05
2.7225e-05
2.68406e-05
2.64366e-05
2.60124e-05
2.55677e-05
2.51021e-05
2.46154e-05
2.41074e-05
2.60561e-05
3.25923e-05
3.26023e-05
3.26107e-05
3.26175e-05
3.26226e-05
3.26256e-05
3.26267e-05
3.26255e-05
3.2622e-05
3.26161e-05
3.26076e-05
3.25966e-05
3.25829e-05
3.25664e-05
3.25472e-05
3.25252e-05
3.25005e-05
3.24731e-05
3.2443e-05
3.2393e-05
3.20363e-05
3.18854e-05
3.1747e-05
3.16015e-05
3.14486e-05
3.12879e-05
3.11191e-05
3.09417e-05
3.07552e-05
3.0559e-05
3.03525e-05
3.01352e-05
2.99063e-05
2.96651e-05
2.9411e-05
2.91431e-05
2.88608e-05
2.85631e-05
2.82494e-05
2.7919e-05
2.75709e-05
2.72046e-05
2.68195e-05
2.64147e-05
2.599e-05
2.55447e-05
2.50786e-05
2.45914e-05
2.4083e-05
2.60255e-05
3.25982e-05
3.26083e-05
3.2617e-05
3.26239e-05
3.26291e-05
3.26323e-05
3.26334e-05
3.26323e-05
3.26289e-05
3.26229e-05
3.26144e-05
3.26033e-05
3.25894e-05
3.25727e-05
3.25532e-05
3.25309e-05
3.25057e-05
3.24778e-05
3.24472e-05
3.23966e-05
3.20381e-05
3.18862e-05
3.17468e-05
3.16002e-05
3.14461e-05
3.12843e-05
3.11143e-05
3.09357e-05
3.07479e-05
3.05505e-05
3.03429e-05
3.01243e-05
2.98942e-05
2.96519e-05
2.93966e-05
2.91277e-05
2.88442e-05
2.85455e-05
2.82308e-05
2.78994e-05
2.75504e-05
2.71833e-05
2.67973e-05
2.63919e-05
2.59665e-05
2.55207e-05
2.50541e-05
2.45666e-05
2.40578e-05
2.59941e-05
3.26044e-05
3.26147e-05
3.26236e-05
3.26307e-05
3.26361e-05
3.26395e-05
3.26407e-05
3.26397e-05
3.26363e-05
3.26304e-05
3.26218e-05
3.26106e-05
3.25965e-05
3.25796e-05
3.25598e-05
3.25371e-05
3.25115e-05
3.24831e-05
3.24519e-05
3.24007e-05
3.20403e-05
3.18873e-05
3.17468e-05
3.1599e-05
3.14438e-05
3.12807e-05
3.11094e-05
3.09295e-05
3.07405e-05
3.05418e-05
3.03328e-05
3.0113e-05
2.98817e-05
2.96381e-05
2.93816e-05
2.91115e-05
2.88268e-05
2.8527e-05
2.82113e-05
2.78788e-05
2.75289e-05
2.71609e-05
2.67741e-05
2.63679e-05
2.59418e-05
2.54955e-05
2.50285e-05
2.45407e-05
2.40316e-05
2.59614e-05
3.26109e-05
3.26215e-05
3.26306e-05
3.2638e-05
3.26436e-05
3.26471e-05
3.26485e-05
3.26476e-05
3.26443e-05
3.26384e-05
3.26298e-05
3.26185e-05
3.26043e-05
3.25871e-05
3.2567e-05
3.2544e-05
3.2518e-05
3.2489e-05
3.24572e-05
3.24053e-05
3.20429e-05
3.18888e-05
3.17471e-05
3.15981e-05
3.14415e-05
3.12772e-05
3.11045e-05
3.09233e-05
3.07329e-05
3.05328e-05
3.03225e-05
3.01013e-05
2.98686e-05
2.96237e-05
2.93659e-05
2.90945e-05
2.88087e-05
2.85077e-05
2.81908e-05
2.78572e-05
2.75063e-05
2.71373e-05
2.67496e-05
2.63427e-05
2.59159e-05
2.54689e-05
2.50015e-05
2.45134e-05
2.4004e-05
2.5927e-05
3.26178e-05
3.26287e-05
3.26381e-05
3.26457e-05
3.26515e-05
3.26553e-05
3.26569e-05
3.26562e-05
3.26529e-05
3.26471e-05
3.26385e-05
3.26271e-05
3.26127e-05
3.25954e-05
3.2575e-05
3.25515e-05
3.2525e-05
3.24955e-05
3.24631e-05
3.24104e-05
3.20459e-05
3.18907e-05
3.17477e-05
3.15974e-05
3.14395e-05
3.12737e-05
3.10996e-05
3.09169e-05
3.07251e-05
3.05235e-05
3.03118e-05
3.00891e-05
2.9855e-05
2.96087e-05
2.93496e-05
2.90768e-05
2.87896e-05
2.84873e-05
2.81692e-05
2.78345e-05
2.74825e-05
2.71125e-05
2.67239e-05
2.63161e-05
2.58885e-05
2.5441e-05
2.49731e-05
2.44845e-05
2.39748e-05
2.58908e-05
3.2625e-05
3.26363e-05
3.2646e-05
3.26539e-05
3.266e-05
3.26641e-05
3.26659e-05
3.26653e-05
3.26622e-05
3.26565e-05
3.26479e-05
3.26364e-05
3.2622e-05
3.26044e-05
3.25837e-05
3.25598e-05
3.25329e-05
3.25028e-05
3.24696e-05
3.24161e-05
3.20495e-05
3.1893e-05
3.17486e-05
3.15969e-05
3.14376e-05
3.12703e-05
3.10947e-05
3.09105e-05
3.07171e-05
3.0514e-05
3.03007e-05
3.00765e-05
2.98409e-05
2.95931e-05
2.93324e-05
2.90582e-05
2.87696e-05
2.8466e-05
2.81466e-05
2.78107e-05
2.74575e-05
2.70864e-05
2.66967e-05
2.6288e-05
2.58597e-05
2.54114e-05
2.4943e-05
2.4454e-05
2.39439e-05
2.58525e-05
3.26326e-05
3.26443e-05
3.26543e-05
3.26626e-05
3.2669e-05
3.26734e-05
3.26755e-05
3.26751e-05
3.26722e-05
3.26666e-05
3.26581e-05
3.26466e-05
3.2632e-05
3.26142e-05
3.25932e-05
3.25689e-05
3.25414e-05
3.25107e-05
3.24769e-05
3.24225e-05
3.20536e-05
3.18957e-05
3.175e-05
3.15968e-05
3.14359e-05
3.1267e-05
3.10898e-05
3.0904e-05
3.07089e-05
3.05042e-05
3.02892e-05
3.00634e-05
2.98262e-05
2.95768e-05
2.93146e-05
2.90388e-05
2.87488e-05
2.84437e-05
2.81229e-05
2.77856e-05
2.74312e-05
2.70589e-05
2.66682e-05
2.62584e-05
2.58292e-05
2.53802e-05
2.49111e-05
2.44217e-05
2.39112e-05
2.5812e-05
3.26406e-05
3.26526e-05
3.26631e-05
3.26718e-05
3.26786e-05
3.26833e-05
3.26857e-05
3.26857e-05
3.2683e-05
3.26775e-05
3.26691e-05
3.26575e-05
3.26428e-05
3.26249e-05
3.26036e-05
3.25789e-05
3.25508e-05
3.25195e-05
3.24849e-05
3.24296e-05
3.20583e-05
3.1899e-05
3.17517e-05
3.1597e-05
3.14344e-05
3.12639e-05
3.1085e-05
3.08974e-05
3.07006e-05
3.04941e-05
3.02774e-05
3.00498e-05
2.98109e-05
2.95598e-05
2.92959e-05
2.90185e-05
2.87269e-05
2.84203e-05
2.8098e-05
2.77594e-05
2.74036e-05
2.703e-05
2.66381e-05
2.62273e-05
2.57971e-05
2.53472e-05
2.48775e-05
2.43875e-05
2.38765e-05
2.57691e-05
3.2649e-05
3.26615e-05
3.26724e-05
3.26815e-05
3.26888e-05
3.26939e-05
3.26966e-05
3.26969e-05
3.26945e-05
3.26892e-05
3.26809e-05
3.26694e-05
3.26546e-05
3.26364e-05
3.26148e-05
3.25897e-05
3.25612e-05
3.25291e-05
3.24937e-05
3.24375e-05
3.20637e-05
3.19029e-05
3.1754e-05
3.15975e-05
3.14333e-05
3.12609e-05
3.10802e-05
3.08907e-05
3.06921e-05
3.04837e-05
3.02651e-05
3.00358e-05
2.9795e-05
2.95421e-05
2.92764e-05
2.89973e-05
2.8704e-05
2.83958e-05
2.8072e-05
2.77318e-05
2.73746e-05
2.69997e-05
2.66065e-05
2.61946e-05
2.57633e-05
2.53126e-05
2.4842e-05
2.43514e-05
2.38399e-05
2.57237e-05
3.26577e-05
3.26707e-05
3.26821e-05
3.26918e-05
3.26995e-05
3.27051e-05
3.27083e-05
3.27089e-05
3.27068e-05
3.27018e-05
3.26936e-05
3.26822e-05
3.26674e-05
3.2649e-05
3.26271e-05
3.26016e-05
3.25724e-05
3.25397e-05
3.25034e-05
3.24462e-05
3.20698e-05
3.19073e-05
3.17568e-05
3.15985e-05
3.14324e-05
3.12582e-05
3.10755e-05
3.08841e-05
3.06834e-05
3.04731e-05
3.02525e-05
3.00212e-05
2.97784e-05
2.95237e-05
2.92561e-05
2.89752e-05
2.86801e-05
2.83702e-05
2.80447e-05
2.77029e-05
2.73442e-05
2.69679e-05
2.65734e-05
2.61602e-05
2.57279e-05
2.52761e-05
2.48048e-05
2.43134e-05
2.38013e-05
2.5676e-05
3.26669e-05
3.26804e-05
3.26924e-05
3.27026e-05
3.27109e-05
3.2717e-05
3.27207e-05
3.27217e-05
3.272e-05
3.27153e-05
3.27073e-05
3.2696e-05
3.26811e-05
3.26627e-05
3.26405e-05
3.26145e-05
3.25848e-05
3.25513e-05
3.25141e-05
3.24559e-05
3.20766e-05
3.19125e-05
3.17601e-05
3.16e-05
3.14319e-05
3.12557e-05
3.10709e-05
3.08774e-05
3.06747e-05
3.04622e-05
3.02396e-05
3.00061e-05
2.97613e-05
2.95045e-05
2.9235e-05
2.89521e-05
2.86551e-05
2.83434e-05
2.80161e-05
2.76727e-05
2.73124e-05
2.69345e-05
2.65386e-05
2.61241e-05
2.56906e-05
2.52379e-05
2.47656e-05
2.42735e-05
2.37607e-05
2.56257e-05
3.26764e-05
3.26906e-05
3.27032e-05
3.2714e-05
3.27229e-05
3.27296e-05
3.27338e-05
3.27354e-05
3.27341e-05
3.27297e-05
3.2722e-05
3.27108e-05
3.2696e-05
3.26774e-05
3.26549e-05
3.26285e-05
3.25982e-05
3.25639e-05
3.25258e-05