/*--------------------------------*- C++ -*----------------------------------*\
  =========                 |
  \\      /  F ield         | OpenFOAM: The Open Source CFD Toolbox
   \\    /   O peration     | Website:  https://openfoam.org
    \\  /    A nd           | Version:  9
     \\/     M anipulation  |
\*---------------------------------------------------------------------------*/
FoamFile
{
    format      ascii;
    class       surfaceVectorField;
    location    "0.02";
    object      Uf;
}
// * * * * * * * * * * * * * * * * * * * * * * * * * * * * * * * * * * * * * //

dimensions      [0 1 -1 0 0 0 0];

internalField   nonuniform List<vector> 
9850
(
(6.20096e-05 0 -0.112716)
(0.000114237 0 -0.111769)
(5.46352e-05 0 -0.114533)
(0.000102105 0 -0.113714)
(4.60613e-05 0 -0.116082)
(8.78664e-05 0 -0.115404)
(3.62948e-05 0 -0.11734)
(7.15097e-05 0 -0.116814)
(2.53976e-05 0 -0.118282)
(5.31071e-05 0 -0.11792)
(1.34763e-05 0 -0.118883)
(3.28196e-05 0 -0.118698)
(6.77735e-07 0 -0.119122)
(1.09002e-05 0 -0.119123)
(-1.27602e-05 0 -0.118977)
(-1.23397e-05 0 -0.119175)
(-2.66391e-05 0 -0.118428)
(-3.65031e-05 0 -0.118832)
(-4.06725e-05 0 -0.11746)
(-6.11142e-05 0 -0.118078)
(-5.45528e-05 0 -0.11606)
(-8.56603e-05 0 -0.116897)
(-6.79556e-05 0 -0.114218)
(-0.000109576 0 -0.115278)
(-8.05499e-05 0 -0.111928)
(-0.000132275 0 -0.113213)
(-9.20097e-05 0 -0.10919)
(-0.000153175 0 -0.110699)
(-0.000102029 0 -0.106007)
(-0.000171712 0 -0.107737)
(-0.00011034 0 -0.102387)
(-0.000187376 0 -0.104333)
(-0.000116735 0 -0.0983405)
(-0.000199741 0 -0.100496)
(-0.000121058 0 -0.0938834)
(-0.00020848 0 -0.0962409)
(-0.000123192 0 -0.0890335)
(-0.000213348 0 -0.0915822)
(-0.000123124 0 -0.0838219)
(-0.000214263 0 -0.086541)
(-0.000121011 0 -0.0793136)
(-0.000211377 0 -0.0816508)
(-0.000117558 0 -0.0748272)
(-0.000205611 0 -0.0771396)
(-0.000113077 0 -0.0704035)
(-0.000197844 0 -0.0726761)
(-0.000107841 0 -0.0660675)
(-0.000188517 0 -0.0682895)
(-0.000102057 0 -0.0618375)
(-0.000178048 0 -0.0640006)
(-9.58919e-05 0 -0.057728)
(-0.000166779 0 -0.0598256)
(-8.94879e-05 0 -0.0537503)
(-0.000154994 0 -0.0557774)
(-8.29656e-05 0 -0.0499127)
(-0.00014293 0 -0.0518656)
(-7.64261e-05 0 -0.0462212)
(-0.000130791 0 -0.0480975)
(-6.99519e-05 0 -0.0426794)
(-0.000118742 0 -0.0444776)
(-6.36091e-05 0 -0.0392893)
(-0.000106918 0 -0.0410088)
(-5.74496e-05 0 -0.0360515)
(-9.54265e-05 0 -0.0376924)
(-5.1514e-05 0 -0.0329656)
(-8.43505e-05 0 -0.0345282)
(-4.58329e-05 0 -0.03003)
(-7.37544e-05 0 -0.0315153)
(-4.04299e-05 0 -0.0272429)
(-6.36864e-05 0 -0.0286521)
(-3.53218e-05 0 -0.0246016)
(-5.41818e-05 0 -0.0259361)
(-3.05206e-05 0 -0.0221032)
(-4.52649e-05 0 -0.0233645)
(-2.60338e-05 0 -0.0197442)
(-3.69507e-05 0 -0.0209343)
(-2.18645e-05 0 -0.017521)
(-2.92459e-05 0 -0.0186417)
(-1.80116e-05 0 -0.0154297)
(-2.21487e-05 0 -0.0164831)
(-1.44704e-05 0 -0.0134662)
(-1.56489e-05 0 -0.0144545)
(-1.12385e-05 0 -0.011626)
(-9.73207e-06 0 -0.0125515)
(-8.3297e-06 0 -0.00990378)
(-4.39528e-06 0 -0.0107695)
(-5.7904e-06 0 -0.00829244)
(3.19071e-07 0 -0.00910249)
(-3.68023e-06 0 -0.00678229)
(4.32453e-06 0 -0.00754202)
(-1.97265e-06 0 -0.00536294)
(7.58761e-06 0 -0.00607737)
(-3.89964e-07 0 -0.00402881)
(1.04151e-05 0 -0.00469936)
(1.52652e-06 0 -0.00278376)
(1.31718e-05 0 -0.00340705)
(4.47717e-06 0 -0.00161592)
(1.6754e-05 0 -0.00221023)
(2.5179e-05 0 -0.00107991)
(0.000154872 0 -0.112803)
(0.000200755 0 -0.111758)
(0.000135876 0 -0.114621)
(0.000178926 0 -0.113702)
(0.000113841 0 -0.116172)
(0.000153325 0 -0.115389)
(8.88153e-05 0 -0.11743)
(0.000123953 0 -0.116797)
(6.09684e-05 0 -0.118373)
(9.09667e-05 0 -0.117901)
(3.06028e-05 0 -0.118975)
(5.46776e-05 0 -0.118677)
(-1.88194e-06 0 -0.119214)
(1.55456e-05 0 -0.119102)
(-3.59188e-05 0 -0.119068)
(-2.5838e-05 0 -0.119152)
(-7.09309e-05 0 -0.118519)
(-6.87481e-05 0 -0.118809)
(-0.000106194 0 -0.117551)
(-0.00011233 0 -0.118055)
(-0.00014092 0 -0.11615)
(-0.000155647 0 -0.116874)
(-0.000174281 0 -0.114307)
(-0.000197678 0 -0.115255)
(-0.000205432 0 -0.112017)
(-0.000237374 0 -0.113192)
(-0.000233548 0 -0.109278)
(-0.000273685 0 -0.11068)
(-0.000257853 0 -0.106093)
(-0.000305608 0 -0.107721)
(-0.00027767 0 -0.102471)
(-0.000332227 0 -0.10432)
(-0.000292454 0 -0.0984234)
(-0.000352778 0 -0.100487)
(-0.000301805 0 -0.0939643)
(-0.000366668 0 -0.0962346)
(-0.000305438 0 -0.089112)
(-0.000373436 0 -0.0915797)
(-0.000303303 0 -0.0838977)
(-0.000372837 0 -0.0865424)
(-0.000296422 0 -0.0793868)
(-0.000365638 0 -0.0816564)
(-0.000286265 0 -0.0748978)
(-0.000353751 0 -0.0771483)
(-0.000273511 0 -0.0704715)
(-0.000338305 0 -0.0726875)
(-0.000258836 0 -0.0661328)
(-0.000320072 0 -0.0683033)
(-0.000242792 0 -0.0619001)
(-0.00029983 0 -0.0640165)
(-0.000225828 0 -0.0577879)
(-0.000278216 0 -0.0598432)
(-0.000208321 0 -0.0538076)
(-0.000255753 0 -0.0557964)
(-0.000190591 0 -0.0499675)
(-0.000232881 0 -0.0518859)
(-0.000172904 0 -0.0462734)
(-0.000209972 0 -0.0481187)
(-0.000155477 0 -0.0427291)
(-0.000187328 0 -0.0444995)
(-0.000138485 0 -0.0393367)
(-0.000165195 0 -0.0410313)
(-0.000122064 0 -0.0360966)
(-0.000143766 0 -0.0377151)
(-0.00010632 0 -0.0330083)
(-0.000123193 0 -0.034551)
(-9.13346e-05 0 -0.0300706)
(-0.000103588 0 -0.0315381)
(-7.71667e-05 0 -0.0272813)
(-8.50386e-05 0 -0.0286747)
(-6.38584e-05 0 -0.024638)
(-6.76025e-05 0 -0.0259583)
(-5.14364e-05 0 -0.0221375)
(-5.13191e-05 0 -0.0233863)
(-3.99148e-05 0 -0.0197766)
(-3.62089e-05 0 -0.0209554)
(-2.92948e-05 0 -0.0175515)
(-2.2276e-05 0 -0.0186622)
(-1.9566e-05 0 -0.0154584)
(-9.51068e-06 0 -0.0165028)
(-1.07078e-05 0 -0.013493)
(2.11285e-06 0 -0.0144732)
(-2.70452e-06 0 -0.011651)
(1.26284e-05 0 -0.0125693)
(4.42367e-06 0 -0.00992681)
(2.20502e-05 0 -0.0107861)
(1.05953e-05 0 -0.00831318)
(3.03253e-05 0 -0.00911756)
(1.57178e-05 0 -0.00680058)
(3.73418e-05 0 -0.00755514)
(1.99437e-05 0 -0.00537958)
(4.31001e-05 0 -0.00608872)
(2.40388e-05 0 -0.00404587)
(4.80958e-05 0 -0.00471091)
(2.9204e-05 0 -0.00280464)
(5.29721e-05 0 -0.00342235)
(3.62582e-05 0 -0.00164737)
(5.88667e-05 0 -0.00223216)
(7.04449e-05 0 -0.00110935)
(0.000225451 0 -0.112766)
(0.000267035 0 -0.111742)
(0.000197016 0 -0.114581)
(0.000237276 0 -0.113683)
(0.000164051 0 -0.116129)
(0.000202366 0 -0.115367)
(0.000126674 0 -0.117384)
(0.000162357 0 -0.116772)
(8.51709e-05 0 -0.118324)
(0.000117484 0 -0.117874)
(4.0021e-05 0 -0.118924)
(6.82012e-05 0 -0.118647)
(-8.14482e-06 0 -0.119161)
(1.51614e-05 0 -0.11907)
(-5.85106e-05 0 -0.119014)
(-4.07936e-05 0 -0.119119)
(-0.000110137 0 -0.118465)
(-9.86509e-05 0 -0.118775)
(-0.000161941 0 -0.117497)
(-0.000157235 0 -0.11802)
(-0.000212738 0 -0.116097)
(-0.00021524 0 -0.11684)
(-0.000261283 0 -0.114256)
(-0.000271264 0 -0.115223)
(-0.000306313 0 -0.111968)
(-0.000323864 0 -0.113162)
(-0.000346596 0 -0.109232)
(-0.000371605 0 -0.110653)
(-0.00038098 0 -0.106052)
(-0.000413116 0 -0.107698)
(-0.000408454 0 -0.102435)
(-0.000447151 0 -0.104301)
(-0.000428201 0 -0.0983924)
(-0.00047266 0 -0.100473)
(-0.000439604 0 -0.093939)
(-0.000488837 0 -0.096227)
(-0.000442202 0 -0.0890928)
(-0.000495024 0 -0.091578)
(-0.000435531 0 -0.0838844)
(-0.000490707 0 -0.0865468)
(-0.000423379 0 -0.0793785)
(-0.000477714 0 -0.0816663)
(-0.000406117 0 -0.0748941)
(-0.000459001 0 -0.077163)
(-0.000384975 0 -0.0704718)
(-0.000435418 0 -0.0727064)
(-0.000361014 0 -0.0661367)
(-0.000408058 0 -0.0683258)
(-0.000335079 0 -0.0619072)
(-0.000378039 0 -0.064042)
(-0.000307866 0 -0.0577978)
(-0.000346256 0 -0.0598714)
(-0.000279959 0 -0.0538199)
(-0.000313439 0 -0.0558268)
(-0.000251847 0 -0.0499818)
(-0.000280205 0 -0.051918)
(-0.000223936 0 -0.0462894)
(-0.000247069 0 -0.0481521)
(-0.000196556 0 -0.0427465)
(-0.000214452 0 -0.044534)
(-0.000169969 0 -0.0393551)
(-0.000182691 0 -0.0410663)
(-0.00014438 0 -0.0361158)
(-0.000152052 0 -0.0377505)
(-0.000119947 0 -0.0330282)
(-0.00012274 0 -0.0345865)
(-9.67857e-05 0 -0.0300908)
(-9.49066e-05 0 -0.0315734)
(-7.49811e-05 0 -0.0273016)
(-6.86632e-05 0 -0.0287094)
(-5.4588e-05 0 -0.0246582)
(-4.40841e-05 0 -0.0259924)
(-3.56387e-05 0 -0.0221575)
(-2.12147e-05 0 -0.0234195)
(-1.81436e-05 0 -0.0197961)
(-7.41956e-08 0 -0.0209876)
(-2.09429e-06 0 -0.0175704)
(1.93423e-05 0 -0.0186931)
(1.25364e-05 0 -0.0154765)
(3.70575e-05 0 -0.0165323)
(2.57855e-05 0 -0.0135103)
(5.31143e-05 0 -0.0145013)
(3.76841e-05 0 -0.0116673)
(6.75641e-05 0 -0.0125957)
(4.82196e-05 0 -0.00994169)
(8.04322e-05 0 -0.0108106)
(5.73131e-05 0 -0.00832621)
(9.16767e-05 0 -0.00913977)
(6.49079e-05 0 -0.00681164)
(0.000101202 0 -0.0075746)
(7.12558e-05 0 -0.00538992)
(0.000109068 0 -0.00610579)
(7.72654e-05 0 -0.00405875)
(0.000115846 0 -0.00472787)
(8.42311e-05 0 -0.00282284)
(0.000122254 0 -0.00344299)
(9.2186e-05 0 -0.00166819)
(0.00012927 0 -0.0022569)
(0.000139659 0 -0.0011302)
(0.0002794 0 -0.1127)
(0.00031576 0 -0.111722)
(0.000243174 0 -0.114511)
(0.000279668 0 -0.113658)
(0.000201196 0 -0.116054)
(0.000237303 0 -0.115339)
(0.000153636 0 -0.117306)
(0.000188783 0 -0.11674)
(0.000100914 0 -0.118242)
(0.000134409 0 -0.117838)
(4.36598e-05 0 -0.118838)
(7.47772e-05 0 -0.118609)
(-1.72805e-05 0 -0.119073)
(1.07209e-05 0 -0.119029)
(-8.08395e-05 0 -0.118925)
(-5.6702e-05 0 -0.119076)
(-0.000145789 0 -0.118376)
(-0.00012622 0 -0.118731)
(-0.000210723 0 -0.117409)
(-0.000196376 0 -0.117977)
(-0.00027411 0 -0.116011)
(-0.000265548 0 -0.116798)
(-0.000334346 0 -0.114173)
(-0.000332007 0 -0.115183)
(-0.000389809 0 -0.11189)
(-0.000393976 0 -0.113125)
(-0.00043892 0 -0.10916)
(-0.000449692 0 -0.110621)
(-0.000480208 0 -0.105987)
(-0.000497478 0 -0.10767)
(-0.000512384 0 -0.102377)
(-0.000535813 0 -0.10428)
(-0.000534396 0 -0.0983435)
(-0.000563413 0 -0.100459)
(-0.000545428 0 -0.0938993)
(-0.000579294 0 -0.0962196)
(-0.000544879 0 -0.0890627)
(-0.000582689 0 -0.0915783)
(-0.000532336 0 -0.0838646)
(-0.000572885 0 -0.0865551)
(-0.000513539 0 -0.0793672)
(-0.000552734 0 -0.0816816)
(-0.00048837 0 -0.0748904)
(-0.000526169 0 -0.0771845)
(-0.00045832 0 -0.070475)
(-0.000493722 0 -0.0727333)
(-0.000424743 0 -0.0661459)
(-0.000456769 0 -0.0683574)
(-0.000388753 0 -0.0619217)
(-0.000416703 0 -0.0640776)
(-0.000351266 0 -0.0578169)
(-0.000374633 0 -0.0599102)
(-0.000313048 0 -0.053843)
(-0.000331472 0 -0.0558683)
(-0.000274737 0 -0.0500083)
(-0.000287991 0 -0.0519617)
(-0.00023686 0 -0.0463188)
(-0.00024483 0 -0.0481975)
(-0.000199844 0 -0.0427782)
(-0.000202511 0 -0.0445805)
(-0.000164027 0 -0.0393886)
(-0.000161447 0 -0.0411136)
(-0.00012967 0 -0.0361506)
(-0.000121966 0 -0.037798)
(-9.69727e-05 0 -0.0330639)
(-8.43158e-05 0 -0.0346339)
(-6.60793e-05 0 -0.030127)
(-4.86786e-05 0 -0.0316204)
(-3.70902e-05 0 -0.027338)
(-1.51838e-05 0 -0.0287557)
(-1.00685e-05 0 -0.0246943)
(1.60852e-05 0 -0.0260376)
(1.49555e-05 0 -0.0221931)
(4.50818e-05 0 -0.0234634)
(3.7977e-05 0 -0.0198309)
(7.17923e-05 0 -0.0210299)
(5.90168e-05 0 -0.0176042)
(9.62324e-05 0 -0.0187336)
(7.81165e-05 0 -0.015509)
(0.000118441 0 -0.0165709)
(9.53313e-05 0 -0.0135413)
(0.000138478 0 -0.0145378)
(0.000110706 0 -0.0116965)
(0.000156411 0 -0.0126298)
(0.000124241 0 -0.00996869)
(0.000172278 0 -0.0108422)
(0.000135878 0 -0.00835054)
(0.000186054 0 -0.00916822)
(0.000145611 0 -0.00683332)
(0.000197671 0 -0.00759957)
(0.000153748 0 -0.00541038)
(0.000207229 0 -0.00612769)
(0.000161141 0 -0.00408089)
(0.00021528 0 -0.00474875)
(0.000168779 0 -0.00284814)
(0.000222338 0 -0.00346562)
(0.000176396 0 -0.00169152)
(0.000229173 0 -0.00228059)
(0.000237231 0 -0.00114708)
(0.000316461 0 -0.112665)
(0.000346037 0 -0.111699)
(0.000274257 0 -0.114471)
(0.000305379 0 -0.11363)
(0.00022533 0 -0.11601)
(0.000257593 0 -0.115306)
(0.000169927 0 -0.117258)
(0.000202869 0 -0.116703)
(0.000108585 0 -0.11819)
(0.000141569 0 -0.117798)
(4.20736e-05 0 -0.118784)
(7.443e-05 0 -0.118565)
(-2.85652e-05 0 -0.119016)
(2.43862e-06 0 -0.118982)
(-0.000102049 0 -0.118867)
(-7.31554e-05 0 -0.119027)
(-0.000176895 0 -0.118317)
(-0.000150858 0 -0.118681)
(-0.000251421 0 -0.11735)
(-0.000228971 0 -0.117927)
(-0.0003238 0 -0.115955)
(-0.000305609 0 -0.116749)
(-0.000392128 0 -0.11412)
(-0.000378771 0 -0.115137)
(-0.000454482 0 -0.111841)
(-0.000446405 0 -0.113083)
(-0.000508995 0 -0.109117)
(-0.000506484 0 -0.110584)
(-0.000553935 0 -0.10595)
(-0.00055708 0 -0.10764)
(-0.000587784 0 -0.102348)
(-0.000596455 0 -0.104257)
(-0.000609309 0 -0.0983229)
(-0.000623141 0 -0.100444)
(-0.000617556 0 -0.0938875)
(-0.00063602 0 -0.0962141)
(-0.000611872 0 -0.0890602)
(-0.000634285 0 -0.0915821)
(-0.000592015 0 -0.0838719)
(-0.000617154 0 -0.0865683)
(-0.000565285 0 -0.0793824)
(-0.000588403 0 -0.0817033)
(-0.000531281 0 -0.0749127)
(-0.000552855 0 -0.0772135)
(-0.000491691 0 -0.0705034)
(-0.000510749 0 -0.0727688)
(-0.000448096 0 -0.0661796)
(-0.000463675 0 -0.0683984)
(-0.000401829 0 -0.06196)
(-0.000413233 0 -0.0641233)
(-0.000353991 0 -0.057859)
(-0.000360712 0 -0.0599598)
(-0.000305502 0 -0.0538882)
(-0.000307182 0 -0.0559211)
(-0.000257129 0 -0.050056)
(-0.000253542 0 -0.0520169)
(-0.000209502 0 -0.0463683)
(-0.000200536 0 -0.0482545)
(-0.000163129 0 -0.042829)
(-0.000148768 0 -0.0446388)
(-0.000118411 0 -0.0394402)
(-9.8716e-05 0 -0.0411725)
(-7.56559e-05 0 -0.0362025)
(-5.07545e-05 0 -0.0378571)
(-3.50949e-05 0 -0.0331156)
(-5.16403e-06 0 -0.0346927)
(3.10668e-06 0 -0.0301781)
(3.78515e-05 0 -0.0316784)
(3.8838e-05 0 -0.0273882)
(7.81523e-05 0 -0.0288126)
(7.20336e-05 0 -0.0247433)
(0.000115652 0 -0.026093)
(0.000102666 0 -0.0222405)
(0.000150311 0 -0.023517)
(0.000130741 0 -0.0198765)
(0.000182125 0 -0.0210815)
(0.000156295 0 -0.0176477)
(0.000211125 0 -0.0187829)
(0.000179386 0 -0.0155502)
(0.00023737 0 -0.0166176)
(0.000200086 0 -0.01358)
(0.000260941 0 -0.0145816)
(0.000218455 0 -0.0117323)
(0.000281925 0 -0.0126707)
(0.000234508 0 -0.0100013)
(0.000300378 0 -0.0108796)
(0.000248213 0 -0.0083795)
(0.000316299 0 -0.00920176)
(0.000259585 0 -0.00685859)
(0.000329656 0 -0.00762876)
(0.000268896 0 -0.00543301)
(0.000340555 0 -0.00615277)
(0.000276782 0 -0.00410279)
(0.000349445 0 -0.00477103)
(0.000283852 0 -0.00286978)
(0.000356537 0 -0.00348659)
(0.000289868 0 -0.0017091)
(0.000362352 0 -0.00229931)
(0.000368301 0 -0.00115889)
(0.000335279 0 -0.112647)
(0.000357087 0 -0.111673)
(0.000289094 0 -0.114449)
(0.000313739 0 -0.1136)
(0.000235483 0 -0.115983)
(0.000262676 0 -0.115271)
(0.00017479 0 -0.117226)
(0.000204161 0 -0.116663)
(0.00010764 0 -0.118155)
(0.000138623 0 -0.117753)
(3.49464e-05 0 -0.118745)
(6.69242e-05 0 -0.118516)
(-4.20863e-05 0 -0.118976)
(-9.81816e-06 0 -0.11893)
(-0.00012199 0 -0.118825)
(-9.01835e-05 0 -0.118974)
(-0.000203069 0 -0.118274)
(-0.000172495 0 -0.118627)
(-0.000283409 0 -0.117309)
(-0.000254855 0 -0.117873)
(-0.000360947 0 -0.115915)
(-0.000335165 0 -0.116698)
(-0.000433532 0 -0.114084)
(-0.000411205 0 -0.115089)
(-0.000499003 0 -0.11181)
(-0.000480707 0 -0.11304)
(-0.000555267 0 -0.109092)
(-0.000541436 0 -0.110547)
(-0.000600386 0 -0.105932)
(-0.000591277 0 -0.10761)
(-0.000632672 0 -0.102339)
(-0.000628326 0 -0.104236)
(-0.000650759 0 -0.0983218)
(-0.000650983 0 -0.100432)
(-0.000653617 0 -0.0938957)
(-0.000658033 0 -0.0962122)
(-0.000640568 0 -0.089078)
(-0.000648653 0 -0.0915908)
(-0.000611407 0 -0.0838992)
(-0.000622055 0 -0.0865877)
(-0.00057556 0 -0.0794174)
(-0.000583079 0 -0.0817325)
(-0.000531769 0 -0.0749546)
(-0.000537408 0 -0.077251)
(-0.000481947 0 -0.0705513)
(-0.000484801 0 -0.0728136)
(-0.000427878 0 -0.0662326)
(-0.000427 0 -0.0684493)
(-0.000371067 0 -0.0620171)
(-0.000365777 0 -0.0641794)
(-0.00031277 0 -0.0579195)
(-0.000302572 0 -0.0600203)
(-0.000254034 0 -0.0539512)
(-0.000238583 0 -0.055985)
(-0.000195731 0 -0.0501209)
(-0.000174813 0 -0.0520834)
(-0.000138574 0 -0.0464344)
(-0.00011209 0 -0.048323)
(-8.31357e-05 0 -0.0428958)
(-5.10803e-05 0 -0.0447084)
(-2.98644e-05 0 -0.039507)
(7.68835e-06 0 -0.0412427)
(2.08979e-05 0 -0.0362689)
(6.38097e-05 0 -0.0379272)
(6.88987e-05 0 -0.0331811)
(0.000116982 0 -0.0347622)
(0.000113961 0 -0.0302423)
(0.000166991 0 -0.0317469)
(0.000155973 0 -0.0274507)
(0.000213697 0 -0.0288795)
(0.000194874 0 -0.0248037)
(0.000257021 0 -0.026158)
(0.000230648 0 -0.0222985)
(0.000296933 0 -0.0235797)
(0.000263319 0 -0.0199319)
(0.00033345 0 -0.0211415)
(0.000292941 0 -0.0177002)
(0.000366625 0 -0.01884)
(0.000319598 0 -0.0155996)
(0.000396542 0 -0.0166715)
(0.000343383 0 -0.013626)
(0.000423309 0 -0.0146321)
(0.000364382 0 -0.0117747)
(0.000447038 0 -0.0127174)
(0.000382636 0 -0.0100395)
(0.000467815 0 -0.0109222)
(0.000398146 0 -0.00841311)
(0.000485673 0 -0.00923974)
(0.00041095 0 -0.00688742)
(0.000500621 0 -0.00766167)
(0.000421261 0 -0.00545758)
(0.000512775 0 -0.00618056)
(0.000429495 0 -0.00412401)
(0.00052248 0 -0.00479432)
(0.000436033 0 -0.00288769)
(0.000529716 0 -0.00350599)
(0.000440836 0 -0.00172183)
(0.00053484 0 -0.00231426)
(0.00053976 0 -0.00116738)
(0.000335765 0 -0.112624)
(0.00034918 0 -0.111646)
(0.000287619 0 -0.114421)
(0.000305029 0 -0.113567)
(0.000231619 0 -0.11595)
(0.000252825 0 -0.115233)
(0.00016819 0 -0.117189)
(0.000192917 0 -0.116621)
(9.80478e-05 0 -0.118114)
(0.000125796 0 -0.117706)
(2.22333e-05 0 -0.118701)
(5.2427e-05 0 -0.118466)
(-5.79159e-05 0 -0.118928)
(-2.59474e-05 0 -0.118877)
(-0.000140772 0 -0.118776)
(-0.000107767 0 -0.118919)
(-0.000224462 0 -0.118226)
(-0.000191207 0 -0.118572)
(-0.00030689 0 -0.117262)
(-0.000274208 0 -0.117818)
(-0.000385803 0 -0.115871)
(-0.000354503 0 -0.116645)
(-0.000458859 0 -0.114044)
(-0.000429704 0 -0.11504)
(-0.000523714 0 -0.111776)
(-0.000497379 0 -0.112997)
(-0.000578105 0 -0.109065)
(-0.000555141 0 -0.11051)
(-0.000619945 0 -0.105913)
(-0.000600737 0 -0.107582)
(-0.000647424 0 -0.102329)
(-0.000632149 0 -0.104217)
(-0.000659085 0 -0.0983223)
(-0.000647693 0 -0.100424)
(-0.000653854 0 -0.0939069)
(-0.000646087 0 -0.0962157)
(-0.000631034 0 -0.0891001)
(-0.000626508 0 -0.091606)
(-0.000590424 0 -0.0839322)
(-0.000588184 0 -0.0866148)
(-0.000544172 0 -0.0794589)
(-0.000537272 0 -0.0817703)
(-0.000489579 0 -0.0750039)
(-0.000480288 0 -0.0772977)
(-0.000428755 0 -0.0706073)
(-0.000416249 0 -0.0728682)
(-0.000363655 0 -0.0662942)
(-0.000347008 0 -0.0685106)
(-0.000295931 0 -0.0620833)
(-0.000274486 0 -0.0642463)
(-0.000226963 0 -0.0579894)
(-0.000200248 0 -0.0600917)
(-0.0001579 0 -0.0540241)
(-0.000125594 0 -0.0560601)
(-8.96953e-05 0 -0.0501958)
(-5.16074e-05 0 -0.0521612)
(-2.31261e-05 0 -0.0465106)
(2.08233e-05 0 -0.0484026)
(4.11886e-05 0 -0.0429726)
(9.09844e-05 0 -0.0447891)
(0.000102768 0 -0.0395838)
(0.000158317 0 -0.0413237)
(0.000161248 0 -0.036345)
(0.000222397 0 -0.038008)
(0.00021637 0 -0.0332561)
(0.000282914 0 -0.0348421)
(0.000267955 0 -0.0303157)
(0.000339655 0 -0.0318252)
(0.000315899 0 -0.0275219)
(0.000392488 0 -0.0289559)
(0.000360156 0 -0.0248725)
(0.000441351 0 -0.026232)
(0.000400731 0 -0.0223645)
(0.000486236 0 -0.0236508)
(0.00043767 0 -0.0199946)
(0.000527184 0 -0.0212094)
(0.000471057 0 -0.0177595)
(0.000564275 0 -0.0189043)
(0.000501002 0 -0.0156552)
(0.000597625 0 -0.016732)
(0.000527631 0 -0.0136777)
(0.000627373 0 -0.0146886)
(0.000551058 0 -0.0118221)
(0.000653661 0 -0.0127696)
(0.00057136 0 -0.0100822)
(0.000676605 0 -0.0109697)
(0.000588581 0 -0.00845057)
(0.000696279 0 -0.00928195)
(0.000602791 0 -0.00691939)
(0.000712737 0 -0.0076982)
(0.000614163 0 -0.00548415)
(0.000726113 0 -0.00621124)
(0.000622987 0 -0.00414549)
(0.000736693 0 -0.00481929)
(0.00062954 0 -0.00290406)
(0.000744344 0 -0.00352544)
(0.00063395 0 -0.00173239)
(0.000749319 0 -0.00232799)
(0.000754068 0 -0.00117466)
(0.00031856 0 -0.112594)
(0.000322899 0 -0.11162)
(0.000270451 0 -0.114385)
(0.000279816 0 -0.113535)
(0.000214313 0 -0.115909)
(0.000228582 0 -0.115196)
(0.000150636 0 -0.117143)
(0.000169633 0 -0.116578)
(8.02345e-05 0 -0.118064)
(0.000103515 0 -0.117659)
(4.25156e-06 0 -0.118647)
(3.12882e-05 0 -0.118415)
(-7.58608e-05 0 -0.118873)
(-4.56965e-05 0 -0.118824)
(-0.00015834 0 -0.11872)
(-0.000125768 0 -0.118864)
(-0.000241176 0 -0.11817)
(-0.000206984 0 -0.118516)
(-0.000322128 0 -0.117207)
(-0.000287157 0 -0.117765)
(-0.000398797 0 -0.11582)
(-0.000363893 0 -0.116594)
(-0.000468702 0 -0.113998)
(-0.000434681 0 -0.114994)
(-0.000529363 0 -0.111736)
(-0.000496974 0 -0.112956)
(-0.000578399 0 -0.109033)
(-0.000548277 0 -0.110478)
(-0.000613622 0 -0.105891)
(-0.00058625 0 -0.107559)
(-0.000633142 0 -0.102318)
(-0.000608805 0 -0.104204)
(-0.000635453 0 -0.0983224)
(-0.000614214 0 -0.100423)
(-0.000619458 0 -0.093919)
(-0.000601168 0 -0.0962264)
(-0.000584477 0 -0.0891246)
(-0.000568866 0 -0.0916293)
(-0.000530369 0 -0.0839689)
(-0.000516585 0 -0.0866508)
(-0.000472288 0 -0.0795053)
(-0.000452001 0 -0.0818177)
(-0.000405772 0 -0.075059)
(-0.000382419 0 -0.0773546)
(-0.000333073 0 -0.07067)
(-0.000305903 0 -0.0729334)
(-0.000256274 0 -0.0663632)
(-0.0002244 0 -0.068583)
(-0.000177146 0 -0.0621576)
(-0.000139949 0 -0.0643245)
(-9.71672e-05 0 -0.0580679)
(-5.42119e-05 0 -0.0601746)
(-1.75658e-05 0 -0.0541057)
(3.14363e-05 0 -0.0561466)
(6.0644e-05 0 -0.0502797)
(0.000115853 0 -0.0522504)
(0.000136642 0 -0.0465959)
(0.000198107 0 -0.0484935)
(0.000209778 0 -0.0430585)
(0.000277456 0 -0.0448808)
(0.000279555 0 -0.0396696)
(0.000353326 0 -0.0414155)
(0.000345603 0 -0.0364301)
(0.000425287 0 -0.0380991)
(0.000407663 0 -0.0333398)
(0.000493033 0 -0.0349319)
(0.000465569 0 -0.0303974)
(0.000556362 0 -0.0319132)
(0.000519232 0 -0.0276013)
(0.000615163 0 -0.0290414)
(0.00056863 0 -0.024949)
(0.000669393 0 -0.0263145)
(0.000613793 0 -0.0224377)
(0.000719076 0 -0.02373)
(0.000654798 0 -0.0200642)
(0.00076428 0 -0.0212848)
(0.000691758 0 -0.0178251)
(0.00080512 0 -0.0189757)
(0.000724817 0 -0.0157167)
(0.000841744 0 -0.016799)
(0.00075413 0 -0.0137347)
(0.000874321 0 -0.0147508)
(0.000779844 0 -0.0118742)
(0.000903024 0 -0.0128268)
(0.000802072 0 -0.0101291)
(0.000928002 0 -0.0110216)
(0.000820898 0 -0.00849174)
(0.000949366 0 -0.00932809)
(0.000836426 0 -0.00695451)
(0.000967216 0 -0.00773812)
(0.000848826 0 -0.0055131)
(0.000981706 0 -0.00624468)
(0.000858339 0 -0.00416831)
(0.000993111 0 -0.00484619)
(0.000865222 0 -0.00292073)
(0.00100127 0 -0.00354586)
(0.000869699 0 -0.00174268)
(0.00100634 0 -0.00234191)
(0.00101134 0 -0.00118185)
(0.000284169 0 -0.112563)
(0.000278606 0 -0.111594)
(0.000238083 0 -0.114349)
(0.000238455 0 -0.113505)
(0.000184022 0 -0.115867)
(0.000190283 0 -0.11516)
(0.000122546 0 -0.117097)
(0.00013462 0 -0.116537)
(5.45566e-05 0 -0.118013)
(7.20501e-05 0 -0.117614)
(-1.87189e-05 0 -0.118594)
(3.72709e-06 0 -0.118366)
(-9.57273e-05 0 -0.118817)
(-6.89128e-05 0 -0.118772)
(-0.000174603 0 -0.118663)
(-0.000144113 0 -0.118811)
(-0.000253228 0 -0.118114)
(-0.000219837 0 -0.118464)
(-0.000329257 0 -0.117154)
(-0.000293802 0 -0.117714)
(-0.000400185 0 -0.11577)
(-0.000363528 0 -0.116547)
(-0.000463432 0 -0.113954)
(-0.000426421 0 -0.114952)
(-0.000516431 0 -0.1117)
(-0.00047986 0 -0.112921)
(-0.000556727 0 -0.109006)
(-0.00052129 0 -0.110451)
(-0.000582075 0 -0.105874)
(-0.000548324 0 -0.107542)
(-0.000590547 0 -0.102312)
(-0.000558847 0 -0.104199)
(-0.000580622 0 -0.098329)
(-0.000551123 0 -0.10043)
(-0.00055122 0 -0.0939386)
(-0.000523858 0 -0.096246)
(-0.000501716 0 -0.0891574)
(-0.000476305 0 -0.0916623)
(-0.000432078 0 -0.0840148)
(-0.000407825 0 -0.0866973)
(-0.000360669 0 -0.0795616)
(-0.000327782 0 -0.081876)
(-0.000281008 0 -0.0751246)
(-0.000244214 0 -0.0774228)
(-0.000195452 0 -0.0707435)
(-0.000154071 0 -0.0730103)
(-0.000106178 0 -0.0664433)
(-5.93783e-05 0 -0.0686671)
(-1.5043e-05 0 -0.0622431)
(3.77404e-05 0 -0.0644145)
(7.6401e-05 0 -0.0581577)
(0.000135556 0 -0.0602694)
(0.000166869 0 -0.0541987)
(0.00023264 0 -0.0562449)
(0.000255306 0 -0.0503748)
(0.000327812 0 -0.0523512)
(0.000340867 0 -0.0466924)
(0.000420116 0 -0.0485958)
(0.000422887 0 -0.0431553)
(0.000508798 0 -0.0449837)
(0.000500865 0 -0.039766)
(0.000593283 0 -0.0415181)
(0.000574437 0 -0.0365254)
(0.000673149 0 -0.0382007)
(0.000643359 0 -0.0334332)
(0.000748105 0 -0.0350317)
(0.000707483 0 -0.0304885)
(0.000817972 0 -0.0320105)
(0.000766746 0 -0.0276894)
(0.000882663 0 -0.0291358)
(0.000821154 0 -0.0250337)
(0.000942169 0 -0.0264055)
(0.00087077 0 -0.0225186)
(0.000996543 0 -0.023817)
(0.000915702 0 -0.020141)
(0.00104589 0 -0.0213675)
(0.000956098 0 -0.0178974)
(0.00109036 0 -0.0190536)
(0.000992134 0 -0.0157841)
(0.00113014 0 -0.0168719)
(0.001024 0 -0.013797)
(0.00116542 0 -0.0148185)
(0.00105186 0 -0.011931)
(0.00119642 0 -0.0128889)
(0.00107588 0 -0.0101801)
(0.00122331 0 -0.0110777)
(0.00109618 0 -0.00853642)
(0.00124626 0 -0.00937783)
(0.00111288 0 -0.00699255)
(0.00126539 0 -0.00778107)
(0.00112619 0 -0.00554431)
(0.00128091 0 -0.00628055)
(0.00113634 0 -0.00419265)
(0.00129309 0 -0.0048749)
(0.00114362 0 -0.00293825)
(0.00130179 0 -0.00356744)
(0.0011483 0 -0.00175334)
(0.001307 0 -0.00235647)
(0.00131248 0 -0.00118932)
(0.000232797 0 -0.112536)
(0.000216446 0 -0.111572)
(0.000190716 0 -0.114316)
(0.000181089 0 -0.113477)
(0.000140931 0 -0.11583)
(0.000138063 0 -0.115127)
(8.40843e-05 0 -0.117054)
(8.79871e-05 0 -0.116499)
(2.11445e-05 0 -0.117967)
(3.14806e-05 0 -0.117572)
(-4.65904e-05 0 -0.118545)
(-3.02192e-05 0 -0.118321)
(-0.000117481 0 -0.118766)
(-9.56124e-05 0 -0.118725)
(-0.000189587 0 -0.118612)
(-0.000162875 0 -0.118763)
(-0.000260711 0 -0.118064)
(-0.0002299 0 -0.118417)
(-0.000328436 0 -0.117107)
(-0.000294345 0 -0.117669)
(-0.000390189 0 -0.115728)
(-0.000353674 0 -0.116506)
(-0.000443332 0 -0.113918)
(-0.00040525 0 -0.114916)
(-0.000485254 0 -0.111672)
(-0.000446416 0 -0.112893)
(-0.000513464 0 -0.108987)
(-0.000474599 0 -0.110432)
(-0.000525704 0 -0.105867)
(-0.000487403 0 -0.107534)
(-0.000520047 0 -0.102316)
(-0.000482726 0 -0.104203)
(-0.000494995 0 -0.0983465)
(-0.000458864 0 -0.100446)
(-0.000449517 0 -0.0939697)
(-0.000414567 0 -0.0962763)
(-0.00038308 0 -0.0892022)
(-0.000349173 0 -0.0917066)
(-0.000295772 0 -0.0840732)
(-0.000262166 0 -0.0867555)
(-0.000209471 0 -0.0796306)
(-0.000164778 0 -0.0819464)
(-0.000115351 0 -0.075203)
(-6.57379e-05 0 -0.0775034)
(-1.58503e-05 0 -0.0708299)
(3.9285e-05 0 -0.0730996)
(8.67859e-05 0 -0.0665365)
(0.000148207 0 -0.0687637)
(0.00019064 0 -0.0623416)
(0.000258848 0 -0.0645171)
(0.000294113 0 -0.0582603)
(0.000369436 0 -0.0603765)
(0.000395882 0 -0.0543042)
(0.00047851 0 -0.0563555)
(0.000494875 0 -0.0504823)
(0.000584872 0 -0.052464)
(0.000590234 0 -0.0468007)
(0.00068756 0 -0.0487098)
(0.000681297 0 -0.0432636)
(0.000785824 0 -0.0450979)
(0.000767574 0 -0.0398734)
(0.000879102 0 -0.0416316)
(0.000848717 0 -0.0366311)
(0.000966991 0 -0.0383126)
(0.000924506 0 -0.0335367)
(0.00104923 0 -0.0351414)
(0.000994822 0 -0.030589)
(0.00112566 0 -0.0321173)
(0.00105963 0 -0.0277864)
(0.00119625 0 -0.0292391)
(0.00111898 0 -0.0251267)
(0.001261 0 -0.0265047)
(0.00117297 0 -0.0226072)
(0.00132003 0 -0.0239117)
(0.00122174 0 -0.0202247)
(0.00137346 0 -0.0214572)
(0.00126547 0 -0.0179759)
(0.0014215 0 -0.019138)
(0.00130437 0 -0.0158572)
(0.00146435 0 -0.0169507)
(0.00133868 0 -0.0138643)
(0.00150226 0 -0.0148913)
(0.00136859 0 -0.0119923)
(0.00153548 0 -0.0129556)
(0.00139431 0 -0.0102348)
(0.00156423 0 -0.0111378)
(0.001416 0 -0.00858426)
(0.00158872 0 -0.00943096)
(0.00143383 0 -0.00703317)
(0.00160914 0 -0.00782689)
(0.00144802 0 -0.00557752)
(0.00162571 0 -0.0063188)
(0.00145884 0 -0.00421842)
(0.00163875 0 -0.00490547)
(0.00146659 0 -0.00295671)
(0.0016481 0 -0.0035904)
(0.00147158 0 -0.00176455)
(0.00165353 0 -0.00237198)
(0.00165975 0 -0.00119729)
(0.000164533 0 -0.112512)
(0.000136514 0 -0.111553)
(0.000128422 0 -0.114287)
(0.000107806 0 -0.113452)
(8.50986e-05 0 -0.115796)
(7.19812e-05 0 -0.115098)
(3.52769e-05 0 -0.117017)
(2.97575e-05 0 -0.116466)
(-2.00226e-05 0 -0.117926)
(-1.82126e-05 0 -0.117535)
(-7.94292e-05 0 -0.118501)
(-7.0627e-05 0 -0.118281)
(-0.000141245 0 -0.118722)
(-0.000125935 0 -0.118684)
(-0.000203475 0 -0.118568)
(-0.000182261 0 -0.118722)
(-0.000263873 0 -0.118021)
(-0.000237454 0 -0.118376)
(-0.000319976 0 -0.117068)
(-0.000289137 0 -0.117631)
(-0.000369179 0 -0.115694)
(-0.000334753 0 -0.116473)
(-0.000408825 0 -0.113891)
(-0.000371653 0 -0.11489)
(-0.000436292 0 -0.111653)
(-0.000397181 0 -0.112875)
(-0.000449098 0 -0.108979)
(-0.000408778 0 -0.110424)
(-0.000445005 0 -0.10587)
(-0.000404083 0 -0.107537)
(-0.000422126 0 -0.102332)
(-0.000381039 0 -0.104218)
(-0.000379021 0 -0.0983761)
(-0.000338008 0 -0.100475)
(-0.000314739 0 -0.0940133)
(-0.000273818 0 -0.0963192)
(-0.000228862 0 -0.08926)
(-0.00018792 0 -0.0917639)
(-0.000121612 0 -0.0841448)
(-7.99418e-05 0 -0.086827)
(-1.87646e-05 0 -0.079713)
(3.67957e-05 0 -0.0820303)
(9.12328e-05 0 -0.0752948)
(0.000152897 0 -0.0775975)
(0.000205877 0 -0.0709298)
(0.000274168 0 -0.0732025)
(0.000322882 0 -0.0666429)
(0.000398482 0 -0.0688739)
(0.00044029 0 -0.0624531)
(0.000523626 0 -0.064633)
(0.000556473 0 -0.0583757)
(0.000647807 0 -0.0604969)
(0.000670097 0 -0.0544223)
(0.000769552 0 -0.0564789)
(0.000780084 0 -0.0506019)
(0.000887662 0 -0.0525894)
(0.000885586 0 -0.0469207)
(0.00100119 0 -0.0488359)
(0.000985956 0 -0.0433831)
(0.00110939 0 -0.0452238)
(0.00108073 0 -0.0399916)
(0.00121175 0 -0.0417563)
(0.00116958 0 -0.0367472)
(0.00130789 0 -0.0384353)
(0.00125233 0 -0.0336498)
(0.00139757 0 -0.0352612)
(0.0013289 0 -0.0306986)
(0.0014807 0 -0.0322336)
(0.00139929 0 -0.027892)
(0.00155727 0 -0.0293513)
(0.00146358 0 -0.0252276)
(0.00162734 0 -0.0266122)
(0.00152192 0 -0.022703)
(0.00169105 0 -0.024014)
(0.00157449 0 -0.0203151)
(0.0017486 0 -0.0215539)
(0.00162152 0 -0.0180605)
(0.0018002 0 -0.0192288)
(0.00166325 0 -0.0159356)
(0.00184612 0 -0.0170352)
(0.00169995 0 -0.0139363)
(0.00188665 0 -0.0149693)
(0.00173188 0 -0.0120576)
(0.00192208 0 -0.0130267)
(0.00175929 0 -0.0102931)
(0.00195271 0 -0.0112018)
(0.00178241 0 -0.00863522)
(0.00197879 0 -0.00948757)
(0.00180145 0 -0.00707645)
(0.00200059 0 -0.0078758)
(0.00181667 0 -0.00561296)
(0.00201837 0 -0.00635978)
(0.00182833 0 -0.00424601)
(0.00203243 0 -0.00493841)
(0.00183674 0 -0.00297655)
(0.00204265 0 -0.00361532)