/*--------------------------------*- C++ -*----------------------------------*\
  =========                 |
  \\      /  F ield         | OpenFOAM: The Open Source CFD Toolbox
   \\    /   O peration     | Website:  https://openfoam.org
    \\  /    A nd           | Version:  9
     \\/     M anipulation  |
\*---------------------------------------------------------------------------*/
FoamFile
{
    format      ascii;
    class       volScalarField;
    location    "0.2";
    object      alpha.water;
}
// * * * * * * * * * * * * * * * * * * * * * * * * * * * * * * * * * * * * * //

dimensions      [0 0 0 0 0 0 0];

internalField   nonuniform List<scalar> 
5000
(
3.69265e-320
3.71933e-320
3.74304e-320
3.76676e-320
3.79047e-320
3.80925e-320
3.80826e-320
3.78652e-320
3.75589e-320
3.72525e-320
3.69363e-320
3.65905e-320
3.61656e-320
3.55826e-320
3.49798e-320
8.492e-320
8.51769e-320
3.52763e-320
3.5632e-320
3.61656e-320
4.44659e-320
4.68868e-320
4.93769e-320
5.19559e-320
5.46041e-320
5.73511e-320
6.0197e-320
6.31416e-320
6.61752e-320
6.93273e-320
7.25881e-320
7.59774e-320
7.9505e-320
8.31908e-320
8.70346e-320
9.10267e-320
9.52064e-320
9.95641e-320
1.0411e-319
1.08853e-319
1.13793e-319
1.18931e-319
1.24307e-319
1.299e-319
1.3573e-319
1.41797e-319
1.48111e-319
1.54682e-319
1.6151e-319
1.68615e-319
3.69561e-320
3.7213e-320
3.74304e-320
3.76676e-320
3.79047e-320
3.80826e-320
3.80727e-320
3.78652e-320
3.75589e-320
3.72525e-320
3.69363e-320
3.65806e-320
3.61458e-320
3.5553e-320
3.497e-320
8.38923e-320
8.48607e-320
3.55036e-320
3.57506e-320
3.62348e-320
4.45252e-320
4.69362e-320
4.94066e-320
5.19757e-320
5.46239e-320
5.73709e-320
6.02068e-320
6.31416e-320
6.6185e-320
6.93273e-320
7.25881e-320
7.59873e-320
7.9505e-320
8.31908e-320
8.70346e-320
9.10267e-320
9.52064e-320
9.95641e-320
1.0411e-319
1.08843e-319
1.13783e-319
1.18931e-319
1.24307e-319
1.299e-319
1.3573e-319
1.41797e-319
1.48101e-319
1.54672e-319
1.615e-319
1.68605e-319
3.69956e-320
3.72328e-320
3.74502e-320
3.76774e-320
3.79047e-320
3.80826e-320
3.80727e-320
3.78652e-320
3.75688e-320
3.72525e-320
3.69363e-320
3.65806e-320
3.61458e-320
3.55727e-320
3.50589e-320
8.27461e-320
8.40603e-320
3.56913e-320
3.58494e-320
3.63039e-320
4.45845e-320
4.69758e-320
4.94461e-320
5.19955e-320
5.46437e-320
5.73907e-320
6.02167e-320
6.31515e-320
6.6185e-320
6.93273e-320
7.25881e-320
7.59873e-320
7.9505e-320
8.31908e-320
8.70346e-320
9.10267e-320
9.52064e-320
9.95641e-320
1.0411e-319
1.08833e-319
1.13773e-319
1.18931e-319
1.24297e-319
1.2989e-319
1.3571e-319
1.41777e-319
1.48101e-319
1.54662e-319
1.615e-319
1.68595e-319
3.70352e-320
3.72624e-320
3.74699e-320
3.76873e-320
3.79146e-320
3.80826e-320
3.80628e-320
3.78652e-320
3.75688e-320
3.72624e-320
3.69462e-320
3.66004e-320
3.61854e-320
3.5632e-320
3.51874e-320
8.17382e-320
8.30623e-320
3.58494e-320
3.59482e-320
3.6383e-320
4.46635e-320
4.7035e-320
4.94856e-320
5.2035e-320
5.46733e-320
5.74104e-320
6.02365e-320
6.31614e-320
6.6185e-320
6.93273e-320
7.25881e-320
7.59873e-320
7.9505e-320
8.31908e-320
8.70247e-320
9.10267e-320
9.51966e-320
9.95542e-320
1.041e-319
1.08833e-319
1.13773e-319
1.18922e-319
1.24287e-319
1.2988e-319
1.3571e-319
1.41777e-319
1.48081e-319
1.54652e-319
1.6148e-319
1.68575e-319
3.70648e-320
3.72822e-320
3.74798e-320
3.76873e-320
3.79146e-320
3.80727e-320
3.80628e-320
3.78652e-320
3.75885e-320
3.72723e-320
3.6966e-320
3.663e-320
3.62249e-320
3.57012e-320
3.53356e-320
8.08884e-320
8.20544e-320
3.59482e-320
3.60273e-320
3.64423e-320
4.47228e-320
4.70746e-320
4.95251e-320
5.20646e-320
5.47029e-320
5.74302e-320
6.02562e-320
6.31712e-320
6.62048e-320
6.93372e-320
7.25881e-320
7.59873e-320
7.9505e-320
8.31908e-320
8.70247e-320
9.10267e-320
9.51966e-320
9.95443e-320
1.0409e-319
1.08833e-319
1.13773e-319
1.18912e-319
1.24287e-319
1.2987e-319
1.3569e-319
1.41757e-319
1.48071e-319
1.54633e-319
1.61461e-319
1.68555e-319
3.70944e-320
3.7302e-320
3.74897e-320
3.77071e-320
3.79245e-320
3.80727e-320
3.80628e-320
3.7885e-320
3.75984e-320
3.72921e-320
3.69956e-320
3.66696e-320
3.62842e-320
3.57704e-320
3.54739e-320
8.0177e-320
8.11453e-320
3.60273e-320
3.60866e-320
3.65016e-320
4.47623e-320
4.7124e-320
4.95647e-320
5.20943e-320
5.47227e-320
5.74401e-320
6.02562e-320
6.31811e-320
6.62048e-320
6.93471e-320
7.2598e-320
7.59873e-320
7.9505e-320
8.31809e-320
8.70148e-320
9.10267e-320
9.51966e-320
9.95443e-320
1.0409e-319
1.08813e-319
1.13754e-319
1.18902e-319
1.24267e-319
1.2986e-319
1.3568e-319
1.41738e-319
1.48052e-319
1.54613e-319
1.61441e-319
1.68536e-319
3.71142e-320
3.73217e-320
3.75095e-320
3.77071e-320
3.79245e-320
3.80628e-320
3.80628e-320
3.7885e-320
3.76083e-320
3.73217e-320
3.70154e-320
3.67091e-320
3.63435e-320
3.58395e-320
3.55925e-320
7.95643e-320
8.03351e-320
3.60767e-320
3.61261e-320
3.65411e-320
4.48118e-320
4.71536e-320
4.95943e-320
5.2114e-320
5.47425e-320
5.74598e-320
6.0276e-320
6.3191e-320
6.62048e-320
6.93471e-320
7.2598e-320
7.59873e-320
7.9505e-320
8.31809e-320
8.70148e-320
9.10069e-320
9.51867e-320
9.95345e-320
1.0407e-319
1.08813e-319
1.13744e-319
1.18892e-319
1.24248e-319
1.2984e-319
1.35661e-319
1.41718e-319
1.48022e-319
1.54583e-319
1.61411e-319
1.68496e-319
3.7134e-320
3.73316e-320
3.75193e-320
3.77269e-320
3.79245e-320
3.80628e-320
3.80628e-320
3.7885e-320
3.7628e-320
3.73514e-320
3.70549e-320
3.67486e-320
3.63929e-320
3.58988e-320
3.56913e-320
7.90406e-320
7.96533e-320
3.61162e-320
3.61557e-320
3.65609e-320
4.48414e-320
4.71932e-320
4.9624e-320
5.21338e-320
5.47622e-320
5.74697e-320
6.0276e-320
6.32009e-320
6.62147e-320
6.93471e-320
7.25881e-320
7.59774e-320
7.9505e-320
8.31809e-320
8.70148e-320
9.10069e-320
9.51768e-320
9.95246e-320
1.0406e-319
1.08793e-319
1.13734e-319
1.18872e-319
1.24228e-319
1.29821e-319
1.35631e-319
1.41698e-319
1.48002e-319
1.54563e-319
1.61382e-319
1.68467e-319
3.7134e-320
3.73415e-320
3.75292e-320
3.77269e-320
3.79245e-320
3.80628e-320
3.80628e-320
3.79047e-320
3.76478e-320
3.73711e-320
3.70846e-320
3.67881e-320
3.64423e-320
3.59482e-320
3.57704e-320
7.85762e-320
7.90703e-320
3.61458e-320
3.61656e-320
3.65806e-320
4.48612e-320
4.72129e-320
4.96338e-320
5.21536e-320
5.47622e-320
5.74796e-320
6.02958e-320
6.32009e-320
6.62147e-320
6.93471e-320
7.25881e-320
7.59675e-320
7.94952e-320
8.3171e-320
8.69951e-320
9.0997e-320
9.5157e-320
9.95048e-320
1.0405e-319
1.08773e-319
1.13714e-319
1.18852e-319
1.24208e-319
1.29791e-319
1.35611e-319
1.41659e-319
1.47963e-319
1.54524e-319
1.61342e-319
1.68417e-319
3.7134e-320
3.73514e-320
3.75292e-320
3.77269e-320
3.79245e-320
3.80628e-320
3.80628e-320
3.79047e-320
3.76676e-320
3.73909e-320
3.71142e-320
3.68178e-320
3.64818e-320
3.59877e-320
3.58494e-320
7.81612e-320
7.85762e-320
3.61854e-320
3.61854e-320
3.66004e-320
4.48809e-320
4.72228e-320
4.96437e-320
5.21635e-320
5.4782e-320
5.74895e-320
6.02958e-320
6.32009e-320
6.62048e-320
6.93372e-320
7.25881e-320
7.59675e-320
7.94853e-320
8.31611e-320
8.69852e-320
9.09871e-320
9.51472e-320
9.94949e-320
1.0403e-319
1.08754e-319
1.13685e-319
1.18833e-319
1.24188e-319
1.29761e-319
1.35572e-319
1.41619e-319
1.47923e-319
1.54475e-319
1.61283e-319
1.68368e-319
3.71439e-320
3.73514e-320
3.75391e-320
3.77367e-320
3.79245e-320
3.80628e-320
3.80628e-320
3.79146e-320
3.76774e-320
3.74107e-320
3.71439e-320
3.68573e-320
3.65213e-320
3.60273e-320
3.59186e-320
7.78055e-320
7.81612e-320
3.62051e-320
3.61854e-320
3.66004e-320
4.48908e-320
4.72327e-320
4.96635e-320
5.21733e-320
5.4782e-320
5.74895e-320
6.02958e-320
6.32009e-320
6.62048e-320
6.93273e-320
7.25782e-320
7.59577e-320
7.94754e-320
8.31414e-320
8.69753e-320
9.09674e-320
9.51373e-320
9.94752e-320
1.04011e-319
1.08734e-319
1.13655e-319
1.18793e-319
1.24149e-319
1.29722e-319
1.35532e-319
1.41579e-319
1.47884e-319
1.54425e-319
1.61233e-319
1.68308e-319
3.71439e-320
3.73514e-320
3.7549e-320
3.77466e-320
3.79245e-320
3.80628e-320
3.80628e-320
3.79245e-320
3.76873e-320
3.74304e-320
3.71735e-320
3.68869e-320
3.6551e-320
3.60569e-320
3.59779e-320
7.74893e-320
3.88928e-320
3.62447e-320
3.61854e-320
3.66103e-320
4.49007e-320
4.72327e-320
4.96635e-320
5.21733e-320
5.4782e-320
5.74895e-320
6.02958e-320
6.3191e-320
6.62048e-320
6.93273e-320
7.25684e-320
7.59478e-320
7.94655e-320
8.31315e-320
8.69556e-320
9.09476e-320
9.51076e-320
9.94455e-320
1.03981e-319
1.08704e-319
1.13635e-319
1.18763e-319
1.24109e-319
1.29682e-319
1.35493e-319
1.4154e-319
1.47824e-319
1.54366e-319
1.61174e-319
1.68239e-319
3.71439e-320
3.73514e-320
3.7549e-320
3.77466e-320
3.79245e-320
3.80529e-320
3.80529e-320
3.79245e-320
3.77071e-320
3.74502e-320
3.71933e-320
3.69166e-320
3.65806e-320
3.60866e-320
3.60371e-320
3.86063e-320
3.87446e-320
3.62644e-320
3.61854e-320
3.66103e-320
4.49007e-320
4.72327e-320
4.96635e-320
5.21733e-320
5.4782e-320
5.74895e-320
6.0276e-320
6.31811e-320
6.6185e-320
6.93075e-320
7.25486e-320
7.5928e-320
7.94458e-320
8.31117e-320
8.69358e-320
9.09278e-320
9.50879e-320
9.94258e-320
1.03951e-319
1.08675e-319
1.13596e-319
1.18734e-319
1.2407e-319
1.29643e-319
1.35453e-319
1.41481e-319
1.47775e-319
1.54307e-319
1.61105e-319
1.6818e-319
3.71439e-320
3.73514e-320
3.7549e-320
3.77466e-320
3.79245e-320
3.80431e-320
3.80529e-320
3.79245e-320
3.7717e-320
3.74699e-320
3.7213e-320
3.69363e-320
3.66004e-320
3.61261e-320
3.60866e-320
3.84778e-320
3.86162e-320
3.63039e-320
3.61854e-320
3.66004e-320
4.48908e-320
4.72327e-320
4.96536e-320
5.21733e-320
5.47721e-320
5.74697e-320
6.0276e-320
6.31712e-320
6.61752e-320
6.92976e-320
7.25387e-320
7.59082e-320
7.9426e-320
8.3092e-320
8.6916e-320
9.09081e-320
9.50582e-320
9.9406e-320
1.03932e-319
1.08645e-319
1.13556e-319
1.18694e-319
1.2403e-319
1.29603e-319
1.35394e-319
1.41431e-319
1.47706e-319
1.54247e-319
1.61036e-319
1.68101e-319
3.71439e-320
3.73514e-320
3.7549e-320
3.77466e-320
3.79245e-320
3.80431e-320
3.80431e-320
3.79245e-320
3.77269e-320
3.74798e-320
3.72328e-320
3.69561e-320
3.66201e-320
3.61458e-320
3.61458e-320
3.8379e-320
3.84976e-320
3.63237e-320
3.61854e-320
3.66004e-320
4.48809e-320
4.72327e-320
4.96437e-320
5.21536e-320
5.47622e-320
5.74697e-320
6.02562e-320
6.31614e-320
6.61653e-320
6.92878e-320
7.25288e-320
7.58885e-320
7.94062e-320
8.30722e-320
8.68963e-320
9.08784e-320
9.50385e-320
9.93665e-320
1.03892e-319
1.08606e-319
1.13517e-319
1.18655e-319
1.23991e-319
1.29544e-319
1.35344e-319
1.41372e-319
1.47647e-319
1.54168e-319
1.60957e-319
1.68012e-319
3.71439e-320
3.73514e-320
3.7549e-320
3.77466e-320
3.79245e-320
3.80431e-320
3.80431e-320
3.79344e-320
3.77269e-320
3.74897e-320
3.72525e-320
3.69759e-320
3.66399e-320
3.61755e-320
3.61854e-320
3.82901e-320
3.84185e-320
3.63632e-320
3.61854e-320
3.65905e-320
4.48809e-320
4.72228e-320
4.96437e-320
5.21536e-320
5.47622e-320
5.745e-320
6.02562e-320
6.31416e-320
6.61455e-320
6.9268e-320
7.25091e-320
7.58687e-320
7.93865e-320
8.30426e-320
8.68666e-320
9.08488e-320
9.49989e-320
9.93368e-320
1.03853e-319
1.08576e-319
1.13477e-319
1.18596e-319
1.23931e-319
1.29495e-319
1.35285e-319
1.41303e-319
1.47577e-319
1.54099e-319
1.60878e-319
1.67923e-319
3.71439e-320
3.73514e-320
3.7549e-320
3.77466e-320
3.79245e-320
3.80431e-320
3.80431e-320
3.79344e-320
3.77367e-320
3.75095e-320
3.72624e-320
3.69956e-320
3.66597e-320
3.62051e-320
3.62447e-320
3.82209e-320
3.83395e-320
3.63929e-320
3.61854e-320
3.65806e-320
4.48612e-320
4.72129e-320
4.9624e-320
5.21338e-320
5.47425e-320
5.74401e-320
6.02365e-320
6.31317e-320
6.61257e-320
6.92482e-320
7.24893e-320
7.5849e-320
7.93667e-320
8.30228e-320
8.6837e-320
9.08191e-320
9.49792e-320
9.93072e-320
1.03813e-319
1.08526e-319
1.13437e-319
1.18556e-319
1.23892e-319
1.29445e-319
1.35216e-319
1.41243e-319
1.47508e-319
1.5401e-319
1.60789e-319
1.67824e-319
3.71439e-320
3.73514e-320
3.7549e-320
3.77466e-320
3.79245e-320
3.80332e-320
3.80431e-320
3.79344e-320
3.77466e-320
3.75095e-320
3.72723e-320
3.70154e-320
3.66696e-320
3.62249e-320
3.62842e-320
3.81517e-320
3.82703e-320
3.64225e-320
3.61854e-320
3.65609e-320
4.48513e-320
4.71932e-320
4.9624e-320
5.21338e-320
5.47326e-320
5.74302e-320
6.02167e-320
6.31119e-320
6.6106e-320
6.92285e-320
7.24597e-320
7.58292e-320
7.93371e-320
8.3003e-320
8.68172e-320
9.07895e-320
9.49397e-320
9.92677e-320
1.03774e-319
1.08477e-319
1.13388e-319
1.18497e-319
1.23833e-319
1.29376e-319
1.35157e-319
1.41164e-319
1.47429e-319
1.53931e-319
1.6069e-319
1.67725e-319
3.71439e-320
3.73514e-320
3.7549e-320
3.77466e-320
3.79245e-320
3.80233e-320
3.80332e-320
3.79344e-320
3.77466e-320
3.75292e-320
3.72822e-320
3.70154e-320
3.66794e-320
3.62447e-320
3.63435e-320
3.81023e-320
3.82209e-320
3.6462e-320
3.61854e-320
3.6551e-320
4.48414e-320
4.71833e-320
4.96042e-320
5.2114e-320
5.47227e-320
5.74104e-320
6.0197e-320
6.31021e-320
6.60862e-320
6.92087e-320
7.24399e-320
7.58094e-320
7.93074e-320
8.29635e-320
8.67777e-320
9.075e-320
9.49001e-320
9.92281e-320
1.03734e-319
1.08438e-319
1.13339e-319
1.18447e-319
1.23773e-319
1.29307e-319
1.35078e-319
1.41085e-319
1.4734e-319
1.53832e-319
1.60591e-319
1.67617e-319
3.71537e-320
3.73514e-320
3.7549e-320
3.77466e-320
3.79146e-320
3.80233e-320
3.80233e-320
3.79245e-320
3.77466e-320
3.75292e-320
3.72921e-320
3.70352e-320
3.66893e-320
3.62644e-320
3.6383e-320
3.80529e-320
3.81814e-320
3.65016e-320
3.61854e-320
3.65411e-320
4.48216e-320
4.71734e-320
4.95844e-320
5.20943e-320
5.47029e-320
5.73907e-320
6.01871e-320
6.30823e-320
6.60665e-320
6.91791e-320
7.24103e-320
7.57798e-320
7.92877e-320
8.29437e-320
8.6748e-320
9.07203e-320
9.48606e-320
9.91886e-320
1.03694e-319
1.08388e-319
1.13289e-319
1.18388e-319
1.23714e-319
1.29248e-319
1.35008e-319
1.41006e-319
1.47251e-319
1.53743e-319
1.60492e-319
1.67508e-319
3.71537e-320
3.73514e-320
3.7549e-320
3.77466e-320
3.79047e-320
3.80233e-320
3.80233e-320
3.79245e-320
3.77466e-320
3.75292e-320
3.72921e-320
3.70352e-320
3.66992e-320
3.62842e-320
3.64423e-320
3.80233e-320
3.81419e-320
3.65411e-320
3.61854e-320
3.65213e-320
4.48019e-320
4.71536e-320
4.95745e-320
5.20844e-320
5.46832e-320
5.73709e-320
6.01673e-320
6.30527e-320
6.60467e-320
6.91593e-320
7.23905e-320
7.57501e-320
7.9258e-320
8.29042e-320
8.67184e-320
9.06907e-320
9.48211e-320
9.91491e-320
1.03645e-319
1.08339e-319
1.1323e-319
1.18329e-319
1.23635e-319
1.29169e-319
1.34939e-319
1.40927e-319
1.47162e-319
1.53645e-319
1.60384e-319
1.67389e-319
3.71537e-320
3.73514e-320
3.7549e-320
3.77466e-320
3.79047e-320
3.80134e-320
3.80233e-320
3.79245e-320
3.77466e-320
3.75391e-320
3.73118e-320
3.7045e-320
3.66992e-320
3.63138e-320
3.64917e-320
3.79936e-320
3.81221e-320
3.65806e-320
3.61854e-320
3.65016e-320
4.47821e-320
4.71339e-320
4.95548e-320
5.20646e-320
5.46634e-320
5.73511e-320
6.01476e-320
6.30329e-320
6.60269e-320
6.91297e-320
7.23609e-320
7.57304e-320
7.92284e-320
8.28746e-320
8.66789e-320
9.06512e-320
9.47816e-320
9.90997e-320
1.03596e-319
1.08279e-319
1.13181e-319
1.18269e-319
1.23576e-319
1.29099e-319
1.3485e-319
1.40838e-319
1.47064e-319
1.53536e-319
1.60265e-319
1.67261e-319
3.71537e-320
3.73514e-320
3.7549e-320
3.77367e-320
3.79047e-320
3.80035e-320
3.80134e-320
3.79245e-320
3.77565e-320
3.7549e-320
3.73118e-320
3.70549e-320
3.67091e-320
3.63435e-320
3.65411e-320
3.79838e-320
3.81023e-320
3.66201e-320
3.61952e-320
3.64818e-320
4.47623e-320
4.71141e-320
4.95449e-320
5.20449e-320
5.46437e-320
5.73314e-320
6.01179e-320
6.30033e-320
6.60072e-320
6.91099e-320
7.23312e-320
7.56909e-320
7.91888e-320
8.28449e-320
8.66394e-320
9.06116e-320
9.4742e-320
9.90503e-320
1.03546e-319
1.0823e-319
1.13111e-319
1.182e-319
1.23497e-319
1.2902e-319
1.34761e-319
1.40749e-319
1.46955e-319
1.53427e-319
1.60146e-319
1.67133e-319
3.71537e-320
3.73514e-320
3.7549e-320
3.77367e-320
3.79047e-320
3.80035e-320
3.80035e-320
3.79245e-320
3.77565e-320
3.7549e-320
3.73118e-320
3.70549e-320
3.6719e-320
3.63632e-320
3.66103e-320
3.79739e-320
3.80826e-320
3.66597e-320
3.62051e-320
3.6462e-320
4.47426e-320
4.70943e-320
4.95251e-320
5.20251e-320
5.46239e-320
5.73116e-320
6.00981e-320
6.29835e-320
6.59775e-320
6.90803e-320
7.23114e-320
7.56612e-320
7.91592e-320
8.28054e-320
8.65998e-320
9.05622e-320
9.46926e-320
9.90009e-320
1.03497e-319
1.08171e-319
1.13052e-319
1.18131e-319
1.23427e-319
1.28931e-319
1.34682e-319
1.40651e-319
1.46856e-319
1.53318e-319
1.60018e-319
1.66994e-319
3.71537e-320
3.73514e-320
3.7549e-320
3.77367e-320
3.79047e-320
3.79936e-320
3.80035e-320
3.79146e-320
3.77466e-320
3.7549e-320
3.73118e-320
3.70549e-320
3.6719e-320
3.64028e-320
3.66794e-320
3.79739e-320
3.80727e-320
3.6719e-320
3.6215e-320
3.64522e-320
4.47228e-320
4.70746e-320
4.95054e-320
5.20053e-320
5.46041e-320
5.72919e-320
6.00784e-320
6.29637e-320
6.59479e-320
6.90506e-320
7.22719e-320
7.56316e-320
7.91296e-320
8.27659e-320
8.65603e-320
9.05227e-320
9.46432e-320
9.89515e-320
1.03438e-319
1.08111e-319
1.12983e-319
1.18062e-319
1.23348e-319
1.28852e-319
1.34583e-319
1.40552e-319
1.46747e-319
1.532e-319
1.59899e-319
1.66856e-319
3.71636e-320
3.73514e-320
3.7549e-320
3.77367e-320
3.78948e-320
3.79838e-320
3.80035e-320
3.79146e-320
3.77466e-320
3.7549e-320
3.73217e-320
3.70549e-320
3.6719e-320
3.64225e-320
3.67486e-320
3.79838e-320
3.80628e-320
3.67585e-320
3.62249e-320
3.64324e-320
4.46833e-320
4.70548e-320
4.94856e-320
5.19856e-320
5.45844e-320
5.72721e-320
6.00586e-320
6.29341e-320
6.59281e-320
6.9021e-320
7.22423e-320
7.5592e-320
7.909e-320
8.27264e-320
8.65208e-320
9.04733e-320
9.46037e-320
9.88922e-320
1.03378e-319
1.08052e-319
1.12924e-319
1.17983e-319
1.23269e-319
1.28773e-319
1.34485e-319
1.40443e-319
1.46639e-319
1.53071e-319
1.59761e-319
1.66708e-319
3.71735e-320
3.73415e-320
3.7549e-320
3.77269e-320
3.7885e-320
3.79838e-320
3.79936e-320
3.79047e-320
3.77466e-320
3.7549e-320
3.73217e-320
3.70549e-320
3.6719e-320
3.6462e-320
3.68178e-320
3.80035e-320
3.80628e-320
3.68178e-320
3.62447e-320
3.64225e-320
4.46635e-320
4.7035e-320
4.9456e-320
5.19559e-320
5.45646e-320
5.72523e-320
6.0029e-320
6.29044e-320
6.58886e-320
6.89913e-320
7.22126e-320
7.55624e-320
7.90505e-320
8.26868e-320
8.64813e-320
9.04338e-320
9.45444e-320
9.88428e-320
1.03319e-319
1.07983e-319
1.12845e-319
1.17914e-319
1.2318e-319
1.28674e-319
1.34386e-319
1.40334e-319
1.4652e-319
1.52943e-319
1.59623e-319
1.66559e-319
3.71735e-320
3.73415e-320
3.7549e-320
3.77269e-320
3.7885e-320
3.79838e-320
3.79838e-320
3.79047e-320
3.77466e-320
3.7549e-320
3.73217e-320
3.70549e-320
3.67288e-320
3.65016e-320
3.68968e-320
3.80233e-320
3.80826e-320
3.68771e-320
3.62842e-320
3.64028e-320
4.4624e-320
4.70054e-320
4.94263e-320
5.19362e-320
5.4535e-320
5.72227e-320
5.99993e-320
6.28847e-320
6.58688e-320
6.89617e-320
7.21731e-320
7.55328e-320
7.9011e-320
8.26473e-320
8.64417e-320
9.03844e-320
9.45049e-320
9.87934e-320
1.0326e-319
1.07924e-319
1.12775e-319
1.17835e-319
1.23101e-319
1.28586e-319
1.34287e-319
1.40236e-319
1.46402e-319
1.52824e-319
1.59484e-319
1.66401e-319
3.71735e-320
3.73415e-320
3.75391e-320
3.77269e-320
3.7885e-320
3.79838e-320
3.79838e-320
3.79047e-320
3.77466e-320
3.7549e-320
3.73118e-320
3.70549e-320
3.67288e-320
3.65411e-320
3.69759e-320
3.80529e-320
3.81023e-320
3.69561e-320
3.63039e-320
3.6383e-320
4.45944e-320
4.69758e-320
4.94066e-320
5.19164e-320
5.45053e-320
5.7193e-320
5.99796e-320
6.2855e-320
6.58293e-320
6.8932e-320
7.21533e-320
7.54932e-320
7.89715e-320
8.26078e-320
8.63923e-320
9.0335e-320
9.44456e-320
9.87341e-320
1.032e-319
1.07855e-319
1.12706e-319
1.17756e-319
1.23022e-319
1.28497e-319
1.34188e-319
1.40117e-319
1.46283e-319
1.52686e-319
1.59346e-319
1.66253e-319
3.71834e-320
3.73415e-320
3.7549e-320
3.77269e-320
3.7885e-320
3.79739e-320
3.79838e-320
3.78948e-320
3.77466e-320
3.75391e-320
3.73118e-320
3.70352e-320
3.6719e-320
3.65707e-320
3.70549e-320
3.80826e-320
3.81221e-320
3.70352e-320
3.63435e-320
3.63731e-320
4.45548e-320
4.69362e-320
4.93769e-320
5.18868e-320
5.44856e-320
5.71733e-320
5.99499e-320
6.28254e-320
6.58095e-320
6.88925e-320
7.21138e-320
7.54537e-320
7.89319e-320
8.25683e-320
8.63429e-320
9.02856e-320
9.43863e-320
9.86748e-320
1.03141e-319
1.07785e-319
1.12627e-319
1.17677e-319
1.22924e-319
1.28398e-319
1.34089e-319
1.39998e-319
1.46164e-319
1.52548e-319
1.59188e-319
1.66095e-319
3.71933e-320
3.73514e-320
3.7549e-320
3.77269e-320
3.7885e-320
3.7964e-320
3.79739e-320
3.7885e-320
3.77367e-320
3.75292e-320
3.7302e-320
3.70253e-320
3.6719e-320
3.66004e-320
3.71142e-320
3.81023e-320
3.81616e-320
3.71142e-320
3.63929e-320
3.63632e-320
4.45252e-320
4.69066e-320
4.93473e-320
5.18571e-320
5.44559e-320
5.71436e-320
5.99203e-320
6.27957e-320
6.577e-320
6.88728e-320
7.20743e-320
7.54142e-320
7.88924e-320
8.25287e-320
8.63034e-320
9.02361e-320
9.43468e-320
9.86155e-320
1.03072e-319
1.07716e-319
1.12548e-319
1.17588e-319
1.22844e-319
1.28299e-319
1.33981e-319
1.3989e-319
1.46026e-319
1.52409e-319
1.5905e-319
1.65927e-319
3.72031e-320
3.73514e-320
3.7549e-320
3.77269e-320
3.7885e-320
3.7964e-320
3.7964e-320
3.7885e-320
3.77269e-320
3.75292e-320
3.72921e-320
3.70154e-320
3.6719e-320
3.66399e-320
3.71735e-320
3.81221e-320
3.81913e-320
3.72031e-320
3.64423e-320
3.63632e-320
4.44857e-320
4.68671e-320
4.93078e-320
5.18374e-320
5.44263e-320
5.7114e-320
5.99005e-320
6.27661e-320
6.57503e-320
6.88332e-320
7.20447e-320
7.53845e-320
7.88628e-320
8.24793e-320
8.6254e-320
9.01867e-320
9.42875e-320
9.85562e-320
1.03003e-319
1.07647e-319
1.12479e-319
1.17509e-319
1.22746e-319
1.282e-319
1.33872e-319
1.39771e-319
1.45907e-319
1.52271e-319
1.58892e-319
1.65769e-319
3.7213e-320
3.73514e-320
3.7549e-320
3.77367e-320
3.7885e-320
3.7964e-320
3.7964e-320
3.7885e-320
3.77269e-320
3.75193e-320
3.72723e-320
3.69956e-320
3.67091e-320
3.66597e-320
3.72328e-320
3.81419e-320
3.82209e-320
3.72921e-320
3.65016e-320
3.63632e-320
4.44461e-320
4.68275e-320
4.9288e-320
5.17978e-320
5.44065e-320
5.70942e-320
5.9861e-320
6.27463e-320
6.57107e-320
6.88036e-320
7.2015e-320
7.53549e-320
7.88232e-320
8.24398e-320
8.62046e-320
9.01373e-320
9.42282e-320
9.84969e-320
1.02944e-319
1.07578e-319
1.124e-319
1.1743e-319
1.22657e-319
1.28101e-319
1.33763e-319
1.39653e-319
1.45769e-319
1.52133e-319
1.58733e-319
1.65591e-319
3.72328e-320
3.73612e-320
3.7549e-320
3.77466e-320
3.7885e-320
3.7964e-320
3.7964e-320
3.78751e-320
3.77269e-320
3.75095e-320
3.72723e-320
3.69759e-320
3.66992e-320
3.66992e-320
3.72723e-320
3.81517e-320
3.82604e-320
3.73909e-320
3.65806e-320
3.63632e-320
4.44066e-320
4.6788e-320
4.92485e-320
5.17781e-320
5.43769e-320
5.70646e-320
5.98412e-320
6.27068e-320
6.5691e-320
6.87739e-320
7.19755e-320
7.53154e-320
7.87837e-320
8.24003e-320
8.6165e-320
9.00879e-320
9.41788e-320
9.84376e-320
1.02884e-319
1.07509e-319
1.12331e-319
1.17341e-319
1.22568e-319
1.28003e-319
1.33655e-319
1.39534e-319
1.45651e-319
1.51994e-319
1.58595e-319
1.65433e-319
3.72427e-320
3.73711e-320
3.75688e-320
3.77466e-320
3.7885e-320
3.7964e-320
3.79541e-320
3.78751e-320
3.7717e-320
3.75095e-320
3.72525e-320
3.69561e-320
3.66992e-320
3.6719e-320
3.73118e-320
3.81616e-320
3.82901e-320
3.74798e-320
3.66399e-320
3.63731e-320
4.4377e-320
4.67485e-320
4.92188e-320
5.17484e-320
5.43472e-320
5.70349e-320
5.98215e-320
6.2687e-320
6.56613e-320
6.87443e-320
7.19458e-320
7.52758e-320
7.87442e-320
8.23509e-320
8.61255e-320
9.00385e-320
9.41294e-320
9.83784e-320
1.02815e-319
1.0743e-319
1.12252e-319
1.17252e-319
1.22469e-319
1.27904e-319
1.33546e-319
1.39406e-319
1.45512e-319
1.51856e-319
1.58437e-319
1.65265e-319
3.72525e-320
3.7381e-320
3.75688e-320
3.77466e-320
3.7885e-320
3.7964e-320
3.79541e-320
3.78652e-320
3.77071e-320
3.74996e-320
3.72328e-320
3.69462e-320
3.66893e-320
3.67387e-320
3.73415e-320
3.81616e-320
3.83197e-320
3.75688e-320
3.6719e-320
3.6383e-320
4.43473e-320
4.67188e-320
4.91892e-320
5.17188e-320
5.43275e-320
5.70152e-320
5.98017e-320
6.26673e-320
6.56317e-320
6.87147e-320
7.19162e-320
7.52462e-320
7.87145e-320
8.23113e-320
8.60761e-320
8.99891e-320
9.40701e-320
9.83191e-320
1.02746e-319
1.0737e-319
1.12173e-319
1.17173e-319
1.2238e-319
1.27795e-319
1.33437e-319
1.39287e-319
1.45374e-319
1.51698e-319
1.58279e-319
1.65097e-319
3.72723e-320
3.73909e-320
3.75786e-320
3.77565e-320
3.7885e-320
3.7964e-320
3.79541e-320
3.78652e-320
3.77071e-320
3.74897e-320
3.72328e-320
3.69363e-320
3.66893e-320
3.67585e-320
3.73711e-320
3.81616e-320
3.83395e-320
3.76478e-320
3.6798e-320
3.64126e-320
4.43375e-320
4.66892e-320
4.91595e-320
5.1699e-320
5.43077e-320
5.69954e-320
5.97721e-320
6.26475e-320
6.56119e-320
6.86949e-320
7.18866e-320
7.52166e-320
7.8675e-320
8.22718e-320
8.60267e-320
8.99397e-320
9.40207e-320
9.82598e-320
1.02687e-319
1.07291e-319
1.12094e-319
1.17094e-319
1.22291e-319
1.27696e-319
1.33319e-319
1.39168e-319
1.45245e-319
1.5156e-319
1.58121e-319
1.64919e-319
3.72921e-320
3.74008e-320
3.75885e-320
3.77664e-320
3.78948e-320
3.7964e-320
3.79541e-320
3.78652e-320
3.77071e-320
3.74897e-320
3.72229e-320
3.69166e-320
3.66893e-320
3.67782e-320
3.73909e-320
3.81616e-320
3.83593e-320
3.77269e-320
3.68771e-320
3.64423e-320
4.43276e-320
4.66596e-320
4.91398e-320
5.16793e-320
5.42978e-320
5.69855e-320
5.97622e-320
6.26278e-320
6.55922e-320
6.86652e-320
7.18569e-320
7.5177e-320
7.86355e-320
8.22323e-320
8.59872e-320
8.99002e-320
9.39713e-320
9.82005e-320
1.02627e-319
1.07222e-319
1.12015e-319
1.16995e-319
1.22192e-319
1.27588e-319
1.332e-319
1.3905e-319
1.45107e-319
1.51411e-319
1.57953e-319
1.64741e-319
3.7302e-320
3.74107e-320
3.75885e-320
3.77664e-320
3.79047e-320
3.7964e-320
3.79541e-320
3.78652e-320
3.77071e-320
3.74897e-320
3.7213e-320
3.69166e-320
3.66992e-320
3.6798e-320
3.74107e-320
3.81616e-320
3.83691e-320
3.77861e-320
3.69561e-320
3.64818e-320
4.43276e-320
4.66497e-320
4.912e-320
5.16694e-320
5.42879e-320
5.69757e-320
5.97424e-320
6.2608e-320
6.55724e-320
6.86356e-320
7.18371e-320
7.51573e-320
7.86058e-320
8.22026e-320
8.59477e-320
8.98508e-320
9.3912e-320
9.81511e-320
1.02558e-319
1.07153e-319
1.11936e-319
1.16916e-319
1.22094e-319
1.27489e-319
1.33091e-319
1.38911e-319
1.44979e-319
1.51263e-319
1.57785e-319
1.64563e-319
3.73118e-320
3.74205e-320
3.76083e-320
3.77763e-320
3.79047e-320
3.7964e-320
3.79541e-320
3.78652e-320
3.77071e-320
3.74897e-320
3.7213e-320
3.69067e-320
3.66992e-320
3.68178e-320
3.74304e-320
3.81616e-320
3.8379e-320
3.78454e-320
3.70154e-320
3.65213e-320
4.43473e-320
4.66398e-320
4.91101e-320
5.16595e-320
5.42682e-320
5.69559e-320
5.97227e-320
6.25882e-320
6.55526e-320
6.86158e-320
7.18075e-320
7.51177e-320
7.85762e-320
8.21631e-320
8.59081e-320
8.98014e-320
9.38626e-320
9.80918e-320
1.02489e-319
1.07084e-319
1.11856e-319
1.16827e-319
1.21995e-319
1.2738e-319
1.32983e-319
1.38793e-319
1.4483e-319
1.51105e-319
1.57627e-319
1.64386e-319
3.73316e-320
3.74304e-320
3.76083e-320
3.77861e-320
3.79047e-320
3.7964e-320
3.7964e-320
3.78652e-320
3.7717e-320
3.74897e-320
3.7213e-320
3.69067e-320
3.67091e-320
3.68375e-320
3.74403e-320
3.81517e-320
3.8379e-320
3.78948e-320
3.70944e-320
3.65609e-320
4.43671e-320
4.66398e-320
4.91002e-320
5.16595e-320
5.42682e-320
5.69559e-320
5.97227e-320
6.25784e-320
6.55329e-320
6.85961e-320
7.17779e-320
7.5098e-320
7.85367e-320
8.21335e-320
8.58686e-320
8.97618e-320
9.38132e-320
9.80325e-320
1.0243e-319
1.07015e-319
1.11777e-319
1.16738e-319
1.21906e-319
1.27271e-319
1.32864e-319
1.38655e-319
1.44692e-319
1.50947e-319
1.57449e-319
1.64198e-319
3.73514e-320
3.74502e-320
3.7628e-320
3.77861e-320
3.79146e-320
3.79739e-320
3.7964e-320
3.78751e-320
3.77269e-320
3.74897e-320
3.7213e-320
3.69166e-320
3.6719e-320
3.68573e-320
3.74502e-320
3.81419e-320
3.83889e-320
3.79442e-320
3.71537e-320
3.66004e-320
4.43869e-320
4.66398e-320
4.90904e-320
5.16496e-320
5.42682e-320
5.69559e-320
5.97128e-320
6.25685e-320
6.55131e-320
6.85763e-320
7.17581e-320
7.50683e-320
7.85169e-320
8.20939e-320
8.58291e-320
8.97124e-320
9.37539e-320
9.79831e-320
1.0237e-319
1.06936e-319
1.11698e-319
1.16659e-319
1.21807e-319
1.27163e-319
1.32736e-319
1.38526e-319
1.44544e-319
1.50789e-319
1.57281e-319
1.6401e-319
3.73711e-320
3.74502e-320
3.7628e-320
3.78059e-320
3.79245e-320
3.79838e-320
3.7964e-320
3.7885e-320
3.77269e-320
3.74996e-320
3.7213e-320
3.69166e-320
3.67387e-320
3.68869e-320
3.74699e-320
3.81419e-320
3.8379e-320
3.7964e-320
3.7213e-320
3.66498e-320
4.44066e-320
4.66398e-320
4.90904e-320
5.16496e-320
5.42682e-320
5.6946e-320
5.97029e-320
6.25586e-320
6.55131e-320
6.85664e-320
7.17383e-320
7.50387e-320
7.84774e-320
8.20544e-320
8.57896e-320
8.9663e-320
9.37144e-320
9.79238e-320
1.02301e-319
1.06866e-319
1.11619e-319
1.1656e-319
1.21698e-319
1.27054e-319
1.32607e-319
1.38398e-319
1.44396e-319
1.50631e-319
1.57093e-319
1.63812e-319
3.7381e-320
3.74699e-320
3.76478e-320
3.78059e-320
3.79245e-320
3.79838e-320
3.79739e-320
3.7885e-320
3.77367e-320
3.75095e-320
3.72229e-320
3.69265e-320
3.67585e-320
3.69166e-320
3.74699e-320
3.8132e-320
3.8379e-320
3.79936e-320
3.72525e-320
3.66992e-320
4.44363e-320
4.66596e-320
4.91002e-320
5.16496e-320
5.42682e-320
5.6946e-320
5.97029e-320
6.25487e-320
6.54933e-320
6.85565e-320
7.17186e-320
7.50189e-320
7.84576e-320
8.20248e-320
8.575e-320
8.96235e-320
9.36551e-320
9.78645e-320
1.02232e-319
1.06797e-319
1.1154e-319
1.16461e-319
1.21599e-319
1.26935e-319
1.32489e-319
1.38259e-319
1.44247e-319
1.50453e-319
1.56915e-319
1.63615e-319
3.73909e-320
3.74897e-320
3.76577e-320
3.78257e-320
3.79442e-320
3.79936e-320
3.79838e-320
3.79047e-320
3.77466e-320
3.75193e-320
3.72328e-320
3.69363e-320
3.67782e-320
3.69363e-320
3.74897e-320
3.81221e-320
3.8379e-320
3.80134e-320
3.7302e-320
3.67387e-320
4.44659e-320
4.66694e-320
4.91101e-320
5.16595e-320
5.42682e-320
5.69559e-320
5.97029e-320
6.25487e-320
6.54933e-320
6.85368e-320
7.16988e-320
7.49992e-320
7.8428e-320
8.19951e-320
8.57105e-320
8.95741e-320
9.36057e-320
9.78052e-320
1.02173e-319
1.06718e-319
1.11441e-319
1.16372e-319
1.21501e-319
1.26817e-319
1.3235e-319
1.38111e-319
1.44089e-319
1.50285e-319
1.56718e-319
1.63397e-319
3.74107e-320
3.74996e-320
3.76676e-320
3.78355e-320
3.79442e-320
3.80035e-320
3.79838e-320
3.79047e-320
3.77565e-320
3.75292e-320
3.72525e-320
3.69561e-320
3.6798e-320
3.6966e-320
3.74996e-320
3.81221e-320
3.83593e-320
3.80233e-320
3.73514e-320
3.67782e-320
4.45054e-320
4.66892e-320
4.91101e-320
5.16595e-320
5.42682e-320
5.69559e-320
5.97029e-320
6.25487e-320
6.54736e-320