/*--------------------------------*- C++ -*----------------------------------*\
  =========                 |
  \\      /  F ield         | OpenFOAM: The Open Source CFD Toolbox
   \\    /   O peration     | Website:  https://openfoam.org
    \\  /    A nd           | Version:  9
     \\/     M anipulation  |
\*---------------------------------------------------------------------------*/
FoamFile
{
    format      ascii;
    class       volScalarField;
    location    "0.2";
    object      p;
}
// * * * * * * * * * * * * * * * * * * * * * * * * * * * * * * * * * * * * * //

dimensions      [1 -1 -2 0 0 0 0];

internalField   nonuniform List<scalar> 
5000
(
4.10833
4.17608
4.20548
4.21202
4.20303
4.19133
4.19886
4.22164
4.23139
4.21362
4.16139
4.05725
3.85868
3.47384
2.56718
1.27275
1.35931
2.74078
3.41936
3.79676
3.98068
4.07925
4.13846
4.1749
4.19727
4.21079
4.21884
4.22366
4.22666
4.22866
4.23008
4.23112
4.2319
4.23247
4.23287
4.23313
4.23328
4.23332
4.2333
4.23321
4.23307
4.2329
4.23271
4.23251
4.23231
4.23211
4.23191
4.23174
4.23158
4.23145
4.07643
4.14989
4.18777
4.20285
4.20595
4.20725
4.21697
4.23023
4.22953
4.20518
4.14866
4.04171
3.84456
3.51273
2.75795
2.00116
2.22735
2.95832
3.50285
3.78831
3.95569
4.054
4.11479
4.15414
4.17993
4.19699
4.20846
4.21633
4.22182
4.2257
4.22845
4.23037
4.23169
4.23256
4.2331
4.23339
4.23349
4.23344
4.23328
4.23303
4.23273
4.23238
4.232
4.23162
4.23123
4.23085
4.23049
4.23015
4.22984
4.22956
4.10123
4.15933
4.19462
4.211
4.2173
4.22009
4.22587
4.23236
4.22664
4.20152
4.14911
4.05636
3.89362
3.67811
3.25704
2.75288
2.92943
3.39548
3.72111
3.87233
3.99711
4.07515
4.12533
4.15962
4.18285
4.19863
4.20944
4.21693
4.22217
4.22585
4.22842
4.23019
4.23136
4.23209
4.2325
4.23266
4.23263
4.23247
4.23219
4.23185
4.23145
4.23102
4.23057
4.23012
4.22967
4.22923
4.22881
4.2284
4.22802
4.22766
4.14345
4.18338
4.21045
4.22377
4.22981
4.23217
4.23534
4.23876
4.23191
4.21018
4.16786
4.10038
3.98592
3.87037
3.72438
3.4552
3.48761
3.8129
3.92007
3.97937
4.06208
4.11303
4.14848
4.17449
4.1927
4.20537
4.2142
4.22035
4.22464
4.22763
4.22967
4.23102
4.23186
4.23232
4.23248
4.23243
4.23222
4.23188
4.23145
4.23097
4.23044
4.22989
4.22933
4.22878
4.22823
4.22769
4.22717
4.22667
4.2262
4.22574
4.18767
4.21269
4.23004
4.23915
4.24422
4.24645
4.24854
4.24956
4.24347
4.22676
4.19602
4.15425
4.08482
4.02955
4.0546
3.95983
3.92566
4.11784
4.06369
4.07982
4.12653
4.15328
4.17525
4.19268
4.20534
4.21446
4.22096
4.22553
4.22869
4.23084
4.23222
4.23304
4.23344
4.23351
4.23334
4.23299
4.23251
4.23193
4.23128
4.23059
4.22988
4.22915
4.22842
4.2277
4.227
4.22632
4.22566
4.22503
4.22442
4.22384
4.23008
4.2432
4.25159
4.25672
4.26042
4.26222
4.26351
4.26338
4.25861
4.2472
4.22694
4.20593
4.17323
4.15261
4.26726
4.27688
4.22739
4.32085
4.17404
4.16792
4.18378
4.19218
4.20314
4.21268
4.21996
4.22545
4.22944
4.23222
4.23407
4.2352
4.23579
4.23595
4.23578
4.23538
4.23479
4.23407
4.23326
4.23238
4.23146
4.23051
4.22956
4.22862
4.22769
4.22678
4.22589
4.22503
4.22421
4.22342
4.22266
4.22194
4.26904
4.27244
4.27347
4.27516
4.27715
4.27818
4.27895
4.27879
4.27587
4.26966
4.25854
4.25303
4.24894
4.25149
4.40716
4.46762
4.42274
4.45692
4.26652
4.24307
4.23392
4.22892
4.2308
4.23335
4.23569
4.23766
4.23908
4.23995
4.24034
4.24033
4.24
4.2394
4.23861
4.23766
4.2366
4.23546
4.23427
4.23306
4.23183
4.2306
4.22939
4.22821
4.22705
4.22593
4.22484
4.2238
4.2228
4.22184
4.22093
4.22005
4.30373
4.29948
4.29474
4.2936
4.29386
4.29409
4.29467
4.29506
4.29427
4.2929
4.28978
4.29561
4.31279
4.33116
4.50084
4.58034
4.54568
4.54712
4.34175
4.30525
4.27766
4.26284
4.25714
4.2537
4.25166
4.25037
4.24931
4.24827
4.24718
4.24598
4.24467
4.24327
4.24179
4.24026
4.23869
4.2371
4.23551
4.23393
4.23237
4.23084
4.22935
4.2279
4.2265
4.22515
4.22386
4.22261
4.22142
4.22029
4.2192
4.21817
4.33355
4.32388
4.31494
4.31164
4.3104
4.31
4.31056
4.31167
4.31288
4.31564
4.31922
4.33279
4.36455
4.39173
4.56058
4.6425
4.61802
4.60223
4.39848
4.35456
4.3147
4.29295
4.28124
4.27287
4.26711
4.26294
4.25961
4.2568
4.25428
4.25191
4.24963
4.24742
4.24524
4.2431
4.241
4.23894
4.23693
4.23497
4.23306
4.23121
4.22942
4.2277
4.22604
4.22445
4.22293
4.22147
4.22008
4.21876
4.21749
4.21629
4.35812
4.34522
4.33362
4.32885
4.32648
4.32568
4.32632
4.32815
4.33105
4.33701
4.34581
4.36396
4.4048
4.43512
4.59564
4.67188
4.65523
4.63218
4.43887
4.39205
4.34475
4.31855
4.30243
4.29026
4.2815
4.27489
4.26957
4.26523
4.26136
4.25789
4.25469
4.25168
4.24881
4.24607
4.24344
4.2409
4.23846
4.23611
4.23384
4.23166
4.22957
4.22756
4.22564
4.2238
4.22204
4.22036
4.21876
4.21724
4.21579
4.21441
4.37779
4.36343
4.3505
4.34493
4.34183
4.34082
4.3416
4.34408
4.34834
4.35658
4.36915
4.38951
4.4354
4.46541
4.61417
4.68122
4.67046
4.64614
4.46665
4.41979
4.36836
4.33971
4.32057
4.3056
4.29453
4.28593
4.27902
4.2732
4.26818
4.26372
4.25966
4.2559
4.25238
4.24906
4.24591
4.2429
4.24003
4.23728
4.23466
4.23215
4.22974
4.22745
4.22525
4.22316
4.22117
4.21927
4.21746
4.21573
4.21409
4.21253
4.39333
4.37879
4.36558
4.35966
4.35625
4.35518
4.35614
4.35917
4.36446
4.37419
4.38931
4.41024
4.45837
4.48638
4.62209
4.67866
4.67338
4.65044
4.48491
4.43997
4.3865
4.35693
4.33584
4.31888
4.30608
4.29593
4.28762
4.28064
4.2746
4.26925
4.26441
4.25997
4.25584
4.25197
4.24831
4.24485
4.24157
4.23844
4.23546
4.23262
4.22991
4.22733
4.22487
4.22252
4.22029
4.21817
4.21615
4.21423
4.2124
4.21065
4.40552
4.39166
4.37887
4.3731
4.36963
4.36865
4.36979
4.37326
4.37928
4.38984
4.40654
4.42697
4.47531
4.50057
4.62305
4.66945
4.66901
4.64847
4.49582
4.45439
4.39993
4.37087
4.34852
4.33016
4.31613
4.30476
4.29536
4.28741
4.28051
4.27439
4.26886
4.2638
4.25911
4.25472
4.2506
4.24671
4.24303
4.23954
4.23621
4.23305
4.23005
4.22719
4.22446
4.22187
4.21941
4.21706
4.21483
4.21271
4.2107
4.20877
4.415
4.40225
4.39066
4.38524
4.38193
4.38114
4.38247
4.38624
4.39277
4.40361
4.42115
4.44034
4.48754
4.50966
4.61945
4.65828
4.65834
4.64202
4.50094
4.46445
4.4092
4.38231
4.35887
4.3396
4.32469
4.31243
4.30219
4.29347
4.28585
4.27907
4.27294
4.26733
4.26213
4.25728
4.25273
4.24844
4.24438
4.24054
4.23689
4.23342
4.23013
4.227
4.22402
4.22119
4.21849
4.21594
4.2135
4.21119
4.20899
4.2069
4.42249
4.41099
4.40092
4.39611
4.39314
4.39265
4.39416
4.39813
4.40495
4.41561
4.43348
4.45087
4.49622
4.51485
4.61276
4.64493
4.64497
4.63291
4.50158
4.4713
4.41448
4.39251
4.36712
4.34729
4.33185
4.31897
4.30811
4.29879
4.29059
4.28327
4.27662
4.27053
4.26488
4.2596
4.25466
4.24999
4.24559
4.24142
4.23746
4.23371
4.23014
4.22675
4.22352
4.22046
4.21755
4.21478
4.21216
4.20966
4.20728
4.20501
4.42818
4.41842
4.40987
4.40583
4.40332
4.40316
4.40487
4.40895
4.41587
4.42598
4.44389
4.45896
4.50231
4.51721
4.60405
4.62946
4.63127
4.62289
4.49789
4.47735
4.42167
4.39645
4.37277
4.35332
4.33771
4.32445
4.31318
4.3034
4.29474
4.28697
4.27989
4.27338
4.26733
4.26168
4.25637
4.25137
4.24664
4.24217
4.23792
4.23389
4.23007
4.22643
4.22298
4.21969
4.21657
4.2136
4.21079
4.20811
4.20556
4.20313
4.4326
4.42476
4.41772
4.41453
4.41255
4.41275
4.41461
4.41871
4.42553
4.43503
4.45255
4.46505
4.50664
4.51757
4.59443
4.61337
4.61759
4.61521
4.49917
4.47224
4.42539
4.40007
4.37715
4.35808
4.34245
4.329
4.31745
4.30734
4.29833
4.2902
4.28276
4.27588
4.26949
4.2635
4.25787
4.25256
4.24754
4.24278
4.23827
4.23398
4.22991
4.22604
4.22237
4.21887
4.21555
4.21239
4.20939
4.20654
4.20383
4.20124
4.43615
4.43019
4.42465
4.42232
4.42091
4.42144
4.42346
4.42749
4.43414
4.44294
4.45943
4.46983
4.50974
4.51655
4.58491
4.59762
4.60322
4.59791
4.50532
4.47053
4.42738
4.40275
4.38052
4.36184
4.34627
4.33276
4.32105
4.3107
4.30142
4.29299
4.28525
4.27807
4.27137
4.26508
4.25916
4.25357
4.24828
4.24326
4.2385
4.23397
4.22967
4.22558
4.2217
4.218
4.21449
4.21115
4.20798
4.20496
4.20209
4.19935
4.43913
4.43493
4.43081
4.42934
4.4285
4.42935
4.43148
4.43539
4.44177
4.44985
4.46498
4.47383
4.51165
4.51497
4.57612
4.58341
4.58993
4.58486
4.50491
4.46908
4.42856
4.40464
4.38306
4.36478
4.34935
4.33585
4.32405
4.31355
4.30406
4.2954
4.2874
4.27995
4.27299
4.26644
4.26026
4.25441
4.24887
4.24361
4.23861
4.23386
4.22935
4.22505
4.22097
4.21708
4.21339
4.20987
4.20653
4.20336
4.20034
4.19745
4.44178
4.43916
4.43634
4.43569
4.43541
4.43657
4.43877
4.44253
4.44855
4.45593
4.4697
4.47921
4.50859
4.51548
4.56813
4.57142
4.57795
4.57416
4.50207
4.46703
4.42897
4.40586
4.38492
4.36706
4.35183
4.3384
4.32657
4.31596
4.30632
4.29746
4.28925
4.28158
4.27438
4.2676
4.26118
4.2551
4.24932
4.24384
4.23862
4.23366
4.22894
4.22445
4.22018
4.21611
4.21224
4.20857
4.20507
4.20175
4.19858
4.19556
4.44425
4.443
4.44136
4.44148
4.44174
4.44318
4.44545
4.44903
4.45466
4.46142
4.47384
4.48274
4.50677
4.51581
4.56124
4.56172
4.56694
4.56428
4.49916
4.46487
4.42884
4.40657
4.38627
4.36885
4.35383
4.34051
4.32869
4.31801
4.30825
4.29925
4.29086
4.28299
4.27558
4.26858
4.26195
4.25565
4.24966
4.24397
4.23855
4.23338
4.22847
4.22379
4.21934
4.2151
4.21106
4.20723
4.20358
4.20011
4.19681
4.19365
4.44661
4.44655
4.44599
4.44683
4.44759
4.44929
4.45161
4.455
4.46023
4.46634
4.47742
4.48547
4.50644
4.51463
4.5568
4.55443
4.55768
4.55469
4.49636
4.46268
4.42839
4.40694
4.38726
4.37026
4.35548
4.34229
4.3305
4.31979
4.30995
4.30081
4.29227
4.28423
4.27663
4.26943
4.2626
4.25609
4.2499
4.24401
4.23839
4.23304
4.22794
4.22308
4.21845
4.21405
4.20986
4.20587
4.20208
4.19848
4.19505
4.19176
4.44889
4.44988
4.4503
4.45182
4.45306
4.45499
4.45734
4.46054
4.46535
4.47086
4.48074
4.48809
4.50673
4.51667
4.55115
4.54897
4.54935
4.54631
4.49365
4.46046
4.42779
4.40713
4.38803
4.37144
4.3569
4.34385
4.33211
4.32137
4.31146
4.30221
4.29353
4.28533
4.27756
4.27018
4.26315
4.25645
4.25007
4.24398
4.23817
4.23263
4.22735
4.22232
4.21752
4.21296
4.20861
4.20447
4.20053
4.1968
4.19324
4.18985
4.45108
4.45304
4.45438
4.45652
4.45822
4.46036
4.46273
4.46576
4.47018
4.47512
4.48394
4.49064
4.50713
4.51772
4.54861
4.54548
4.54214
4.53865
4.49105
4.4584
4.4272
4.40726
4.38871
4.3725
4.35819
4.34528
4.33359
4.32284
4.31286
4.30352
4.29471
4.28636
4.27842
4.27086
4.26364
4.25676
4.25019
4.24391
4.23792
4.2322
4.22674
4.22154
4.21658
4.21185
4.20735
4.20307
4.199
4.19513
4.19145
4.18793
4.45317
4.45608
4.4583
4.46104
4.46314
4.46547
4.46787
4.47076
4.47483
4.47926
4.48713
4.49322
4.508
4.51869
4.54791
4.54336
4.53604
4.53157
4.48881
4.45669
4.42677
4.4075
4.38944
4.37358
4.35948
4.34669
4.33504
4.32427
4.31423
4.30478
4.29584
4.28734
4.27924
4.2715
4.26411
4.25704
4.25028
4.24382
4.23765
4.23175
4.22612
4.22075
4.21563
4.21076
4.20612
4.2017
4.1975
4.19351
4.18971
4.18603
4.45516
4.45903
4.46206
4.46546
4.46789
4.47039
4.47284
4.47561
4.47939
4.4834
4.49042
4.49596
4.50947
4.52003
4.54786
4.54196
4.53095
4.52535
4.48719
4.4555
4.42667
4.40798
4.39036
4.37479
4.36086
4.34816
4.33654
4.32574
4.31562
4.30607
4.29699
4.28834
4.28007
4.27216
4.26458
4.25733
4.25038
4.24373
4.23738
4.2313
4.2255
4.21996
4.21468
4.20965
4.20486
4.20029
4.19595
4.19182
4.18789
4.1841
4.45706
4.46195
4.46589
4.46966
4.47249
4.47518
4.4777
4.4804
4.48395
4.48763
4.49394
4.49895
4.51141
4.52151
4.54776
4.54074
4.52683
4.52038
4.48638
4.45495
4.42706
4.40886
4.39157
4.37622
4.36243
4.34979
4.33816
4.32731
4.3171
4.30743
4.29821
4.28939
4.28095
4.27285
4.26509
4.25764
4.25051
4.24367
4.23713
4.23087
4.22489
4.21918
4.21373
4.20854
4.20359
4.19888
4.1944
4.19015
4.18609
4.1822
4.45891
4.46484
4.46963
4.47384
4.47703
4.4799
4.48251
4.48519
4.48859
4.49202
4.49774
4.50225
4.51367
4.52282
4.54691
4.53918
4.5237
4.51695
4.48649
4.45518
4.42806
4.41023
4.39319
4.37799
4.36426
4.35164
4.33997
4.32904
4.31872
4.3089
4.29953
4.29054
4.28191
4.27362
4.26567
4.25802
4.25069
4.24366
4.23693
4.23049
4.22432
4.21844
4.21282
4.20747
4.20237
4.19751
4.19289
4.18851
4.18432
4.18031
4.46078
4.46778
4.47335
4.47801
4.48153
4.48459
4.48732
4.49004
4.49336
4.49661
4.50184
4.50584
4.51613
4.52371
4.54469
4.53688
4.52149
4.51518
4.48753
4.45626
4.42977
4.41218
4.39527
4.38014
4.36643
4.35378
4.34203
4.33098
4.32052
4.31055
4.30099
4.29182
4.28299
4.2745
4.26634
4.25849
4.25096
4.24373
4.2368
4.23016
4.22382
4.21775
4.21196
4.20644
4.20118
4.19617
4.19141
4.18688
4.18256
4.17841
4.46275
4.47081
4.47709
4.48217
4.48602
4.48928
4.49216
4.49497
4.49828
4.50142
4.50624
4.50969
4.51859
4.52399
4.54089
4.53365
4.52002
4.51492
4.48936
4.45818
4.43223
4.41476
4.39788
4.38274
4.36898
4.35624
4.34436
4.33317
4.32255
4.31239
4.30264
4.29326
4.28422
4.27552
4.26714
4.25908
4.25133
4.24389
4.23675
4.22992
4.22338
4.21713
4.21116
4.20546
4.20003
4.19486
4.18994
4.18526
4.1808
4.17651
4.46492
4.4739
4.48086
4.48636
4.49053
4.49401
4.49708
4.50002
4.50338
4.50646
4.51089
4.51372
4.52092
4.52362
4.53594
4.52941
4.519
4.51574
4.4917
4.46085
4.4354
4.41797
4.40104
4.38582
4.37194
4.35906
4.34702
4.33565
4.32482
4.31446
4.30449
4.29489
4.28563
4.2767
4.26809
4.2598
4.25183
4.24417
4.23682
4.22977
4.22303
4.21658
4.21042
4.20454
4.19893
4.19359
4.1885
4.18366
4.17905
4.17462
4.46729
4.47709
4.48468
4.49058
4.49507
4.4988
4.50208
4.5052
4.50864
4.51169
4.51575
4.51787
4.52303
4.52267
4.52982
4.52505
4.51826
4.51703
4.4942
4.46406
4.43921
4.4218
4.40474
4.38937
4.37533
4.36226
4.35001
4.33842
4.32737
4.31678
4.30657
4.29673
4.28723
4.27806
4.26921
4.26068
4.25247
4.24458
4.237
4.22974
4.22277
4.21611
4.20975
4.20367
4.19788
4.19236
4.1871
4.18211
4.17734
4.17276
4.4699
4.48041
4.48856
4.49486
4.49968
4.50367
4.5072
4.51052
4.51408
4.51712
4.52078
4.5221
4.525
4.52141
4.52372
4.52038
4.51762
4.51817
4.49647
4.46752
4.44353
4.42619
4.40897
4.39341
4.37915
4.36585
4.35336
4.34153
4.33022
4.31937
4.30891
4.29881
4.28905
4.27962
4.27052
4.26174
4.25328
4.24515
4.23733
4.22982
4.22263
4.21575
4.20916
4.20287
4.19686
4.19114
4.18568
4.1805
4.17558
4.1709
4.4728
4.48387
4.49253
4.49921
4.50437
4.50864
4.51244
4.51599
4.5197
4.52272
4.52597
4.52644
4.52697
4.52024
4.51815
4.51604
4.51698
4.51872
4.49824
4.47097
4.44818
4.43104
4.41368
4.39791
4.38342
4.36985
4.35708
4.34497
4.33338
4.32224
4.31151
4.30113
4.2911
4.2814
4.27203
4.26299
4.25427
4.24588
4.23781
4.23006
4.22262
4.2155
4.20869
4.20218
4.19596
4.19003
4.18437
4.17897
4.17382
4.16887
4.47596
4.4875
4.49661
4.50366
4.50917
4.51375
4.51784
4.52165
4.5255
4.52851
4.53134
4.53094
4.52918
4.51961
4.5138
4.51262
4.51637
4.51856
4.49942
4.47423
4.45304
4.43626
4.41882
4.40287
4.38811
4.37425
4.36119
4.34876
4.33687
4.32543
4.31439
4.30372
4.2934
4.28341
4.27376
4.26443
4.25544
4.24678
4.23844
4.23043
4.22275
4.21539
4.20834
4.2016
4.19517
4.18903
4.18318
4.1776
4.17227
4.16713
4.47938
4.4913
4.50082
4.50823
4.5141
4.51901
4.52342
4.5275
4.5315
4.53452
4.53694
4.53572
4.53189
4.51997
4.51127
4.51054
4.51603
4.51792
4.50018
4.47729
4.45802
4.44179
4.42437
4.40825
4.39324
4.37907
4.36569
4.35293
4.34071
4.32894
4.31758
4.30659
4.29596
4.28567
4.27571
4.26609
4.2568
4.24785
4.23924
4.23095
4.223
4.21537
4.20807
4.20108
4.19439
4.18801
4.18191
4.1761
4.17056
4.16526
4.48303
4.49528
4.50517
4.51296
4.5192
4.52447
4.52922
4.53357
4.53775
4.54079
4.54284
4.54091
4.53534
4.52167
4.51089
4.51023
4.51634
4.5173
4.50092
4.48033
4.46314
4.4476
4.43031
4.41407
4.3988
4.38433
4.3706
4.3575
4.34492
4.3328
4.3211
4.30977
4.2988
4.28817
4.27789
4.26796
4.25836
4.24911
4.2402
4.23162
4.22338
4.21548
4.2079
4.20064
4.19369
4.18706
4.18072
4.17468
4.16893
4.16341
4.4869
4.49944
4.5097
4.51787
4.5245
4.53015
4.53525
4.53991
4.54427
4.54735
4.54911
4.54664
4.53976
4.52497
4.51285
4.51192
4.51777
4.51735
4.50217
4.48371
4.46854
4.45373
4.43665
4.42033
4.40482
4.39004
4.37596
4.36249
4.34953
4.33704
4.32496
4.31326
4.30193
4.29095
4.28033
4.27005
4.26013
4.25055
4.24132
4.23244
4.2239
4.2157
4.20783
4.20029
4.19308
4.18618
4.17959
4.1733
4.16731
4.16157
4.49096
4.5038
4.51442
4.52298
4.53003
4.53607
4.54155
4.54652
4.55109
4.55426
4.55584
4.55303
4.54532
4.53
4.51723
4.51576
4.5207
4.51873
4.50454
4.48787
4.47441
4.46028
4.44345
4.42707
4.41132
4.39623
4.38179
4.36793
4.35458
4.34168
4.32919
4.3171
4.30538
4.29402
4.28303
4.27239
4.26211
4.25219
4.24263
4.23342
4.22455
4.21604
4.20787
4.20003
4.19253
4.18536
4.1785
4.17195
4.1657
4.15972
4.49521
4.50834
4.51933
4.52831
4.53579
4.54226
4.54813
4.55345
4.55825
4.56157
4.56308
4.56017
4.55212
4.5369
4.52393
4.5218
4.52548
4.52198
4.50856
4.49325
4.48103
4.46738
4.45078
4.43434
4.41835
4.40294
4.38813
4.37386
4.36008
4.34676
4.33384
4.32132
4.30918
4.29742
4.28602
4.27499
4.26433
4.25404
4.24411
4.23455
4.22534
4.2165
4.208
4.19986
4.19205
4.18458
4.17744
4.17062
4.16411
4.15788
4.49962
4.51307
4.52446
4.53388
4.54182
4.54873
4.55501
4.5607
4.56577
4.5693
4.57089
4.56813
4.56024
4.54552
4.53282
4.53005
4.5323
4.52747
4.51462
4.50022
4.48865
4.4752
4.45874
4.44219
4.42595
4.4102
4.395
4.38031
4.36609
4.35231
4.33894
4.32597
4.31338
4.30117
4.28934
4.27789
4.26681
4.25612
4.2458
4.23585
4.22628
4.21708
4.20824
4.19976
4.19164
4.18387
4.17643
4.16932
4.16254
4.15605
4.50418
4.51798
4.5298
4.53969
4.5481
4.55549
4.5622
4.56827
4.57366
4.57748
4.57928
4.57692
4.56947
4.55596
4.54377
4.54038
4.54121
4.53533
4.52292
4.50899
4.49746
4.4839
4.46742
4.4507
4.43417
4.41807
4.40246
4.38733
4.37265
4.35839
4.34454
4.33108
4.31801
4.30532
4.29302
4.2811
4.26958
4.25844
4.2477
4.23734
4.22737
4.21779
4.20859
4.19976
4.1913
4.1832
4.17545
4.16805
4.16098
4.15422
4.50888
4.52308
4.53536
4.54574
4.55465
4.56252
4.5697
4.57618
4.58193
4.58612
4.58828
4.58656
4.57999
4.56788
4.55657
4.55264
4.55217
4.54554
4.53348
4.51965
4.5076
4.4936
4.47692
4.45992
4.44306
4.42657
4.41054
4.39495
4.37979
4.36504
4.35068
4.33671
4.32312
4.30992
4.2971
4.28469
4.27267
4.26106
4.24985
4.23905
4.22866
4.21866
4.20907
4.19986
4.19104
4.18259
4.17452
4.1668
4.15944
4.1524
4.51371
4.52836
4.54112
4.55201
4.56145
4.56983
4.57748
4.58442
4.59057
4.59521
4.59789
4.59702
4.59165
4.58119
4.57097
4.56664
4.56505
4.55795
4.54617
4.53215
4.51914
4.5044
4.48731
4.46992
4.45266
4.43576
4.41928
4.40322
4.38756
4.37229
4.3574
4.34288
4.32874
4.31499
4.30163
4.28868
4.27613
4.26401
4.2523
4.24102
4.23016
4.21972
4.2097
4.20008
4.19087
4.18206
4.17363
4.16559
4.15791
4.15059
4.51867
4.5338
4.54708
4.55851
4.56848
4.57739
4.58555
4.59297
4.59958
4.60477
4.60811
4.60828
4.60434
4.59576
4.58675
4.58219
4.57966
4.5723
4.56078
4.54637
4.53209
4.51635
4.49865
4.48076
4.46304
4.44568
4.42873
4.41216
4.39598
4.38017
4.36472
4.34963
4.33492
4.32058
4.30665
4.29312
4.28002
4.26734
4.2551
4.2433
4.23194
4.22101
4.21053
4.20047
4.19085
4.18164
4.17284
4.16444
4.15643
4.1488
4.52373
4.53938
4.55321
4.5652
4.57573
4.58519
4.59389
4.60183
4.60897
4.61479
4.61894
4.62032
4.618
4.61142
4.60371
4.5991
4.59581
4.58835
4.57706
4.56216
4.54641
4.52949
4.51101
4.49249
4.47423
4.45637
4.4389
4.42181
4.40508
4.3887
4.37266
4.35698
4.34166
4.32673
4.31219
4.29807
4.28437
4.27111
4.2583
4.24594
4.23404
4.2226
4.21162
4.20109
4.19101
4.18137
4.17216
4.16337
4.15499
4.14702
4.52886
4.54509
4.5595
4.57207
4.58317
4.59322
4.60248
4.611
4.61874
4.62529
4.63037
4.63311
4.63255
4.62803
4.62169
4.61717
4.61332
4.60586
4.59478
4.57934
4.56207
4.54385
4.52444
4.50517
4.4863
4.46787
4.44985
4.43219
4.41488
4.3979
4.38125
4.36495
4.349
4.33344
4.31828
4.30353
4.28921
4.27534
4.26193
4.24899
4.23651
4.22452
4.21301
4.20196
4.19139
4.18128
4.17162
4.1624
4.15361
4.14524
4.53406
4.55089
4.56591
4.57908
4.59079
4.60144
4.61132
4.62048
4.62889
4.63627
4.64243
4.64664
4.64794
4.64548
4.64057
4.63628
4.63203
4.62465
4.61377
4.59781
4.57902
4.55945
4.53899
4.51887
4.4993
4.48024
4.46161
4.44335
4.42541
4.40779
4.3905
4.37355
4.35695
4.34074
4.32492
4.30952
4.29456
4.28005
4.26602
4.25246
4.23939
4.22682
4.21473
4.20314
4.19204
4.18141
4.17125
4.16155
4.1523
4.14347
4.53929
4.55675
4.57241
4.58621
4.59856
4.60986
4.6204
4.63026
4.63945
4.64778
4.65513
4.66092
4.66413
4.6637
4.66023
4.65631
4.65184
4.64462
4.63391
4.61748
4.59726
4.57634
4.55474
4.53367
4.51331
4.49354
4.47424
4.45531
4.4367
4.41841
4.40044
4.3828
4.36552
4.34862
4.33212
4.31605
4.30042
4.28525
4.27057
4.25637
4.24268
4.2295
4.21682
4.20464
4.19297
4.18178
4.17108
4.16085
4.15108
4.14175
4.5445
4.56264
4.57897
4.59345
4.60647
4.61847
4.62974
4.64038
4.65044
4.65982
4.66849
4.67595
4.6811
4.68265
4.68063
4.6772
4.67269
4.66568
4.65516
4.63831
4.61679
4.59454
4.57175
4.54965
4.5284
4.50785
4.48781
4.46816
4.44883
4.42981
4.41111
4.39274
4.37473
4.35711
4.33989
4.3231
4.30677
4.29092
4.27557
4.26071
4.24637
4.23255
4.21924
4.20645
4.19417
4.18238
4.17109
4.16028
4.14993
4.14006
4.54967
4.56851
4.58557
4.60075
4.6145
4.62726
4.63933
4.65084
4.66188
4.67244
4.68255
4.69176
4.69886
4.70233
4.70175
4.69893
4.69455
4.68783
4.67749
4.6603
4.63762
4.61411
4.5901
4.56689
4.54467
4.52325
4.5024
4.48196
4.46184
4.44204
4.42256
4.40341
4.38462
4.36621
4.34823
4.33069
4.31363
4.29705
4.28099
4.26544
4.25042
4.23592
4.22196
4.20851
4.19558
4.18316
4.17124
4.15981
4.14886
4.1384
4.55475
4.57434
4.59216
4.60811
4.62264
4.63623
4.64918
4.66166
4.67379
4.68566
4.69732
4.70835
4.71742
4.72275
4.72361
4.72151
4.71744
4.71108
4.70094
4.68348
4.65978
4.63509
4.60986
4.58548
4.5622
4.53983
4.51809
4.49679
4.47584
4.45519
4.43486
4.41486
4.39522
4.37599
4.35718
4.33884
4.32098
4.30363
4.2868
4.27051
4.25476
4.23956
4.22489
4.21076
4.19715
4.18406
4.17148
4.1594
4.14781
4.13675
4.5597
4.58009
4.59871
4.61549
4.63088
4.64537
4.65929
4.67284
4.68619
4.69948
4.71282
4.72575
4.7368
4.74396
4.74625
4.74497
4.74138
4.73546
4.72554
4.70788
4.68332
4.65754
4.63108
4.60548
4.58108
4.55768
4.53498
4.51275
4.49087
4.46931
4.44806
4.42715
4.40661
4.38647
4.36678
4.34756
4.32885
4.31065
4.293
4.2759
4.25937
4.24339
4.22797
4.2131
4.19878
4.18499
4.17173
4.159
4.14677
4.1351
4.56448
4.5857
4.6052
4.62288
4.6392
4.65467
4.66966
4.68438
4.69906
4.71391
4.72903
4.74394
4.75702
4.76602
4.76974
4.7694
4.76642
4.76102
4.75136
4.73357
4.70828
4.68148
4.65383
4.62697
4.60137
4.57686
4.55311
4.52988
4.50702
4.48447
4.46224
4.44035
4.41883
4.39773
4.37709
4.35692
4.33727
4.31816
4.2996
4.28162
4.26422
4.2474
4.23117
4.21551
4.20043
4.18592
4.17197
4.15857
4.14571
4.13345
4.56904
4.59116
4.6116
4.63024
4.64757
4.66411
4.68025
4.69626
4.71238
4.7289
4.74594
4.76292
4.7781
4.78897
4.79418
4.79486
4.79262
4.78781
4.77844
4.76059
4.7347
4.70697
4.67814
4.65
4.62314
4.59743
4.57256
4.54824
4.52432
4.50072
4.47744
4.4545
4.43195
4.40982
4.38815
4.36697
4.34631
4.3262
4.30667
4.28772
4.26938
4.25164
4.23452
4.21801
4.20212
4.18684
4.17217
4.15809
4.14461
4.13177
4.57336
4.59641
4.61785
4.63754
4.65596
4.67365
4.69104
4.70842
4.7261
4.7444
4.76348
4.78265
4.80006
4.81288
4.81966
4.82146
4.82005
4.81589
4.80684
4.78901
4.76265
4.73407
4.70408
4.67462
4.64642
4.61944
4.59336
4.56788
4.54282
4.51809
4.49369
4.46965
4.446
4.42277
4.40001
4.37775
4.35602
4.33485
4.31427
4.29429
4.27493
4.25621
4.23814
4.22074
4.204
4.18793
4.17252
4.15776
4.14364
4.13019
4.57739
4.60143
4.62393
4.64472
4.66429
4.68321
4.70193
4.72078
4.74013
4.76034
4.78159
4.80311
4.82291
4.83783
4.84629
4.84932
4.84882
4.84532
4.83665
4.81893
4.79219
4.76283
4.7317
4.70088
4.67129
4.64294
4.61556
4.58883
4.56254
4.53662
4.51103
4.48581
4.46098
4.43659
4.41268
4.38928
4.36644
4.34416
4.32248
4.30141
4.28099
4.26122
4.24215
4.22376
4.20609
4.18912
4.17288
4.15735
4.14253
4.12862
4.5811
4.60616
4.62976
4.65171
4.6725
4.69272
4.71284
4.73325
4.75436
4.77662
4.8002
4.82425
4.84664
4.86387
4.87419
4.87857
4.87904
4.87622
4.86797
4.85045
4.82344
4.79334
4.76107
4.72886
4.69778
4.66798
4.63921
4.61113
4.58354
4.55633
4.52947
4.50298
4.4769
4.45127
4.42615
4.40157
4.37755
4.35412
4.33131
4.30914
4.28764
4.26682
4.24671
4.22733
4.2087
4.19083
4.17373
4.1574
4.14179
4.12716
4.58445
4.61055
4.63529
4.65843
4.68048
4.70204
4.72364
4.7457
4.76869
4.79314
4.81924
4.84609
4.87123
4.89107
4.90347
4.90933
4.91082
4.9087
4.90092
4.88371
4.85652
4.82572
4.7923
4.75863
4.72599
4.69463
4.66436
4.63485
4.60586
4.57727
4.54904
4.5212
4.49378
4.46684
4.44043
4.41459
4.38934
4.36473
4.34077
4.31749
4.29492
4.27306
4.25195
4.23161
4.21204
4.19325
4.17523
4.15795
4.14134
4.12563
4.58738
4.61454
4.64042
4.66477
4.6881
4.71106
4.7342
4.758
4.783
4.80981
4.83864
4.86853
4.89677
4.91951
4.93422
4.94173
4.94429
4.9429
4.93568
4.91888
4.89158
4.8601
4.8255
4.7903
4.75599
4.72298
4.6911
4.66005
4.62957
4.59951
4.56982
4.54052
4.51167
4.48332
4.45554
4.42836
4.40182
4.37595
4.35079
4.32637
4.30269
4.27977
4.25762
4.23624
4.21564
4.1958
4.17672
4.15839
4.14077
4.12402
4.58986
4.61805
4.64505
4.67061
4.69524
4.71964
4.74438
4.77002
4.79719
4.82654
4.85835
4.89158
4.92327
4.94924
4.96652
4.97587
4.9796
4.979
4.97242
4.95614
4.9288
4.89665
4.86081
4.82398
4.78789
4.75309
4.7195
4.6868
4.65472
4.62309
4.59185
4.56102
4.53065
4.50081
4.47154
4.44292
4.41499
4.38778
4.36134
4.33569
4.31083
4.28677
4.26353
4.24109
4.21944
4.19855
4.17843
4.15905
4.1404
4.1226
4.5918
4.62097
4.64906
4.67582
4.70177
4.72763
4.75406
4.78167
4.81116
4.84328
4.87835
4.91525
4.95074
4.98025
5.0004
5.0118
5.01685
5.01715
5.01135
4.99571
4.96839
4.93555
4.89838
4.8598
4.82178
4.78506
4.74961
4.71514
4.68136
4.64807
4.61519
4.58274
4.55077
4.51933
4.4885
4.45834
4.42892
4.40028
4.37245
4.34547
4.31935
4.2941
4.2697
4.24616
4.22342
4.20148
4.18029
4.15984
4.14009
4.12132
4.59311
4.62322
4.65235
4.68027
4.70754
4.73493
4.76313
4.79284
4.82484
4.85999
4.89862
4.93953
4.97915
5.01255
5.03587
5.04957
5.05614
5.05751
5.05266
5.0378
5.01055
4.97698
4.93839
4.89791
4.85779
4.81895
4.78148
4.74509
4.70947
4.6744
4.6398
4.60565
4.57199
4.53889
4.50642
4.47465
4.44365
4.41348
4.38417
4.35576
4.32827
4.30171
4.27605
4.25128
4.22737
4.20428
4.18199
4.16048
4.13968
4.12008
4.59371
4.62467
4.65478
4.68385
4.71245
4.74142
4.7715
4.80346
4.83818
4.87661
4.91912
4.96439
5.00851
5.04606
5.07287
5.08916
5.09753
5.10025
5.09657
5.08264
5.05548
5.02115
4.98101
4.93846
4.89602
4.85485
4.81514
4.77663
4.73901
4.70204
4.6656
4.62965
4.59422
4.55938
4.5252
4.49176
4.45913
4.42736
4.39649
4.36658
4.33762
4.30965
4.28262
4.25654
4.23137
4.20709
4.18367
4.16109
4.13925
4.11882
4.59346
4.62521
4.65625
4.68643
4.7164
4.74701
4.77908
4.81345
4.8511
4.89309
4.93979
4.98975
5.0387
5.08072
5.11136
5.13054
5.14106
5.14548
5.14326
5.13041
5.10342
5.06827
5.02647
4.98164
4.93664
4.89287
4.85066
4.80981
4.76999
4.73093
4.69249
4.6546
4.61729
4.58062
4.54466
4.5095
4.47518
4.44178
4.40933
4.37787
4.34742
4.31797
4.28952
4.26205
4.23556
4.21
4.18537
4.16167
4.13877
4.11736
4.59224
4.6247
4.65662
4.68793
4.71929
4.75162
4.78578
4.82271
4.86351
4.90931
4.96052
5.01549
5.06961
5.11644
5.15121
5.17365
5.18677
5.1933
5.19288
5.18132
5.15454
5.11856
5.07497
5.02766
4.97982
4.93316
4.88816
4.84468
4.80241
4.76105
4.7204
4.68041
4.64107
4.60245
4.56462
4.52766
4.49161
4.45655
4.4225
4.3895
4.35754
4.32661
4.29671
4.26783
4.23995
4.21308
4.18718
4.1623
4.13832
4.11583
4.58993
4.62303
4.6558
4.68822
4.72101
4.75512
4.79148
4.83111
4.87524
4.92511
4.98114
5.04148
5.10109
5.15307
5.19233
5.21846
5.23465
5.24379
5.24553
5.23549
5.20903
5.17221
5.12673
5.07673
5.02578
4.97589
4.92776
4.88135
4.83633
4.7924
4.74932
4.70702
4.66549
4.62478
4.58496
4.54611
4.50827
4.4715
4.43584
4.40128
4.36782
4.33543
4.3041
4.27382
4.24458
4.21637
4.18921
4.16312
4.13799
4.11447
4.58639
4.62007
4.65366
4.68721
4.72145
4.75739
4.79601
4.83846
4.88608
4.94027
5.00143
5.06749
5.13297
5.19048
5.23463
5.26492
5.28471
5.29697
5.30129
5.29301
5.26699
5.22936
5.18191
5.12903
5.07466
5.02118
4.96956
4.91985
4.87176
4.82497
4.77922
4.73441
4.69052
4.64758
4.60566
4.56483
4.52514
4.48662
4.44929
4.41313
4.37814
4.34428
4.31151
4.27983
4.24922
4.2197
4.19127
4.16398
4.13768
4.11328
4.58151
4.61572
4.6501
4.68475
4.72045
4.75822
4.79915
4.84449
4.89577
4.95451
5.02113
5.0933
5.16506
5.22852
5.27805
5.31296
5.33693
5.35283
5.36013
5.35391
5.32848
5.29009
5.24063
5.18467
5.12656
5.06912
5.01357
4.96015
4.90863
4.85867
4.81001
4.7625
4.71609
4.6708
4.62668
4.5838
4.5422
4.50187
4.46281
4.425
4.3884
4.353
4.31875
4.28563
4.25365
4.22283
4.19319
4.16475
4.13731
4.11208
4.57518
4.60985
4.64497
4.68069
4.71779
4.75736
4.8006
4.84889
4.90396
4.9675
5.03992
5.11862
5.19712
5.26705
5.32255
5.36249
5.39126
5.41133
5.42203
5.41815
5.39349
5.35443
5.3029
5.24368
5.18151
5.11966
5.05971
5.00213
4.94676
4.89329
4.84144
4.79103
4.74196
4.69422
4.64784
4.60287
4.5593
4.51712
4.47628
4.43675
4.3985
4.3615
4.32572
4.29116
4.25784
4.22579
4.19499
4.16547
4.13695
4.11078
4.5673
4.60234
4.63812
4.6748
4.71321
4.75451
4.80001
4.85127
4.91027
4.97886
5.05746
5.14314
5.2289
5.30581
5.36766
5.41372
5.44767
5.47238
5.48688
5.48567
5.46198
5.42234
5.36874
5.30609
5.23952
5.17278
5.1079
5.04561
4.98591
4.92854
4.87319
4.81964
4.76775
4.71746
4.66876
4.62164
4.57608
4.53201
4.48938
4.44812
4.40821
4.36962
4.33236
4.29643
4.26186
4.22865
4.19677
4.1662
4.13663
4.1094
4.55779
4.59307
4.62937
4.66686
4.70643
4.74932
4.79699
4.85124
4.91428
4.98818
5.07332
5.16646
5.26002
5.34454
5.41348
5.46616
5.50597
5.53587
5.55461
5.55641
5.53392
5.49384
5.43817
5.37192
5.3006
5.22849
5.15808
5.09049
5.02591
4.96415
4.90492
4.84795
4.79304
4.74006
4.68894
4.6396
4.59199
4.54601
4.50159
4.45864
4.41715
4.37709
4.33848
4.30133
4.26565
4.23138
4.19847
4.16689
4.1363
4.108
4.54656
4.58189
4.6185
4.65659
4.6971
4.74139
4.79112
4.84834
4.91553
4.99497
5.08702
5.18808
5.29
5.38278
5.45958
5.51956
5.56596
5.60167
5.62515
5.63035
5.60933
5.56895
5.51124
5.44124
5.36482
5.28681
5.21026
5.13671
5.06663
4.99995
4.93639
4.87564
4.81744
4.76159
4.7079
4.65624
4.6065
4.55857
4.51236
4.4678
4.42484
4.38348
4.34373
4.30556
4.26893
4.23374
4.19989
4.16735
4.13578
4.10657
4.53352
4.56867
4.60531
4.6437
4.68488
4.73036
4.78199
4.84211
4.91352
4.99868
5.09793
5.20731
5.31812
5.41987
5.50535
5.57352
5.6274
5.66963
5.69845
5.70751
5.68824
5.64772
5.58797
5.51406
5.43218
5.34774
5.26439
5.18417
5.10791
5.0357
4.96729
4.90233
4.84052
4.78154
4.72511
4.67102
4.6191
4.56921
4.52125
4.47516
4.43089
4.38842
4.34772
4.30871
4.27129
4.23533
4.20068
4.16733
4.13494
4.10505
4.5186
4.55325
4.58959
4.62794
4.66947
4.71584
4.76916
4.83205
4.90763
4.9986
5.10523
5.22327
5.34348
5.45491
5.55004
5.62746
5.68986
5.73955