/*--------------------------------*- C++ -*----------------------------------*\
  =========                 |
  \\      /  F ield         | OpenFOAM: The Open Source CFD Toolbox
   \\    /   O peration     | Website:  https://openfoam.org
    \\  /    A nd           | Version:  9
     \\/     M anipulation  |
\*---------------------------------------------------------------------------*/
FoamFile
{
    format      ascii;
    class       volVectorField;
    location    "0.2";
    object      U;
}
// * * * * * * * * * * * * * * * * * * * * * * * * * * * * * * * * * * * * * //

dimensions      [0 1 -1 0 0 0 0];

internalField   nonuniform List<vector> 
5000
(
(-0.00843057 0 0.364443)
(-0.00402187 0 0.196726)
(-0.00145032 0 0.0571787)
(0.000386473 0 -0.0832335)
(0.00145238 0 -0.226889)
(0.000671612 0 -0.331889)
(-0.00129491 0 -0.326105)
(-0.00159471 0 -0.203386)
(0.00031335 0 -0.0298244)
(0.00312442 0 0.150187)
(0.00671043 0 0.335158)
(0.0122341 0 0.544187)
(0.0221272 0 0.803951)
(0.0442655 0 1.16438)
(0.0697012 0 1.57086)
(0.177125 0 -2.56217)
(-0.247682 0 -2.66716)
(-0.0618648 0 1.43779)
(-0.0388319 0 1.21129)
(-0.0218575 0 0.844537)
(-0.012836 0 0.620955)
(-0.00821671 0 0.465649)
(-0.00535557 0 0.341516)
(-0.00348417 0 0.239951)
(-0.00220737 0 0.156359)
(-0.00133766 0 0.0888337)
(-0.000772874 0 0.0366914)
(-0.000434689 0 -0.000878887)
(-0.000251181 0 -0.0255366)
(-0.000160427 0 -0.0397694)
(-0.000116039 0 -0.0463117)
(-9.08521e-05 0 -0.0476116)
(-7.23365e-05 0 -0.0455813)
(-5.55004e-05 0 -0.0415862)
(-3.89351e-05 0 -0.0365517)
(-2.26435e-05 0 -0.0310892)
(-7.09477e-06 0 -0.0255989)
(7.23302e-06 0 -0.0203417)
(2.00162e-05 0 -0.0154867)
(3.10731e-05 0 -0.0111422)
(4.03527e-05 0 -0.00737588)
(4.78907e-05 0 -0.0042257)
(5.37574e-05 0 -0.00170559)
(5.81341e-05 0 0.000193508)
(6.11116e-05 0 0.00150217)
(6.2776e-05 0 0.00227107)
(6.34115e-05 0 0.00255802)
(6.32643e-05 0 0.00240563)
(6.1975e-05 0 0.00183655)
(5.90917e-05 0 0.000852984)
(-0.026343 0 0.360202)
(-0.0131139 0 0.194032)
(-0.00548597 0 0.0554937)
(-0.000192912 0 -0.0843564)
(0.00281317 0 -0.227012)
(0.00160466 0 -0.330728)
(-0.00219291 0 -0.32568)
(-0.00236528 0 -0.20537)
(0.00270666 0 -0.0331187)
(0.0105605 0 0.146217)
(0.0211185 0 0.329825)
(0.0371972 0 0.535612)
(0.0635001 0 0.788771)
(0.121707 0 1.1325)
(0.166339 0 1.50119)
(0.355659 0 -2.31322)
(-0.410315 0 -2.52363)
(-0.147455 0 1.33798)
(-0.109796 0 1.19212)
(-0.0610637 0 0.834105)
(-0.0380696 0 0.614338)
(-0.0251961 0 0.461777)
(-0.016734 0 0.33914)
(-0.0111386 0 0.238405)
(-0.00729116 0 0.155334)
(-0.00464119 0 0.0881681)
(-0.00287149 0 0.0362769)
(-0.00174663 0 -0.00113142)
(-0.00106466 0 -0.0257059)
(-0.000660712 0 -0.0399116)
(-0.000417814 0 -0.0464574)
(-0.000260679 0 -0.0477723)
(-0.000148434 0 -0.0457571)
(-6.1186e-05 0 -0.0417722)
(1.17685e-05 0 -0.0367418)
(7.47035e-05 0 -0.0312777)
(0.000129423 0 -0.0257813)
(0.000176872 0 -0.0205143)
(0.000217613 0 -0.0156468)
(0.000252129 0 -0.011288)
(0.000280918 0 -0.00750581)
(0.00030456 0 -0.00433869)
(0.000323818 0 -0.00180092)
(0.000339546 0 0.000116046)
(0.000351538 0 0.00144229)
(0.000359938 0 0.00222817)
(0.000366068 0 0.00253057)
(0.000371051 0 0.00239259)
(0.000374485 0 0.00184046)
(0.000374886 0 0.000877612)
(-0.0403152 0 0.345839)
(-0.0209731 0 0.185129)
(-0.00936939 0 0.0496532)
(-0.00117052 0 -0.0882943)
(0.00358971 0 -0.228245)
(0.00272119 0 -0.328585)
(-0.00164125 0 -0.323703)
(-0.00130918 0 -0.2073)
(0.0062591 0 -0.0382057)
(0.0182032 0 0.138847)
(0.0346303 0 0.31912)
(0.059171 0 0.518184)
(0.0949203 0 0.759696)
(0.171091 0 1.0808)
(0.23316 0 1.38768)
(0.435355 0 -2.05791)
(-0.404535 0 -2.31271)
(-0.215685 0 1.2305)
(-0.158997 0 1.14468)
(-0.08966 0 0.807007)
(-0.0593939 0 0.596346)
(-0.040141 0 0.449884)
(-0.0270951 0 0.330872)
(-0.0183134 0 0.232403)
(-0.0121661 0 0.15092)
(-0.00787286 0 0.0849692)
(-0.00495221 0 0.0340447)
(-0.00304013 0 -0.0026147)
(-0.00183128 0 -0.02665)
(-0.00107777 0 -0.0405007)
(-0.000601271 0 -0.0468302)
(-0.000285054 0 -0.0480192)
(-6.12295e-05 0 -0.0459329)
(0.000107624 0 -0.0419066)
(0.000242694 0 -0.0368505)
(0.00035401 0 -0.0313688)
(0.000447307 0 -0.0258589)
(0.000525928 0 -0.0205805)
(0.000592002 0 -0.015703)
(0.000647216 0 -0.0113352)
(0.000693006 0 -0.00754516)
(0.000730635 0 -0.00437139)
(0.000761447 0 -0.0018282)
(0.000786168 0 9.27853e-05)
(0.000806091 0 0.00142203)
(0.000822542 0 0.00220957)
(0.000836261 0 0.00251091)
(0.000848962 0 0.00236966)
(0.000861263 0 0.00181846)
(0.000869212 0 0.000870509)
(-0.0477256 0 0.326904)
(-0.0263055 0 0.173105)
(-0.0121332 0 0.0418979)
(-0.00189883 0 -0.0932516)
(0.00412583 0 -0.229682)
(0.00371041 0 -0.32616)
(-0.000677691 0 -0.321765)
(0.000293621 0 -0.210147)
(0.00978749 0 -0.0456526)
(0.0247347 0 0.127879)
(0.0451608 0 0.303482)
(0.0752138 0 0.493861)
(0.113957 0 0.722172)
(0.191706 0 1.02458)
(0.268184 0 1.27258)
(0.442814 0 -1.84654)
(-0.363043 0 -2.08087)
(-0.261227 0 1.13853)
(-0.180654 0 1.09119)
(-0.107559 0 0.771911)
(-0.0748012 0 0.572575)
(-0.051327 0 0.433688)
(-0.0352971 0 0.319345)
(-0.0242132 0 0.223962)
(-0.0162813 0 0.144696)
(-0.0106607 0 0.0804456)
(-0.00677622 0 0.0308648)
(-0.00417758 0 -0.0047596)
(-0.00248694 0 -0.0280479)
(-0.0013971 0 -0.0413983)
(-0.000683468 0 -0.047414)
(-0.000197474 0 -0.0484147)
(0.000150373 0 -0.0462171)
(0.000412474 0 -0.042124)
(0.000618985 0 -0.0370256)
(0.000786091 0 -0.0315152)
(0.000923678 0 -0.0259836)
(0.00103777 0 -0.0206875)
(0.00113241 0 -0.0157948)
(0.00121072 0 -0.0114137)
(0.00127523 0 -0.00761212)
(0.00132805 0 -0.00442861)
(0.00137111 0 -0.00187744)
(0.00140604 0 4.98243e-05)
(0.00143452 0 0.00138437)
(0.00145789 0 0.00217522)
(0.00147715 0 0.00247659)
(0.00149415 0 0.00233351)
(0.0015103 0 0.00178602)
(0.00151963 0 0.000854832)
(-0.0493445 0 0.30729)
(-0.0288695 0 0.159947)
(-0.0134432 0 0.0331312)
(-0.00217665 0 -0.0989833)
(0.00449904 0 -0.231704)
(0.00441944 0 -0.324407)
(0.000337565 0 -0.320634)
(0.00188534 0 -0.213979)
(0.0125879 0 -0.0546112)
(0.0294296 0 0.114855)
(0.0518685 0 0.285524)
(0.0846345 0 0.467438)
(0.122605 0 0.683906)
(0.191982 0 0.974978)
(0.272446 0 1.17867)
(0.404181 0 -1.64464)
(-0.31918 0 -1.84398)
(-0.277667 0 1.06903)
(-0.180827 0 1.04246)
(-0.117298 0 0.735753)
(-0.0837482 0 0.547427)
(-0.0582712 0 0.415746)
(-0.0408377 0 0.30616)
(-0.0283729 0 0.214124)
(-0.019264 0 0.137337)
(-0.0127181 0 0.0750149)
(-0.0081256 0 0.0269616)
(-0.00499418 0 -0.0074848)
(-0.00290686 0 -0.0299171)
(-0.00152245 0 -0.042683)
(-0.000588773 0 -0.0483188)
(6.27959e-05 0 -0.0490793)
(0.000536676 0 -0.0467291)
(0.000896261 0 -0.0425363)
(0.00117892 0 -0.0373693)
(0.00140622 0 -0.0318083)
(0.00159188 0 -0.0262368)
(0.00174462 0 -0.0209074)
(0.00187049 0 -0.0159858)
(0.00197404 0 -0.0115791)
(0.00205898 0 -0.00775492)
(0.00212837 0 -0.00455145)
(0.00218475 0 -0.00198276)
(0.0022304 0 -4.00354e-05)
(0.00226721 0 0.00130809)
(0.00229661 0 0.00211017)
(0.00232004 0 0.00241965)
(0.00233915 0 0.00228356)
(0.00235607 0 0.00174851)
(0.00236495 0 0.000838644)
(-0.0471058 0 0.289079)
(-0.0289596 0 0.146999)
(-0.0133644 0 0.0240295)
(-0.00195342 0 -0.105161)
(0.00485201 0 -0.234149)
(0.00499089 0 -0.323175)
(0.00133307 0 -0.319986)
(0.003255 0 -0.218348)
(0.0144579 0 -0.0642063)
(0.0321746 0 0.101095)
(0.0550232 0 0.267212)
(0.0882632 0 0.442141)
(0.123952 0 0.649243)
(0.180773 0 0.935232)
(0.255906 0 1.1075)
(0.34859 0 -1.45291)
(-0.278849 0 -1.61667)
(-0.270041 0 1.01641)
(-0.168691 0 0.999846)
(-0.120499 0 0.702357)
(-0.0867539 0 0.52308)
(-0.0612704 0 0.397434)
(-0.0436153 0 0.292252)
(-0.030556 0 0.203492)
(-0.0208468 0 0.12923)
(-0.0137788 0 0.0689261)
(-0.00874939 0 0.022499)
(-0.00526256 0 -0.0106784)
(-0.00289112 0 -0.0321763)
(-0.00128134 0 -0.0442911)
(-0.000170296 0 -0.0494909)
(0.000620258 0 -0.0499647)
(0.00120345 0 -0.047424)
(0.00164922 0 -0.0431007)
(0.00200005 0 -0.0378402)
(0.00228176 0 -0.0322085)
(0.00251111 0 -0.0265806)
(0.00269911 0 -0.0212042)
(0.00285355 0 -0.0162422)
(0.00298026 0 -0.0118002)
(0.00308394 0 -0.00794477)
(0.00316849 0 -0.00471383)
(0.00323705 0 -0.00212093)
(0.00329233 0 -0.000156632)
(0.00333645 0 0.00121068)
(0.0033712 0 0.00202936)
(0.00339828 0 0.00235244)
(0.00341906 0 0.00222896)
(0.00343602 0 0.00171043)
(0.00344527 0 0.000822704)
(-0.042438 0 0.273303)
(-0.0270934 0 0.135154)
(-0.0121495 0 0.0152785)
(-0.00125717 0 -0.111239)
(0.00528441 0 -0.236581)
(0.00549019 0 -0.322103)
(0.00219952 0 -0.319531)
(0.00424071 0 -0.222852)
(0.015342 0 -0.0739508)
(0.0331099 0 0.0872496)
(0.0552788 0 0.2493)
(0.0873124 0 0.418846)
(0.120363 0 0.619021)
(0.163826 0 0.904182)
(0.229809 0 1.05223)
(0.294718 0 -1.28128)
(-0.243516 0 -1.41397)
(-0.247878 0 0.972812)
(-0.150591 0 0.963536)
(-0.117946 0 0.673326)
(-0.0848822 0 0.500366)
(-0.0608648 0 0.379613)
(-0.0437747 0 0.27836)
(-0.030748 0 0.192644)
(-0.0209274 0 0.120815)
(-0.0136951 0 0.0625144)
(-0.00848277 0 0.0177342)
(-0.00481951 0 -0.0141416)
(-0.00228877 0 -0.0346694)
(-0.000540107 0 -0.0460982)
(0.000687902 0 -0.05083)
(0.00157469 0 -0.0509888)
(0.00223623 0 -0.0482338)
(0.00274522 0 -0.0437605)
(0.00314688 0 -0.0383905)
(0.00346966 0 -0.0326749)
(0.00373224 0 -0.0269799)
(0.00394719 0 -0.0215476)
(0.00412351 0 -0.0165377)
(0.00426802 0 -0.0120539)
(0.00438611 0 -0.00816198)
(0.00448228 0 -0.00489887)
(0.00456018 0 -0.0022776)
(0.00462282 0 -0.000288038)
(0.00467257 0 0.00110187)
(0.00471155 0 0.00194039)
(0.00474157 0 0.00228053)
(0.00476374 0 0.00217306)
(0.00478025 0 0.00167298)
(0.00479037 0 0.000807285)
(-0.0361223 0 0.260142)
(-0.0237738 0 0.124724)
(-0.0100729 0 0.00723481)
(-0.000171597 0 -0.116911)
(0.00580995 0 -0.238796)
(0.00589417 0 -0.321071)
(0.00281935 0 -0.319141)
(0.0047295 0 -0.227215)
(0.0152522 0 -0.083446)
(0.0324319 0 0.0738095)
(0.0532536 0 0.232214)
(0.0828849 0 0.397669)
(0.113481 0 0.593124)
(0.144318 0 0.880298)
(0.202514 0 1.00722)
(0.249277 0 -1.13234)
(-0.212857 0 -1.23998)
(-0.219616 0 0.934315)
(-0.130256 0 0.933949)
(-0.110674 0 0.648894)
(-0.0792725 0 0.479567)
(-0.0575668 0 0.362792)
(-0.0415703 0 0.264968)
(-0.0290649 0 0.182)
(-0.0195287 0 0.112438)
(-0.0124322 0 0.0560554)
(-0.00726027 0 0.0128803)
(-0.00358723 0 -0.0177127)
(-0.00102006 0 -0.0372748)
(0.000776954 0 -0.0480123)
(0.00205485 0 -0.052266)
(0.00298792 0 -0.0520976)
(0.00369007 0 -0.0491164)
(0.00423348 0 -0.0444822)
(0.00466381 0 -0.0389933)
(0.00501031 0 -0.033186)
(0.00529236 0 -0.027417)
(0.00552327 0 -0.0219231)
(0.00571263 0 -0.0168605)
(0.00586778 0 -0.0123309)
(0.00599453 0 -0.00839887)
(0.0060977 0 -0.00510056)
(0.00618122 0 -0.00244822)
(0.00624829 0 -0.000430986)
(0.0063015 0 0.000983722)
(0.00634308 0 0.00184431)
(0.00637493 0 0.0022041)
(0.00639788 0 0.00211547)
(0.00641333 0 0.00163573)
(0.00642434 0 0.000792495)
(-0.028837 0 0.249575)
(-0.0194979 0 0.115872)
(-0.00741841 0 0.00011203)
(0.00117313 0 -0.121994)
(0.00638285 0 -0.240685)
(0.00615942 0 -0.320021)
(0.00312428 0 -0.318723)
(0.00469163 0 -0.231238)
(0.0142859 0 -0.0923576)
(0.0303909 0 0.0612021)
(0.049502 0 0.21637)
(0.0759791 0 0.378733)
(0.104491 0 0.571443)
(0.124145 0 0.862043)
(0.178266 0 0.96918)
(0.21238 0 -1.00262)
(-0.186132 0 -1.09163)
(-0.190646 0 0.899477)
(-0.10994 0 0.910699)
(-0.100036 0 0.62875)
(-0.0709775 0 0.460977)
(-0.0519073 0 0.347392)
(-0.03735 0 0.252472)
(-0.0257181 0 0.171918)
(-0.016771 0 0.104404)
(-0.010049 0 0.0497984)
(-0.00510339 0 0.00813528)
(-0.00156512 0 -0.0212393)
(0.000929088 0 -0.0398742)
(0.00269106 0 -0.0499429)
(0.00395463 0 -0.0537291)
(0.00488481 0 -0.0532372)
(0.00558955 0 -0.0500295)
(0.00613782 0 -0.0452324)
(0.00657362 0 -0.0396217)
(0.00692544 0 -0.0337195)
(0.00721228 0 -0.0278739)
(0.00744734 0 -0.0223158)
(0.00764023 0 -0.0171982)
(0.00779832 0 -0.0126208)
(0.0079275 0 -0.00864688)
(0.00803264 0 -0.00531179)
(0.00811773 0 -0.00262694)
(0.00818602 0 -0.000580701)
(0.00824012 0 0.000860047)
(0.00828228 0 0.00174407)
(0.00831438 0 0.00212532)
(0.00833707 0 0.00205759)
(0.0083506 0 0.0015996)
(0.00836212 0 0.000778917)
(-0.0213401 0 0.241478)
(-0.014791 0 0.108709)
(-0.00450139 0 -0.00595769)
(0.00261629 0 -0.126329)
(0.00693676 0 -0.242145)
(0.0062558 0 -0.318857)
(0.00309937 0 -0.318166)
(0.00416274 0 -0.234775)
(0.0126023 0 -0.100467)
(0.0272932 0 0.0497021)
(0.0445362 0 0.202056)
(0.0674828 0 0.362081)
(0.0942026 0 0.553612)
(0.104505 0 0.847738)
(0.157972 0 0.935807)
(0.182052 0 -0.888195)
(-0.162775 0 -0.96474)
(-0.163775 0 0.867317)
(-0.0906626 0 0.892417)
(-0.0872691 0 0.612241)
(-0.0608769 0 0.444779)
(-0.0444658 0 0.333683)
(-0.0315364 0 0.241163)
(-0.0209975 0 0.162673)
(-0.0128521 0 0.0969555)
(-0.00667636 0 0.0439497)
(-0.00210052 0 0.00366598)
(0.00119014 0 -0.0245821)
(0.00352376 0 -0.0423568)
(0.00517939 0 -0.0518016)
(0.00637397 0 -0.0551486)
(0.00725829 0 -0.0543504)
(0.0079317 0 -0.0509267)
(0.00845792 0 -0.0459729)
(0.00887776 0 -0.0402443)
(0.00921769 0 -0.0342496)
(0.00949547 0 -0.0283287)
(0.00972349 0 -0.0227073)
(0.00991082 0 -0.0175351)
(0.0100644 0 -0.0129102)
(0.01019 0 -0.00889452)
(0.0102922 0 -0.00552266)
(0.0103749 0 -0.00280521)
(0.010441 0 -0.000729825)
(0.0104933 0 0.000737213)
(0.0105338 0 0.00164516)
(0.0105643 0 0.00204875)
(0.0105853 0 0.0020029)
(0.0105959 0 0.00156699)
(0.0106072 0 0.000767666)
(-0.0142986 0 0.235496)
(-0.0101489 0 0.103177)
(-0.001603 0 -0.0109344)
(0.00402515 0 -0.129849)
(0.00740057 0 -0.2431)
(0.00617386 0 -0.317475)
(0.00276823 0 -0.31736)
(0.00321488 0 -0.237718)
(0.0103815 0 -0.107648)
(0.0234592 0 0.0394425)
(0.0388166 0 0.189385)
(0.058133 0 0.347635)
(0.0831707 0 0.539041)
(0.0860682 0 0.835589)
(0.14079 0 0.905602)
(0.156451 0 -0.78679)
(-0.142184 0 -0.85587)
(-0.140069 0 0.836874)
(-0.0724828 0 0.877408)
(-0.0733148 0 0.598601)
(-0.0496453 0 0.430931)
(-0.0358079 0 0.321727)
(-0.024561 0 0.231181)
(-0.015225 0 0.15442)
(-0.00800593 0 0.0902438)
(-0.00248427 0 0.0386454)
(0.00163004 0 -0.000406279)
(0.00459369 0 -0.0276409)
(0.00669751 0 -0.0446387)
(0.00819459 0 -0.053517)
(0.0092773 0 -0.0564644)
(0.0100811 0 -0.0553871)
(0.0106951 0 -0.0517659)
(0.0111767 0 -0.0466685)
(0.0115623 0 -0.0408312)
(0.0118755 0 -0.0347509)
(0.0121322 0 -0.0287598)
(0.0123433 0 -0.023079)
(0.012517 0 -0.0178553)
(0.0126595 0 -0.0131853)
(0.0127761 0 -0.00912992)
(0.0128708 0 -0.00572288)
(0.0129472 0 -0.00297409)
(0.0130082 0 -0.000870545)
(0.013056 0 0.000622066)
(0.0130926 0 0.00155356)
(0.0131196 0 0.00197947)
(0.0131375 0 0.00195547)
(0.0131443 0 0.00154073)
(0.0131545 0 0.000760064)
(-0.00813284 0 0.231131)
(-0.00591458 0 0.099075)
(0.00106425 0 -0.0148605)
(0.0052907 0 -0.132591)
(0.00773768 0 -0.243532)
(0.00592564 0 -0.315806)
(0.00217845 0 -0.316222)
(0.00193884 0 -0.24)
(0.00779811 0 -0.113841)
(0.0191789 0 0.0304672)
(0.0327328 0 0.178352)
(0.0485343 0 0.335254)
(0.0718769 0 0.527153)
(0.0691472 0 0.824464)
(0.125481 0 0.877534)
(0.134484 0 -0.696992)
(-0.12365 0 -0.762471)
(-0.119344 0 0.807455)
(-0.0550924 0 0.864237)
(-0.0588573 0 0.587241)
(-0.0377943 0 0.419276)
(-0.0264246 0 0.311465)
(-0.0168031 0 0.222548)
(-0.00870106 0 0.147217)
(-0.00245897 0 0.0843425)
(0.00236261 0 0.0339622)
(0.00595977 0 -0.00400933)
(0.00854512 0 -0.0303526)
(0.0103783 0 -0.0466613)
(0.0116799 0 -0.0550375)
(0.0126194 0 -0.0576316)
(0.0133165 0 -0.0563083)
(0.0138497 0 -0.0525137)
(0.0142689 0 -0.0472903)
(0.0146056 0 -0.0413577)
(0.0148801 0 -0.0352021)
(0.0151057 0 -0.0291488)
(0.0152918 0 -0.023415)
(0.0154451 0 -0.0181451)
(0.0155711 0 -0.0134344)
(0.0156739 0 -0.00934279)
(0.0157573 0 -0.00590351)
(0.0158243 0 -0.0031258)
(0.0158774 0 -0.00099606)
(0.0159186 0 0.000520563)
(0.0159494 0 0.0014745)
(0.0159714 0 0.00192194)
(0.0159848 0 0.00191886)
(0.0159869 0 0.00152337)
(0.0159954 0 0.000757323)
(-0.00298861 0 0.2279)
(-0.00225882 0 0.0961544)
(0.00337295 0 -0.0178661)
(0.00634804 0 -0.134614)
(0.00793395 0 -0.243452)
(0.00553032 0 -0.313817)
(0.00138692 0 -0.314706)
(0.000430011 0 -0.241599)
(0.00500673 0 -0.119038)
(0.014688 0 0.0227524)
(0.0265879 0 0.168875)
(0.0391601 0 0.324764)
(0.0607651 0 0.517554)
(0.0538794 0 0.813825)
(0.111156 0 0.85105)
(0.115716 0 -0.617877)
(-0.106621 0 -0.682539)
(-0.100599 0 0.778691)
(-0.0382605 0 0.851974)
(-0.0443751 0 0.577851)
(-0.0257054 0 0.409652)
(-0.0167028 0 0.302781)
(-0.00856144 0 0.215224)
(-0.0016716 0 0.14106)
(0.00359945 0 0.0792735)
(0.00771192 0 0.0299316)
(0.010769 0 -0.0071104)
(0.0129536 0 -0.0326779)
(0.0144928 0 -0.0483872)
(0.0155762 0 -0.0563286)
(0.0163522 0 -0.0586191)
(0.0169251 0 -0.0570864)
(0.0173624 0 -0.0531457)
(0.0177065 0 -0.0478171)
(0.0179837 0 -0.0418053)
(0.0182105 0 -0.035587)
(0.0183977 0 -0.0294817)
(0.0185526 0 -0.0237032)
(0.0186804 0 -0.018394)
(0.0187853 0 -0.0136481)
(0.0188709 0 -0.00952511)
(0.01894 0 -0.00605755)
(0.0189951 0 -0.00325423)
(0.0190382 0 -0.00110105)
(0.0190709 0 0.000437391)
(0.0190945 0 0.0014121)
(0.0191102 0 0.00187972)
(0.0191182 0 0.00189592)
(0.0191149 0 0.00151693)
(0.0191211 0 0.000760418)
(0.00118449 0 0.225442)
(0.000783012 0 0.094176)
(0.00527222 0 -0.0200855)
(0.00717147 0 -0.135981)
(0.00797696 0 -0.242891)
(0.00500425 0 -0.311503)
(0.000445793 0 -0.312801)
(-0.00122462 0 -0.242513)
(0.00213399 0 -0.123287)
(0.0101605 0 0.0162214)
(0.0205865 0 0.160813)
(0.030316 0 0.31596)
(0.0501953 0 0.509919)
(0.0402807 0 0.803575)
(0.0974034 0 0.825827)
(0.10009 0 -0.548831)
(-0.0908658 0 -0.614553)
(-0.0827012 0 0.750336)
(-0.0219037 0 0.840207)
(-0.0301511 0 0.570257)
(-0.0136625 0 0.401919)
(-0.00691172 0 0.295545)
(-3.33369e-05 0 0.209131)
(0.00567964 0 0.135906)
(0.0100191 0 0.0750205)
(0.0134375 0 0.0265519)
(0.0159559 0 -0.00969711)
(0.0177356 0 -0.0345998)
(0.0189717 0 -0.0497973)
(0.0198264 0 -0.0573709)
(0.0204284 0 -0.0594081)
(0.0208673 0 -0.057704)
(0.0211998 0 -0.0536462)
(0.0214611 0 -0.0482348)
(0.0216721 0 -0.0421615)
(0.0218456 0 -0.0358946)
(0.0219895 0 -0.0297489)
(0.022109 0 -0.0239351)
(0.0222079 0 -0.0185943)
(0.022289 0 -0.01382)
(0.0223548 0 -0.00967109)
(0.0224075 0 -0.00617989)
(0.0224489 0 -0.00335485)
(0.0224805 0 -0.00118146)
(0.0225034 0 0.000376173)
(0.0225186 0 0.00136959)
(0.022527 0 0.00185559)
(0.0225288 0 0.00188892)
(0.0225196 0 0.001523)
(0.022523 0 0.000770139)
(0.00450075 0 0.22354)
(0.00324648 0 0.0929269)
(0.00675534 0 -0.021635)
(0.00774572 0 -0.136765)
(0.00785563 0 -0.241891)
(0.0043597 0 -0.308879)
(-0.000594906 0 -0.310522)
(-0.00296609 0 -0.242782)
(-0.000734248 0 -0.126644)
(0.00572336 0 0.0107777)
(0.0148481 0 0.153995)
(0.022137 0 0.30862)
(0.040356 0 0.50393)
(0.0282801 0 0.793832)
(0.0842417 0 0.801358)
(0.0874992 0 -0.489214)
(-0.076471 0 -0.557316)
(-0.064913 0 0.722116)
(-0.00605459 0 0.82887)
(-0.0162829 0 0.564545)
(-0.00179603 0 0.395615)
(0.00276451 0 0.289781)
(0.00865204 0 0.204203)
(0.0132228 0 0.1317)
(0.0166852 0 0.071547)
(0.0194391 0 0.0238048)
(0.0214344 0 -0.0117762)
(0.0228171 0 -0.0361181)
(0.0237522 0 -0.0508872)
(0.0243773 0 -0.0581575)
(0.024803 0 -0.0599909)
(0.0251048 0 -0.0581531)
(0.0253295 0 -0.0540073)
(0.0255048 0 -0.0485359)
(0.0256467 0 -0.0424193)
(0.0257643 0 -0.0361186)
(0.0258626 0 -0.0299445)
(0.0259448 0 -0.0241055)
(0.0260129 0 -0.0187417)
(0.0260686 0 -0.0139459)
(0.0261134 0 -0.00977701)
(0.0261485 0 -0.00626714)
(0.0261751 0 -0.00342455)
(0.0261941 0 -0.00123442)
(0.0262063 0 0.000339612)
(0.0262123 0 0.00134946)
(0.0262126 0 0.00185174)
(0.0262076 0 0.00189959)
(0.0261922 0 0.00154286)
(0.0261924 0 0.000787146)
(0.00702996 0 0.222044)
(0.00516004 0 0.0922452)
(0.00783165 0 -0.0226212)
(0.00806034 0 -0.137043)
(0.0075607 0 -0.240503)
(0.00360278 0 -0.305964)
(-0.00171117 0 -0.307896)
(-0.00474066 0 -0.242466)
(-0.00352734 0 -0.129153)
(0.00144582 0 0.00632405)
(0.00943335 0 0.148256)
(0.0146371 0 0.302548)
(0.0312414 0 0.499329)
(0.0177608 0 0.784617)
(0.0718635 0 0.777198)
(0.0777312 0 -0.438407)
(-0.0635501 0 -0.509774)
(-0.0472519 0 0.693849)
(0.00932245 0 0.817558)
(-0.0029522 0 0.561148)
(0.00986027 0 0.390667)
(0.0124993 0 0.285262)
(0.0172816 0 0.200308)
(0.020831 0 0.128367)
(0.0235037 0 0.0688072)
(0.0256335 0 0.0216608)
(0.0271317 0 -0.0133666)
(0.0281348 0 -0.0372442)
(0.0287796 0 -0.051663)
(0.0291819 0 -0.0586913)
(0.0294356 0 -0.0603683)
(0.029603 0 -0.0584334)
(0.0297213 0 -0.0542279)
(0.0298115 0 -0.0487189)
(0.0298848 0 -0.0425769)
(0.0299465 0 -0.036257)
(0.0299991 0 -0.0300666)
(0.0300437 0 -0.0242125)
(0.0300809 0 -0.0188341)
(0.0301109 0 -0.014024)
(0.0301342 0 -0.0098411)
(0.0301513 0 -0.00631754)
(0.0301626 0 -0.00346156)
(0.0301686 0 -0.00125812)
(0.0301696 0 0.000329497)
(0.0301658 0 0.00135339)
(0.0301577 0 0.00186962)
(0.0301457 0 0.00192915)
(0.0301237 0 0.00157742)
(0.0301205 0 0.000811973)
(0.00878565 0 0.220792)
(0.00653385 0 0.0920062)
(0.00850644 0 -0.0231394)
(0.00810834 0 -0.136891)
(0.00708855 0 -0.238778)
(0.00273379 0 -0.30279)
(-0.00289325 0 -0.304951)
(-0.0065132 0 -0.24161)
(-0.00620331 0 -0.1309)
(-0.00263928 0 0.0027126)
(0.00437089 0 0.143524)
(0.00778011 0 0.297598)
(0.0227581 0 0.495908)
(0.00858879 0 0.775838)
(0.0605504 0 0.752945)
(0.0704678 0 -0.395445)
(-0.0519806 0 -0.471102)
(-0.0305158 0 0.665831)
(0.024374 0 0.806213)
(0.0102241 0 0.559337)
(0.0208402 0 0.387236)
(0.0221238 0 0.281757)
(0.0258757 0 0.197311)
(0.0284596 0 0.125833)
(0.030409 0 0.0667491)
(0.0319551 0 0.0200817)
(0.0329892 0 -0.0144962)
(0.0336375 0 -0.0379985)
(0.0340098 0 -0.0521397)
(0.0342022 0 -0.0589833)
(0.0342933 0 -0.0605482)
(0.0343331 0 -0.0585506)
(0.0343502 0 -0.0543123)
(0.0343593 0 -0.048787)
(0.0343668 0 -0.0426367)
(0.034375 0 -0.0363117)
(0.0343836 0 -0.0301166)
(0.034392 0 -0.0242571)
(0.0343991 0 -0.0188722)
(0.0344041 0 -0.0140547)
(0.0344065 0 -0.00986342)
(0.0344058 0 -0.0063309)
(0.0344021 0 -0.00346544)
(0.0343951 0 -0.00125191)
(0.0343849 0 0.000346584)
(0.0343712 0 0.00138212)
(0.0343546 0 0.00190982)
(0.0343354 0 0.00197801)
(0.0343069 0 0.00162704)
(0.0343002 0 0.000844925)
(0.00979157 0 0.219587)
(0.00737922 0 0.0920895)
(0.00878719 0 -0.0232783)
(0.00788983 0 -0.136383)
(0.00643731 0 -0.236773)
(0.00175287 0 -0.299401)
(-0.0041375 0 -0.301719)
(-0.00828251 0 -0.240266)
(-0.00878691 0 -0.131959)
(-0.00647734 0 -0.000111861)
(-0.000289437 0 0.139813)
(0.00147513 0 0.29351)
(0.0148188 0 0.493486)
(0.000636622 0 0.767329)
(0.050552 0 0.728141)
(0.0653788 0 -0.359433)
(-0.0411044 0 -0.440333)
(-0.0153647 0 0.63731)
(0.0382601 0 0.795862)
(0.0233699 0 0.558474)
(0.0314704 0 0.385108)
(0.0315541 0 0.279288)
(0.0343541 0 0.195162)
(0.0360586 0 0.12404)
(0.0373491 0 0.0653195)
(0.0383562 0 0.0190236)
(0.0389657 0 -0.0152)
(0.0392895 0 -0.0384087)
(0.0394117 0 -0.0523389)
(0.0394115 0 -0.0590504)
(0.039353 0 -0.0605441)
(0.0392753 0 -0.0585154)
(0.0391989 0 -0.0542691)
(0.0391328 0 -0.0487472)
(0.0390794 0 -0.0426044)
(0.0390376 0 -0.0362873)
(0.0390053 0 -0.0300983)
(0.0389798 0 -0.0242425)
(0.0389589 0 -0.0188588)
(0.0389405 0 -0.01404)
(0.0389231 0 -0.00984561)
(0.0389057 0 -0.00630844)
(0.0388876 0 -0.00343702)
(0.0388682 0 -0.00121634)
(0.0388471 0 0.00039053)
(0.038824 0 0.00143538)
(0.0387992 0 0.00197211)
(0.0387731 0 0.00204603)
(0.0387381 0 0.00169181)
(0.0387279 0 0.00088628)
(0.0101501 0 0.218238)
(0.00774827 0 0.0923783)
(0.00870101 0 -0.0231203)
(0.00741661 0 -0.135588)
(0.00560782 0 -0.23454)
(0.000659932 0 -0.295835)
(-0.00544573 0 -0.298239)
(-0.0100545 0 -0.238486)
(-0.0112712 0 -0.132389)
(-0.0100205 0 -0.00218728)
(-0.00469127 0 0.136912)
(-0.00440357 0 0.289996)
(0.00744436 0 0.492382)
(-0.00622721 0 0.758579)
(0.0419162 0 0.702511)
(0.0621358 0 -0.329849)
(-0.0309231 0 -0.416218)
(-0.00164788 0 0.607405)
(0.0511132 0 0.786627)
(0.0359857 0 0.558896)
(0.0417423 0 0.384181)
(0.040744 0 0.277752)
(0.0426677 0 0.193794)
(0.0435896 0 0.122925)
(0.044289 0 0.0644605)
(0.0448092 0 0.0184378)
(0.0450386 0 -0.0155183)
(0.0450716 0 -0.0385074)
(0.0449694 0 -0.052287)
(0.0447963 0 -0.0589137)
(0.0446034 0 -0.060373)
(0.0444198 0 -0.0583416)
(0.0442589 0 -0.0541095)
(0.0441248 0 -0.0486087)
(0.044016 0 -0.0424878)
(0.043929 0 -0.0361903)
(0.0438595 0 -0.0300173)
(0.0438033 0 -0.0241734)
(0.0437568 0 -0.0187977)
(0.0437171 0 -0.0139834)
(0.0436819 0 -0.00979066)
(0.0436493 0 -0.00625269)
(0.0436181 0 -0.00337848)
(0.0435874 0 -0.00115324)
(0.0435565 0 0.000459725)
(0.0435247 0 0.0015117)
(0.0434924 0 0.00205516)
(0.04346 0 0.00213207)
(0.0434187 0 0.00177091)
(0.0434054 0 0.000935719)
(0.01006 0 0.21663)
(0.0077449 0 0.0927896)
(0.00830295 0 -0.0227305)
(0.00671515 0 -0.134564)
(0.00460817 0 -0.232126)
(-0.000548783 0 -0.292124)
(-0.0068286 0 -0.294551)
(-0.0118459 0 -0.236327)
(-0.0136941 0 -0.132266)
(-0.0133667 0 -0.00364419)
(-0.00900911 0 0.134609)
(-0.00957253 0 0.287329)
(0.000473371 0 0.492141)
(-0.0125496 0 0.749397)
(0.034658 0 0.675906)
(0.0605515 0 -0.306227)
(-0.0212114 0 -0.397533)
(0.0107024 0 0.576659)
(0.0630721 0 0.777598)
(0.0479144 0 0.56045)
(0.0515822 0 0.384367)
(0.0496551 0 0.277046)
(0.0508015 0 0.193117)
(0.0510424 0 0.12241)
(0.0512208 0 0.0641084)
(0.0513098 0 0.0182719)
(0.0512045 0 -0.0154943)
(0.0509809 0 -0.03833)
(0.0506808 0 -0.0520123)
(0.0503552 0 -0.058596)
(0.0500435 0 -0.060053)
(0.0497659 0 -0.058044)
(0.04953 0 -0.0538457)
(0.0493352 0 -0.0483816)
(0.0491771 0 -0.0422954)
(0.0490497 0 -0.0360281)
(0.0489469 0 -0.0298799)
(0.0488634 0 -0.0240554)
(0.0487943 0 -0.0186939)
(0.0487358 0 -0.0138894)
(0.0486848 0 -0.0097026)
(0.048639 0 -0.00616736)
(0.0485966 0 -0.00329321)
(0.0485563 0 -0.00106574)
(0.0485169 0 0.000551347)
(0.0484777 0 0.00160864)
(0.048439 0 0.002157)
(0.048401 0 0.00223493)
(0.0483538 0 0.00186415)
(0.0483377 0 0.000993905)
(0.00977205 0 0.214768)
(0.00750342 0 0.0933038)
(0.00766479 0 -0.0221414)
(0.0058193 0 -0.133348)
(0.00345054 0 -0.229565)
(-0.00187799 0 -0.288293)
(-0.00830442 0 -0.290687)
(-0.0136873 0 -0.233835)
(-0.0161168 0 -0.131655)
(-0.0166124 0 -0.0045448)
(-0.0131968 0 0.132901)
(-0.0143568 0 0.28568)
(-0.00632195 0 0.491929)
(-0.0185452 0 0.739899)
(0.0284016 0 0.648149)
(0.0602935 0 -0.288165)
(-0.0116294 0 -0.383106)
(0.0218215 0 0.545627)
(0.0741582 0 0.7683)
(0.059248 0 0.562871)
(0.061025 0 0.385532)
(0.0583009 0 0.277064)
(0.0587774 0 0.193035)
(0.0584385 0 0.122416)
(0.0581629 0 0.0641991)
(0.0578735 0 0.0184738)
(0.0574758 0 -0.0151705)
(0.0570273 0 -0.0379107)
(0.0565539 0 -0.0515423)
(0.056095 0 -0.0581194)
(0.0556791 0 -0.0596021)
(0.055319 0 -0.0576371)
(0.0550168 0 -0.0534897)
(0.0547684 0 -0.048076)
(0.0545666 0 -0.0420357)
(0.0544034 0 -0.0358081)
(0.0542713 0 -0.0296927)
(0.0541637 0 -0.0238943)
(0.0540748 0 -0.0185529)
(0.0540001 0 -0.013763)
(0.0539359 0 -0.00958626)
(0.0538793 0 -0.00605719)
(0.0538279 0 -0.00318595)
(0.0537802 0 -0.000958632)
(0.0537347 0 0.000660523)
(0.0536904 0 0.00172124)
(0.0536472 0 0.00227268)
(0.0536053 0 0.00234969)
(0.0535525 0 0.00196675)
(0.0535323 0 0.00105709)
(0.00950336 0 0.21277)
(0.00714621 0 0.0939674)
(0.00685229 0 -0.0213492)
(0.00475841 0 -0.131958)
(0.00214479 0 -0.226874)
(-0.0033339 0 -0.284362)
(-0.00989428 0 -0.286664)
(-0.0156117 0 -0.231039)
(-0.0185909 0 -0.130592)
(-0.0198405 0 -0.00490761)
(-0.017344 0 0.13178)
(-0.0191449 0 0.284841)
(-0.0132052 0 0.491986)
(-0.0245086 0 0.72973)
(0.0227356 0 0.618917)
(0.0608193 0 -0.275422)
(-0.00220514 0 -0.371917)
(0.0318585 0 0.514337)
(0.0844654 0 0.758445)
(0.0702105 0 0.566022)
(0.0701982 0 0.387565)
(0.0667627 0 0.2777)
(0.066659 0 0.193459)
(0.0658256 0 0.122869)
(0.0651519 0 0.0646757)
(0.0645288 0 0.0189975)
(0.0638737 0 -0.0145844)
(0.0632273 0 -0.0372798)
(0.0626017 0 -0.0509017)
(0.0620258 0 -0.0575038)
(0.0615185 0 -0.0590365)
(0.0610857 0 -0.0571342)
(0.0607252 0 -0.0530524)
(0.0604294 0 -0.047701)
(0.0601888 0 -0.0417166)
(0.0599939 0 -0.0355369)
(0.059836 0 -0.0294616)
(0.0597072 0 -0.0236957)
(0.0596013 0 -0.0183797)
(0.0595129 0 -0.0136093)
(0.0594377 0 -0.00944666)
(0.0593725 0 -0.00592727)
(0.0593146 0 -0.00306178)
(0.0592618 0 -0.000836745)
(0.0592125 0 0.00078319)
(0.0591654 0 0.00184723)
(0.05912 0 0.00240337)
(0.0590764 0 0.0024833)
(0.0590207 0 0.00209376)
(0.0590044 0 0.00114539)
(0.0093529 0 0.210819)
(0.0067376 0 0.094869)
(0.00590146 0 -0.0203238)
(0.00354766 0 -0.130393)
(0.000691513 0 -0.224059)
(-0.00492737 0 -0.28034)
(-0.0116168 0 -0.282493)
(-0.0176486 0 -0.227956)
(-0.0211594 0 -0.129096)
(-0.0231356 0 -0.00474486)
(-0.0215894 0 0.13125)
(-0.0241763 0 0.284822)
(-0.0205737 0 0.492689)
(-0.0308413 0 0.718917)
(0.0173827 0 0.587501)
(0.0615032 0 -0.267872)
(0.00659558 0 -0.363308)
(0.0408413 0 0.482773)
(0.0941755 0 0.747812)
(0.0810578 0 0.569759)
(0.0792935 0 0.390419)
(0.0751713 0 0.278896)
(0.074533 0 0.194319)
(0.0732642 0 0.123713)
(0.0722311 0 0.0654938)
(0.0713067 0 0.0198072)
(0.0704204 0 -0.0137657)
(0.0695964 0 -0.0364621)
(0.0688352 0 -0.0501107)
(0.0681555 0 -0.056766)
(0.0675673 0 -0.0583699)
(0.0670703 0 -0.0565465)
(0.066658 0 -0.0525431)
(0.0663201 0 -0.0472645)
(0.0660451 0 -0.0413447)
(0.0658221 0 -0.0352207)
(0.0656413 0 -0.0291919)
(0.0654939 0 -0.0234643)
(0.0653731 0 -0.0181791)
(0.065273 0 -0.0134329)
(0.065189 0 -0.009289)
(0.0651177 0 -0.00578371)
(0.0650563 0 -0.00292852)
(0.0650031 0 -0.000710713)
(0.0649569 0 0.00090422)
(0.0649175 0 0.00196429)
(0.0648859 0 0.00251532)
(0.0648639 0 0.00258394)
(0.0648384 0 0.0021644)
(0.0648724 0 0.00114982)
(0.0092583 0 0.209083)
(0.00625491 0 0.0960992)
(0.00480358 0 -0.0190282)
(0.00217809 0 -0.128639)
(-0.000919152 0 -0.22113)
(-0.00667097 0 -0.276228)
(-0.013488 0 -0.278179)
(-0.01982 0 -0.224595)
(-0.023852 0 -0.127178)
(-0.026555 0 -0.00404504)
(-0.0260338 0 0.13139)
(-0.0296149 0 0.285778)
(-0.0285839 0 0.49417)
(-0.0380826 0 0.707557)
(0.011894 0 0.553374)
(0.0617898 0 -0.265255)
(0.0141586 0 -0.35702)
(0.048716 0 0.450948)
(0.103376 0 0.736086)
(0.0920029 0 0.573869)
(0.0885288 0 0.394099)
(0.0836685 0 0.28065)
(0.0824866 0 0.195587)
(0.080811 0 0.124915)
(0.0794384 0 0.0666254)
(0.0782324 0 0.0208787)
(0.0771315 0 -0.0127352)
(0.0761441 0 -0.0354752)
(0.0752595 0 -0.0491846)
(0.074486 0 -0.0559191)
(0.073825 0 -0.0576135)
(0.0732704 0 -0.0558836)
(0.072812 0 -0.05197)
(0.0724365 0 -0.0467734)
(0.0721309 0 -0.040926)