/*--------------------------------*- C++ -*----------------------------------*\
  =========                 |
  \\      /  F ield         | OpenFOAM: The Open Source CFD Toolbox
   \\    /   O peration     | Website:  https://openfoam.org
    \\  /    A nd           | Version:  9
     \\/     M anipulation  |
\*---------------------------------------------------------------------------*/
FoamFile
{
    format      ascii;
    class       surfaceVectorField;
    location    "0.2";
    object      Uf;
}
// * * * * * * * * * * * * * * * * * * * * * * * * * * * * * * * * * * * * * //

dimensions      [0 1 -1 0 0 0 0];

internalField   nonuniform List<vector> 
9850
(
(-0.00573731 0 0.280584)
(-0.0173868 0 0.362277)
(-0.00254278 0 0.126952)
(-0.00856789 0 0.195457)
(-0.000451447 0 -0.0130274)
(-0.00346815 0 0.0563844)
(0.00108895 0 -0.155061)
(9.67805e-05 0 -0.0838051)
(0.00134886 0 -0.279389)
(0.00213277 0 -0.226873)
(-0.000360791 0 -0.328997)
(0.00113814 0 -0.33098)
(-0.00179439 0 -0.264746)
(-0.00174391 0 -0.325552)
(-0.000810373 0 -0.116605)
(-0.00197999 0 -0.204253)
(0.00161852 0 0.0601813)
(0.00151001 0 -0.0314577)
(0.00467567 0 0.242673)
(0.00684246 0 0.148267)
(0.00894324 0 0.439673)
(0.0139145 0 0.332614)
(0.0160947 0 0.674069)
(0.0247156 0 0.540092)
(0.0295517 0 0.984167)
(0.0428137 0 0.796458)
(0.0586681 0 1.36762)
(0.0829865 0 1.14827)
(0.156387 0 -0.495657)
(0.11802 0 1.52248)
(-0.048287 0 -2.61466)
(0.266392 0 -2.42459)
(-0.175685 0 -0.614683)
(-0.328998 0 -2.5959)
(-0.0495404 0 1.32454)
(-0.10466 0 1.37186)
(-0.0281828 0 1.02791)
(-0.0743138 0 1.20104)
(-0.0160994 0 0.721495)
(-0.0414606 0 0.839026)
(-0.0100956 0 0.541446)
(-0.0254528 0 0.617661)
(-0.00653902 0 0.4021)
(-0.0167064 0 0.463729)
(-0.004279 0 0.28952)
(-0.0110448 0 0.340328)
(-0.00275508 0 0.197156)
(-0.00731141 0 0.239168)
(-0.00170888 0 0.121789)
(-0.00474926 0 0.155834)
(-0.00101001 0 0.0621395)
(-0.00298943 0 0.0884959)
(-0.000573925 0 0.0174573)
(-0.00182218 0 0.0364944)
(-0.000325233 0 -0.0135024)
(-0.00109066 0 -0.0009799)
(-0.000196904 0 -0.0328231)
(-0.000657923 0 -0.0255826)
(-0.000133647 0 -0.0431187)
(-0.000410569 0 -0.0397964)
(-0.000101181 0 -0.0469772)
(-0.000266927 0 -0.0463393)
(-8.05019e-05 0 -0.0465722)
(-0.000175766 0 -0.0476491)
(-6.33329e-05 0 -0.043536)
(-0.000110385 0 -0.0456299)
(-4.67957e-05 0 -0.0390088)
(-5.83432e-05 0 -0.0416436)
(-3.04026e-05 0 -0.0337552)
(-1.35833e-05 0 -0.0366148)
(-1.44849e-05 0 -0.0282785)
(2.603e-05 0 -0.0311547)
(4.60637e-07 0 -0.0229075)
(6.1164e-05 0 -0.0256643)
(1.40155e-05 0 -0.0178562)
(9.20524e-05 0 -0.0204047)
(2.59245e-05 0 -0.0132626)
(0.000118814 0 -0.0155458)
(3.60763e-05 0 -0.00921406)
(0.000141601 0 -0.0111964)
(4.4461e-05 0 -0.00576315)
(0.000160636 0 -0.00742418)
(5.11332e-05 0 -0.00293553)
(0.000176225 0 -0.00426759)
(5.62274e-05 0 -0.000733347)
(0.000188788 0 -0.00174078)
(5.99289e-05 0 0.000863477)
(0.00019884 0 0.000165046)
(6.21919e-05 0 0.00189581)
(0.000206325 0 0.00148089)
(6.3307e-05 0 0.00241797)
(0.000211357 0 0.00225644)
(6.35541e-05 0 0.00248)
(0.00021474 0 0.00254928)
(6.3032e-05 0 0.00211429)
(0.000217158 0 0.00240237)
(6.11733e-05 0 0.00133302)
(0.00021823 0 0.00184019)
(0.000216989 0 0.000865659)
(-0.0187371 0 0.277117)
(-0.0333291 0 0.35162)
(-0.00890823 0 0.124763)
(-0.0170435 0 0.188905)
(-0.00257122 0 -0.0144313)
(-0.00742768 0 0.0521598)
(0.00156234 0 -0.155684)
(-0.000681717 0 -0.0865608)
(0.00252615 0 -0.27887)
(0.00320144 0 -0.227515)
(-0.000341932 0 -0.328204)
(0.00216293 0 -0.329068)
(-0.00265645 0 -0.265525)
(-0.00191708 0 -0.324009)
(4.004e-05 0 -0.119244)
(-0.00183723 0 -0.206051)
(0.00632736 0 0.0565489)
(0.00448288 0 -0.0356493)
(0.0152296 0 0.238021)
(0.0143819 0 0.142333)
(0.0280866 0 0.432719)
(0.0278744 0 0.324043)
(0.0491475 0 0.662192)
(0.0481841 0 0.526052)
(0.0851328 0 0.960635)
(0.0792102 0 0.772468)
(0.155502 0 1.31685)
(0.146399 0 1.10135)
(0.295523 0 -0.406016)
(0.19975 0 1.42913)
(-0.0413479 0 -2.41843)
(0.395507 0 -2.20001)
(-0.28822 0 -0.592825)
(-0.407425 0 -2.43132)
(-0.137485 0 1.26505)
(-0.18157 0 1.27137)
(-0.0795038 0 1.01311)
(-0.134396 0 1.16238)
(-0.0479906 0 0.713163)
(-0.0753619 0 0.818018)
(-0.0309067 0 0.536235)
(-0.0487318 0 0.603723)
(-0.0204008 0 0.398993)
(-0.0326686 0 0.454737)
(-0.0136134 0 0.287569)
(-0.0219146 0 0.334235)
(-0.00900117 0 0.195877)
(-0.014726 0 0.234825)
(-0.00581915 0 0.120949)
(-0.00972861 0 0.152691)
(-0.00365672 0 0.0616025)
(-0.00625703 0 0.0862553)
(-0.00224324 0 0.0171258)
(-0.00391185 0 0.0349581)
(-0.00136509 0 -0.0137123)
(-0.00239338 0 -0.0019811)
(-0.000838036 0 -0.0329785)
(-0.00144797 0 -0.026213)
(-0.000524565 0 -0.0432627)
(-0.000869239 0 -0.0401896)
(-0.00032962 0 -0.0471306)
(-0.000509543 0 -0.0465959)
(-0.000198392 0 -0.0467406)
(-0.000272867 0 -0.0478303)
(-0.000100503 0 -0.043717)
(-0.000104832 0 -0.0457717)
(-2.1285e-05 0 -0.0391969)
(2.32191e-05 0 -0.0417641)
(4.58825e-05 0 -0.0339444)
(0.000127231 0 -0.0367219)
(0.000104144 0 -0.0284638)
(0.000214357 0 -0.0312522)
(0.000154827 0 -0.0230849)
(0.000288365 0 -0.0257532)
(0.00019862 0 -0.0180224)
(0.0003514 0 -0.0204854)
(0.00023602 0 -0.0134154)
(0.000404807 0 -0.015618)
(0.000267515 0 -0.00935172)
(0.000449672 0 -0.0112601)
(0.000293621 0 -0.00588441)
(0.000486962 0 -0.00747961)
(0.000314874 0 -0.00303948)
(0.000517598 0 -0.00431492)
(0.000332209 0 -0.00081953)
(0.000542633 0 -0.00178127)
(0.000346361 0 0.000795015)
(0.000562857 0 0.000130375)
(0.000356264 0 0.00184462)
(0.000578814 0 0.00145545)
(0.000363491 0 0.00238298)
(0.00059124 0 0.00223697)
(0.000368962 0 0.00245993)
(0.000601165 0 0.00253383)
(0.00037327 0 0.00210993)
(0.000610006 0 0.00238961)
(0.000375307 0 0.00134753)
(0.000617874 0 0.00183387)
(0.000622049 0 0.000875015)
(-0.0304136 0 0.265484)
(-0.0440204 0 0.335456)
(-0.0149642 0 0.117391)
(-0.0236393 0 0.178605)
(-0.00501784 0 -0.0193206)
(-0.0107513 0 0.0455288)
(0.00139136 0 -0.15827)
(-0.00153468 0 -0.0908337)
(0.00340005 0 -0.278415)
(0.00385777 0 -0.228854)
(0.000495934 0 -0.326144)
(0.0032158 0 -0.327132)
(-0.00173784 0 -0.265502)
(-0.00115947 0 -0.32252)
(0.00225132 0 -0.122753)
(-0.000507778 0 -0.208711)
(0.0119564 0 0.0503206)
(0.00802329 0 -0.0421193)
(0.025981 0 0.228983)
(0.021469 0 0.132983)
(0.0461003 0 0.418652)
(0.0398955 0 0.31063)
(0.0780198 0 0.63894)
(0.0671924 0 0.504772)
(0.128284 0 0.92025)
(0.104439 0 0.738958)
(0.205681 0 1.23424)
(0.181398 0 1.04975)
(0.361773 0 -0.335116)
(0.250672 0 1.32507)
(0.0122061 0 -2.18531)
(0.439085 0 -1.96696)
(-0.324447 0 -0.541105)
(-0.383789 0 -2.20688)
(-0.189208 0 1.18759)
(-0.238456 0 1.18121)
(-0.11978 0 0.975846)
(-0.169825 0 1.1161)
(-0.0743296 0 0.691076)
(-0.0986096 0 0.787718)
(-0.0491706 0 0.521365)
(-0.0670976 0 0.583197)
(-0.0331491 0 0.388956)
(-0.045734 0 0.441026)
(-0.022444 0 0.280461)
(-0.0311961 0 0.324624)
(-0.0150439 0 0.190688)
(-0.0212633 0 0.227857)
(-0.00987752 0 0.117157)
(-0.0142237 0 0.147588)
(-0.00631347 0 0.0588984)
(-0.00926679 0 0.0825625)
(-0.00392862 0 0.015277)
(-0.00586422 0 0.0323661)
(-0.00239124 0 -0.0149195)
(-0.00360885 0 -0.0037339)
(-0.00142608 0 -0.0337408)
(-0.00215911 0 -0.0273673)
(-0.000821365 0 -0.0437411)
(-0.00123743 0 -0.0409483)
(-0.000431475 0 -0.0474389)
(-0.00064237 0 -0.0471091)
(-0.000165296 0 -0.0469511)
(-0.000241264 0 -0.0481979)
(2.902e-05 0 -0.0438716)
(4.45716e-05 0 -0.0460532)
(0.000179725 0 -0.0393181)
(0.000260049 0 -0.0419931)
(0.000301909 0 -0.0340441)
(0.00043084 0 -0.0369167)
(0.000403491 0 -0.028548)
(0.00057005 0 -0.0314221)
(0.000488892 0 -0.0231566)
(0.000685492 0 -0.025903)
(0.000560805 0 -0.0180834)
(0.000781848 0 -0.0206177)
(0.000621111 0 -0.0134669)
(0.000862207 0 -0.0157344)
(0.000671346 0 -0.00939488)
(0.000928967 0 -0.0113618)
(0.000712918 0 -0.00592036)
(0.00098412 0 -0.00756787)
(0.000747106 0 -0.00306941)
(0.00102934 0 -0.00439105)
(0.000774673 0 -0.000844752)
(0.00106628 0 -0.00184567)
(0.000796465 0 0.000773292)
(0.0010961 0 7.69806e-05)
(0.00081489 0 0.00182521)
(0.00112031 0 0.00140811)
(0.000829954 0 0.00236384)
(0.00114021 0 0.00219637)
(0.000843052 0 0.00243859)
(0.00115671 0 0.00249681)
(0.000855136 0 0.00208747)
(0.00117155 0 0.00235379)
(0.000864869 0 0.00133316)
(0.00118578 0 0.0018036)
(0.00119442 0 0.000863162)
(-0.0377317 0 0.250004)
(-0.0485351 0 0.316735)
(-0.0191303 0 0.107501)
(-0.0275875 0 0.166204)
(-0.00684512 0 -0.0256768)
(-0.0127882 0 0.0373387)
(0.00122696 0 -0.161467)
(-0.00203774 0 -0.0962151)
(0.0041099 0 -0.277921)
(0.00431243 0 -0.230776)
(0.0015001 0 -0.323962)
(0.00406493 0 -0.325392)
(-0.000271873 0 -0.265956)
(-0.000170063 0 -0.321339)
(0.0048751 0 -0.1279)
(0.00108948 0 -0.212142)
(0.0170945 0 0.041113)
(0.0111877 0 -0.0502657)
(0.0348291 0 0.21568)
(0.0270821 0 0.12116)
(0.0595251 0 0.398671)
(0.0485146 0 0.294166)
(0.0966093 0 0.608017)
(0.0799241 0 0.480049)
(0.15155 0 0.873374)
(0.118281 0 0.702331)
(0.226126 0 1.14858)
(0.191844 0 1.00004)
(0.372969 0 -0.286977)
(0.270315 0 1.22718)
(0.0373535 0 -1.9637)
(0.423498 0 -1.74322)
(-0.328926 0 -0.47117)
(-0.341111 0 -1.9627)
(-0.215378 0 1.11486)
(-0.269447 0 1.10551)
(-0.142928 0 0.931553)
(-0.180741 0 1.0678)
(-0.0913694 0 0.662213)
(-0.112429 0 0.753345)
(-0.062409 0 0.501472)
(-0.0792747 0 0.559569)
(-0.0430242 0 0.37515)
(-0.0547991 0 0.424436)
(-0.0295819 0 0.270514)
(-0.0380674 0 0.312557)
(-0.0200846 0 0.183382)
(-0.0262931 0 0.218913)
(-0.0133469 0 0.111803)
(-0.0177726 0 0.140932)
(-0.00862836 0 0.0550628)
(-0.0116894 0 0.0776735)
(-0.00541308 0 0.0126269)
(-0.00745091 0 0.0288714)
(-0.00328895 0 -0.016682)
(-0.00458588 0 -0.00615566)
(-0.0019137 0 -0.0348826)
(-0.0026969 0 -0.029012)
(-0.00102188 0 -0.044478)
(-0.00145978 0 -0.0420672)
(-0.000428389 0 -0.0479263)
(-0.000636121 0 -0.0478902)
(-1.52867e-05 0 -0.0472896)
(-6.73391e-05 0 -0.0487682)
(0.000287847 0 -0.0441216)
(0.000343524 0 -0.0464922)
(0.000520906 0 -0.0395139)
(0.000654368 0 -0.0423472)
(0.000706619 0 -0.0342046)
(0.000898953 0 -0.0372127)
(0.000858168 0 -0.0286833)
(0.00109616 0 -0.0316755)
(0.000983374 0 -0.0232723)
(0.00125778 0 -0.0261227)
(0.00108726 0 -0.0181827)
(0.00139119 0 -0.0208088)
(0.00117335 0 -0.0135519)
(0.00150145 0 -0.0159006)
(0.00124443 0 -0.00946748)
(0.00159238 0 -0.0115057)
(0.00130282 0 -0.00598233)
(0.00166711 0 -0.00769185)
(0.00135057 0 -0.00312255)
(0.00172821 0 -0.00449739)
(0.00138942 0 -0.000890782)
(0.00177793 0 -0.00193643)
(0.00142097 0 0.000733044)
(0.00181822 0 -3.3748e-07)
(0.0014468 0 0.00178924)
(0.00185087 0 0.00134173)
(0.00146806 0 0.00232951)
(0.00187725 0 0.00213908)
(0.00148624 0 0.00240334)
(0.0018986 0 0.00244541)
(0.00150213 0 0.00205322)
(0.00191665 0 0.00230669)
(0.00151414 0 0.0013093)
(0.00193318 0 0.00176623)
(0.00194229 0 0.000846456)
(-0.0403374 0 0.233618)
(-0.0482252 0 0.298114)
(-0.0210358 0 0.096539)
(-0.0289145 0 0.153336)
(-0.00773253 0 -0.0329261)
(-0.0134038 0 0.0284698)
(0.0012051 0 -0.165344)
(-0.00206503 0 -0.102174)
(0.00458609 0 -0.278055)
(0.00467552 0 -0.23303)
(0.00234622 0 -0.322521)
(0.00470517 0 -0.323899)
(0.000947541 0 -0.267306)
(0.000835316 0 -0.320406)
(0.00711177 0 -0.134295)
(0.00257017 0 -0.216251)
(0.0209351 0 0.0301217)
(0.0135229 0 -0.0594813)
(0.040827 0 0.200189)
(0.0308021 0 0.107898)
(0.0676146 0 0.376481)
(0.0534458 0 0.276307)
(0.105554 0 0.575672)
(0.0864489 0 0.454756)
(0.159087 0 0.829442)
(0.123278 0 0.666643)
(0.225115 0 1.07682)
(0.186378 0 0.956017)
(0.34746 0 -0.232984)
(0.264176 0 1.14561)
(0.0448484 0 -1.74431)
(0.376386 0 -1.54148)
(-0.311519 0 -0.387474)
(-0.299015 0 -1.72512)
(-0.220329 0 1.05575)
(-0.273854 0 1.04472)
(-0.151451 0 0.889107)
(-0.174759 0 1.02188)
(-0.100102 0 0.632114)
(-0.118899 0 0.719113)
(-0.0703403 0 0.480013)
(-0.0852511 0 0.535287)
(-0.0494358 0 0.359644)
(-0.0597708 0 0.406546)
(-0.034483 0 0.259042)
(-0.0422265 0 0.299134)
(-0.0236832 0 0.174813)
(-0.0294645 0 0.208744)
(-0.0158879 0 0.105431)
(-0.0200554 0 0.133232)
(-0.0103445 0 0.0504141)
(-0.0132484 0 0.0719297)
(-0.00650323 0 0.00932681)
(-0.0084375 0 0.0246964)
(-0.00391126 0 -0.018969)
(-0.00512837 0 -0.00911077)
(-0.0021882 0 -0.0364526)
(-0.00289899 0 -0.0310727)
(-0.00103776 0 -0.0455682)
(-0.0014019 0 -0.0435105)
(-0.00025084 0 -0.0487081)
(-0.000379535 0 -0.0489258)
(0.000308769 0 -0.0478761)
(0.000341527 0 -0.0495408)
(0.000723589 0 -0.0445826)
(0.000870062 0 -0.047093)
(0.00104324 0 -0.039891)
(0.00127274 0 -0.0428329)
(0.00129706 0 -0.0345223)
(0.00158948 0 -0.0376173)
(0.00150269 0 -0.028956)
(0.00184399 0 -0.0320193)
(0.00167119 0 -0.0235084)
(0.0020515 0 -0.0264182)
(0.00180995 0 -0.0183878)
(0.00222186 0 -0.0210641)
(0.00192423 0 -0.0137298)
(0.00236202 0 -0.0161211)
(0.00201811 0 -0.00962133)
(0.00247715 0 -0.0116957)
(0.00209495 0 -0.00611491)
(0.00257146 0 -0.007855)
(0.0021576 0 -0.00323641)
(0.00264843 0 -0.00463693)
(0.00220849 0 -0.000988185)
(0.0027109 0 -0.00205533)
(0.0022496 0 0.000650133)
(0.00276136 0 -0.000101077)
(0.00228252 0 0.00171871)
(0.00280183 0 0.00125713)
(0.00230888 0 0.0022686)
(0.0028339 0 0.00206803)
(0.00233031 0 0.00234998)
(0.00285916 0 0.0023848)
(0.00234759 0 0.00200964)
(0.00287911 0 0.00225543)
(0.00235955 0 0.00128271)
(0.00289605 0 0.00172901)
(0.00290511 0 0.000830537)
(-0.039394 0 0.218039)
(-0.0447719 0 0.281193)
(-0.0209633 0 0.0855145)
(-0.0280265 0 0.141049)
(-0.00767522 0 -0.0405656)
(-0.012757 0 0.019611)
(0.00143708 0 -0.169655)
(-0.0016053 0 -0.108248)
(0.00499273 0 -0.278662)
(0.00506821 0 -0.235401)
(0.00313108 0 -0.321581)
(0.00524054 0 -0.322658)
(0.00219142 0 -0.269167)
(0.0017663 0 -0.31978)
(0.00879152 0 -0.141277)
(0.00374786 0 -0.220652)
(0.0232813 0 0.0184442)
(0.0148999 0 -0.0691413)
(0.043972 0 0.184154)
(0.0326423 0 0.0941045)
(0.0710983 0 0.354677)
(0.055151 0 0.258223)
(0.107415 0 0.545692)
(0.0877878 0 0.430545)
(0.156058 0 0.792238)
(0.122157 0 0.634214)
(0.210058 0 1.02137)
(0.1723 0 0.920017)
(0.306671 0 -0.172701)
(0.242857 0 1.0812)
(0.0377337 0 -1.53479)
(0.321654 0 -1.36219)
(-0.283081 0 -0.300131)
(-0.261183 0 -1.51124)
(-0.209322 0 1.00813)
(-0.25896 0 0.995545)
(-0.149102 0 0.851102)
(-0.159641 0 0.981734)
(-0.10231 0 0.603698)
(-0.119223 0 0.687918)
(-0.0735103 0 0.458756)
(-0.0858181 0 0.51179)
(-0.0524306 0 0.343587)
(-0.0610676 0 0.388506)
(-0.0369756 0 0.246812)
(-0.043695 0 0.285259)
(-0.0255858 0 0.165474)
(-0.030652 0 0.198018)
(-0.0172283 0 0.0983574)
(-0.0208871 0 0.124977)
(-0.0111985 0 0.0451578)
(-0.013737 0 0.0656819)
(-0.00695669 0 0.00551385)
(-0.00861608 0 0.0200861)
(-0.0040423 0 -0.0216842)
(-0.00504104 0 -0.0124335)
(-0.00206228 0 -0.0383784)
(-0.00258994 0 -0.0334407)
(-0.000708949 0 -0.0469531)
(-0.000910725 0 -0.0452083)
(0.000237251 0 -0.0497334)
(0.000258803 0 -0.050171)
(0.000921174 0 -0.048664)
(0.00109747 0 -0.0504849)
(0.00143376 0 -0.0452107)
(0.00171984 0 -0.0478353)
(0.00183056 0 -0.0404076)
(0.00219722 0 -0.0434356)
(0.00214566 0 -0.034957)
(0.00257346 0 -0.0381194)
(0.00240029 0 -0.0293273)
(0.00287571 0 -0.0324449)
(0.00260823 0 -0.0238282)
(0.00312168 0 -0.0267828)
(0.00277886 0 -0.0186639)
(0.00332315 0 -0.0213779)
(0.00291897 0 -0.0139681)
(0.00348853 0 -0.0163914)
(0.0030338 0 -0.0098264)
(0.00362414 0 -0.0119282)
(0.0031276 0 -0.00629069)
(0.00373502 0 -0.00805417)
(0.00320391 0 -0.0033864)
(0.00382538 0 -0.00480689)
(0.00326567 0 -0.00111531)
(0.00389862 0 -0.0021996)
(0.00331521 0 0.000543362)
(0.00395757 0 -0.000222488)
(0.00335447 0 0.0016298)
(0.00400451 0 0.00115621)
(0.00338531 0 0.00219476)
(0.00404137 0 0.00198489)
(0.00340944 0 0.00228923)
(0.00406993 0 0.00231654)
(0.00342776 0 0.0019635)
(0.0040914 0 0.00220107)
(0.00343973 0 0.00125596)
(0.00410814 0 0.00169175)
(0.00411782 0 0.000815007)
(-0.0360641 0 0.204228)
(-0.0392802 0 0.266693)
(-0.0193692 0 0.0752163)
(-0.0254336 0 0.129919)
(-0.00679916 0 -0.0479804)
(-0.0111112 0 0.0112309)
(0.00197933 0 -0.17391)
(-0.000714384 0 -0.114101)
(0.00542755 0 -0.279342)
(0.00554718 0 -0.2377)
(0.00381982 0 -0.320817)
(0.00569218 0 -0.321586)
(0.00316426 0 -0.271192)
(0.00250944 0 -0.319343)
(0.00978508 0 -0.148402)
(0.0044851 0 -0.225065)
(0.0241984 0 0.00664938)
(0.0152971 0 -0.0787503)
(0.0446619 0 0.168275)
(0.0327709 0 0.0804622)
(0.070958 0 0.334073)
(0.0542662 0 0.240692)
(0.10441 0 0.518933)
(0.0850987 0 0.408243)
(0.146635 0 0.761601)
(0.116922 0 0.606065)
(0.188304 0 0.978205)
(0.154072 0 0.892237)
(0.264707 0 -0.114526)
(0.216161 0 1.03027)
(0.0281939 0 -1.34762)
(0.271998 0 -1.20451)
(-0.251427 0 -0.220578)
(-0.228187 0 -1.32483)
(-0.189135 0 0.968174)
(-0.233747 0 0.954018)
(-0.139587 0 0.818431)
(-0.140423 0 0.948701)
(-0.0994023 0 0.578143)
(-0.11431 0 0.661129)
(-0.0726318 0 0.438546)
(-0.0820774 0 0.489949)
(-0.0523533 0 0.327776)
(-0.0592158 0 0.371151)
(-0.0371507 0 0.234478)
(-0.0426725 0 0.271612)
(-0.0257401 0 0.155871)
(-0.0299065 0 0.187273)
(-0.0172422 0 0.090968)
(-0.0202281 0 0.116583)
(-0.0110326 0 0.0395892)
(-0.0130637 0 0.0592478)
(-0.00660857 0 0.00141543)
(-0.00787152 0 0.0152778)
(-0.00352425 0 -0.0246508)
(-0.00420337 0 -0.01595)
(-0.00139323 0 -0.0405203)
(-0.00165441 0 -0.0359893)
(8.92835e-05 0 -0.0485206)
(0.000118424 0 -0.0470681)
(0.00114286 0 -0.0509113)
(0.00137138 0 -0.0515574)
(0.00191452 0 -0.0495783)
(0.0022813 0 -0.0515501)
(0.002498 0 -0.0459437)
(0.00296315 0 -0.0486801)
(0.00295193 0 -0.0410113)
(0.00348935 0 -0.0441251)
(0.00331304 0 -0.0354644)
(0.00390534 0 -0.0386947)
(0.00360483 0 -0.0297594)
(0.00423999 0 -0.0329325)
(0.00384286 0 -0.0241989)
(0.0045123 0 -0.0272001)
(0.00403791 0 -0.0189828)
(0.00473523 0 -0.0217366)
(0.00419786 0 -0.0142422)
(0.00491807 0 -0.0167)
(0.00432879 0 -0.0100615)
(0.0050679 0 -0.0121932)
(0.00443564 0 -0.00649143)
(0.00519032 0 -0.00828101)
(0.00452243 0 -0.00355691)
(0.00528999 0 -0.00500018)
(0.0045925 0 -0.00125905)
(0.0053707 0 -0.00236329)
(0.00464854 0 0.000423521)
(0.00543555 0 -0.000359803)
(0.00469275 0 0.00153115)
(0.00548704 0 0.00104257)
(0.00472713 0 0.00211452)
(0.00552731 0 0.00189218)
(0.00475341 0 0.00222551)
(0.00555825 0 0.00224219)
(0.00477258 0 0.00191704)
(0.00558081 0 0.00214417)
(0.00478461 0 0.00122979)
(0.00559679 0 0.0016543)
(0.00560736 0 0.000799868)
(-0.0311036 0 0.192433)
(-0.0324797 0 0.254842)
(-0.0166444 0 0.0659792)
(-0.0216359 0 0.12028)
(-0.00527574 0 -0.054838)
(-0.00874564 0 0.00365178)
(0.00278804 0 -0.177853)
(0.000500768 0 -0.119477)
(0.00587467 0 -0.279933)
(0.0060964 0 -0.239757)
(0.00433596 0 -0.320106)
(0.0060268 0 -0.32056)
(0.00374743 0 -0.273178)
(0.00297182 0 -0.31895)
(0.0100316 0 -0.155331)
(0.00471056 0 -0.229255)
(0.0238138 0 -0.00481824)
(0.0147691 0 -0.0879382)
(0.0433161 0 0.153012)
(0.0314114 0 0.0674602)
(0.0679932 0 0.314941)
(0.0513778 0 0.224241)
(0.0980738 0 0.495396)
(0.079432 0 0.388189)
(0.133681 0 0.736711)
(0.108986 0 0.582327)
(0.165134 0 0.943757)
(0.134232 0 0.871268)
(0.227661 0 -0.0625607)
(0.19039 0 0.988584)
(0.0201907 0 -1.18616)
(0.230829 0 -1.0662)
(-0.220342 0 -0.152831)
(-0.199495 0 -1.16447)
(-0.165295 0 0.934132)
(-0.205131 0 0.91732)
(-0.125913 0 0.791421)
(-0.120098 0 0.922446)
(-0.0925465 0 0.55571)
(-0.105355 0 0.638885)
(-0.0684118 0 0.419784)
(-0.075125 0 0.470259)
(-0.0496068 0 0.312711)
(-0.0547371 0 0.355058)
(-0.0352071 0 0.222493)
(-0.0394601 0 0.258685)
(-0.0242184 0 0.146388)
(-0.0273915 0 0.176925)
(-0.0159244 0 0.0835731)
(-0.0181498 0 0.10839)
(-0.00979754 0 0.033952)
(-0.0112406 0 0.0528995)
(-0.00538762 0 -0.00278174)
(-0.00618183 0 0.0104847)
(-0.00227833 0 -0.0277275)
(-0.00257617 0 -0.0194949)
(-0.000103083 0 -0.0427719)
(-4.54849e-05 0 -0.0385907)
(0.00142949 0 -0.05019)
(0.00173401 0 -0.0489906)
(0.00253185 0 -0.0521798)
(0.00300474 0 -0.0530079)
(0.00334735 0 -0.0505714)
(0.00393637 0 -0.0526757)
(0.00396856 0 -0.0467439)
(0.00463981 0 -0.0495796)
(0.00445419 0 -0.0416722)
(0.00518565 0 -0.0448627)
(0.00484159 0 -0.0360203)
(0.00561871 0 -0.0393119)
(0.00515503 0 -0.0302326)
(0.00596788 0 -0.0334564)
(0.00541083 0 -0.0246044)
(0.00625232 0 -0.0276485)
(0.00562042 0 -0.0193313)
(0.0064853 0 -0.022122)
(0.00579224 0 -0.0145416)
(0.00667643 0 -0.0170315)
(0.00593285 0 -0.0103179)
(0.00683305 0 -0.0124777)
(0.00604754 0 -0.00671031)
(0.00696102 0 -0.00852446)
(0.00614065 0 -0.0037427)
(0.00706517 0 -0.00520752)
(0.00621576 0 -0.0014155)
(0.00714947 0 -0.00253871)
(0.00627574 0 0.000293272)
(0.00721715 0 -0.000506779)
(0.00632298 0 0.0014243)
(0.00727081 0 0.000921116)
(0.00635954 0 0.00202851)
(0.00731268 0 0.00179358)
(0.00638709 0 0.00215873)
(0.00734465 0 0.00216425)
(0.00640662 0 0.00186987)
(0.00736747 0 0.00208621)
(0.00641845 0 0.00120404)
(0.00738196 0 0.00161748)
(0.00739323 0 0.000785639)
(-0.0251405 0 0.182724)
(-0.0250885 0 0.245557)
(-0.013165 0 0.057992)
(-0.0171444 0 0.112296)
(-0.00329827 0 -0.060941)
(-0.0059599 0 -0.00292599)
(0.00376633 0 -0.18134)
(0.00189471 0 -0.124186)
(0.0062786 0 -0.280353)
(0.0066598 0 -0.241432)
(0.00462574 0 -0.319372)
(0.00620761 0 -0.319458)
(0.00389954 0 -0.274981)
(0.00311183 0 -0.318466)
(0.00956368 0 -0.161798)
(0.00442718 0 -0.233031)
(0.0223113 0 -0.0155778)
(0.0134441 0 -0.0964367)
(0.0403569 0 0.138786)
(0.0288421 0 0.05543)
(0.062922 0 0.297551)
(0.0470191 0 0.209198)
(0.0895492 0 0.475088)
(0.071731 0 0.370438)
(0.119088 0 0.716743)
(0.0993468 0 0.562634)
(0.14335 0 0.915611)
(0.114325 0 0.855094)
(0.196927 0 -0.0167199)
(0.168119 0 0.952866)
(0.014288 0 -1.04713)
(0.197216 0 -0.944439)
(-0.191631 0 -0.0960772)
(-0.174453 0 -1.02719)
(-0.141327 0 0.905088)
(-0.17721 0 0.883785)
(-0.110278 0 0.769724)
(-0.100302 0 0.901747)
(-0.0828681 0 0.536421)
(-0.0936523 0 0.620611)
(-0.061608 0 0.402827)
(-0.0659272 0 0.452913)
(-0.0446506 0 0.298798)
(-0.0481866 0 0.340545)
(-0.0314248 0 0.211232)
(-0.0344432 0 0.246812)
(-0.0211854 0 0.137354)
(-0.0233578 0 0.167283)
(-0.0133644 0 0.0764488)
(-0.0148115 0 0.100665)
(-0.00753436 0 0.028469)
(-0.0083627 0 0.0468587)
(-0.00330451 0 -0.00690299)
(-0.00360196 0 0.0058873)
(-0.000295407 0 -0.0307794)
(-0.00018749 0 -0.0229256)
(0.00182596 0 -0.0450289)
(0.00222642 0 -0.0411276)
(0.00333441 0 -0.0518813)
(0.00393523 0 -0.0508829)
(0.00442882 0 -0.0534773)
(0.0051643 0 -0.054448)
(0.00524456 0 -0.051595)
(0.00607155 0 -0.0538017)
(0.00586974 0 -0.0475736)
(0.00676062 0 -0.0504847)
(0.00636071 0 -0.04236)
(0.00729787 0 -0.0456083)
(0.00675362 0 -0.0366001)
(0.00772569 0 -0.0399378)
(0.00707221 0 -0.0307269)
(0.00807157 0 -0.0339887)
(0.00733256 0 -0.0250285)
(0.00835388 0 -0.0281048)
(0.00754606 0 -0.0196959)
(0.00858541 0 -0.0225146)
(0.00772117 0 -0.0148548)
(0.00877552 0 -0.0173693)
(0.00786451 0 -0.0105864)
(0.00893138 0 -0.0127677)
(0.00798142 0 -0.00693949)
(0.00905877 0 -0.00877261)
(0.00807633 0 -0.00393728)
(0.00916244 0 -0.00541883)
(0.00815284 0 -0.00157937)
(0.00924629 0 -0.0027174)
(0.00821388 0 0.000156888)
(0.00931353 0 -0.000656336)
(0.00826187 0 0.00131262)
(0.0093667 0 0.000797754)
(0.00829883 0 0.00193925)
(0.00940803 0 0.00169393)
(0.00832631 0 0.00209065)
(0.00943932 0 0.00208653)
(0.00834529 0 0.00182312)
(0.00946116 0 0.00202989)
(0.00835634 0 0.00117946)
(0.00947325 0 0.00158308)
(0.00948466 0 0.000773209)
(-0.0188491 0 0.175093)
(-0.0178194 0 0.23854)
(-0.00934993 0 0.0513757)
(-0.01247 0 0.105963)
(-0.00105534 0 -0.0661435)
(-0.00305219 0 -0.0084557)
(0.00479227 0 -0.184237)
(0.00332072 0 -0.128085)
(0.00658903 0 -0.280501)
(0.00716867 0 -0.24263)
(0.00466849 0 -0.318512)
(0.00621483 0 -0.318178)
(0.00363349 0 -0.276471)
(0.0029338 0 -0.317776)
(0.008478 0 -0.167621)
(0.00368881 0 -0.236261)
(0.0199273 0 -0.0253823)
(0.0114919 0 -0.10407)
(0.0362197 0 0.125879)
(0.0253762 0 0.0445686)
(0.0564192 0 0.282069)
(0.0416764 0 0.195731)
(0.0797084 0 0.457847)
(0.0628079 0 0.354912)
(0.104004 0 0.700675)
(0.0886866 0 0.546437)
(0.123882 0 0.891772)
(0.0952868 0 0.841842)
(0.171693 0 0.023806)
(0.149381 0 0.920992)
(0.0102748 0 -0.926467)
(0.169252 0 -0.836826)
(-0.166108 0 -0.0487114)
(-0.15248 0 -0.909606)
(-0.118985 0 0.879867)
(-0.151922 0 0.852369)
(-0.0939666 0 0.752329)
(-0.0815727 0 0.885068)
(-0.0713567 0 0.520083)
(-0.080292 0 0.605538)
(-0.0529666 0 0.387903)
(-0.0552611 0 0.437909)
(-0.0379986 0 0.286318)
(-0.0401368 0 0.327736)
(-0.0261599 0 0.20098)
(-0.0280487 0 0.236184)
(-0.0168836 0 0.129029)
(-0.0181112 0 0.158548)
(-0.00972624 0 0.0698193)
(-0.010429 0 0.0935948)
(-0.00435186 0 0.0233265)
(-0.00458032 0 0.04129)
(-0.000426247 0 -0.0107956)
(-0.000235243 0 0.00162063)
(0.00237521 0 -0.0336818)
(0.00289192 0 -0.0261195)
(0.00436402 0 -0.047192)
(0.00511064 0 -0.043506)
(0.00578618 0 -0.0535151)
(0.00668699 0 -0.0526669)
(0.00682374 0 -0.05474)
(0.00782563 0 -0.0558133)
(0.00760122 0 -0.0525977)
(0.00866968 0 -0.0548748)
(0.00819996 0 -0.0483906)
(0.00931342 0 -0.0513515)
(0.0086721 0 -0.0430401)
(0.00981732 0 -0.0463253)
(0.00905123 0 -0.0371753)
(0.01022 0 -0.0405417)
(0.00935947 0 -0.0312184)
(0.0105466 0 -0.0345038)
(0.00961187 0 -0.0254508)
(0.0108138 0 -0.0285473)
(0.00981916 0 -0.0200594)
(0.0110334 0 -0.0228957)
(0.00998933 0 -0.0151674)
(0.0112139 0 -0.0176975)
(0.0101287 0 -0.0108544)
(0.011362 0 -0.0130497)
(0.0102424 0 -0.0071683)
(0.011483 0 -0.00901385)
(0.0103346 0 -0.00413146)
(0.0115815 0 -0.00562414)
(0.0104088 0 -0.00174272)
(0.011661 0 -0.00289079)
(0.0104679 0 2.12229e-05)
(0.0117246 0 -0.000801036)
(0.0105142 0 0.00120203)
(0.0117746 0 0.000678891)
(0.0105495 0 0.00185177)
(0.0118132 0 0.00159878)
(0.0105752 0 0.00202528)
(0.0118419 0 0.00201367)
(0.0105924 0 0.00177974)
(0.0118614 0 0.00197887)
(0.0106019 0 0.00115778)
(0.0118701 0 0.00155366)
(0.0118808 0 0.000763783)
(-0.0128353 0 0.169337)
(-0.0112157 0 0.233364)
(-0.00560801 0 0.0461214)
(-0.00803175 0 0.101145)
(0.00103703 0 -0.0703915)
(-0.000269372 0 -0.0128858)
(0.00573699 0 -0.186474)
(0.00465793 0 -0.131218)
(0.00677172 0 -0.280288)
(0.00756913 0 -0.24332)
(0.00447165 0 -0.317418)
(0.00604975 0 -0.316645)
(0.00299868 0 -0.277539)
(0.00247334 0 -0.316794)
(0.00690118 0 -0.172683)
(0.00257686 0 -0.238862)
(0.0169132 0 -0.0341029)
(0.00908979 0 -0.110744)
(0.0313186 0 0.114414)
(0.021319 0 0.0349649)
(0.0490769 0 0.26851)
(0.0357747 0 0.183892)
(0.0691947 0 0.443338)
(0.0533337 0 0.3415)
(0.0890638 0 0.687315)
(0.0775238 0 0.533191)
(0.106611 0 0.870596)
(0.0776077 0 0.830144)
(0.150476 0 0.059406)
(0.133136 0 0.891749)
(0.00744252 0 -0.82133)
(0.145468 0 -0.741471)
(-0.143806 0 -0.00949817)
(-0.132917 0 -0.808774)
(-0.0987523 0 0.857141)
(-0.129706 0 0.822333)
(-0.0775499 0 0.738004)
(-0.0637876 0 0.870933)
(-0.0587677 0 0.506329)
(-0.066086 0 0.593017)
(-0.0431289 0 0.375024)
(-0.0437198 0 0.42515)
(-0.030153 0 0.275372)
(-0.0311162 0 0.316631)
(-0.0197903 0 0.191884)
(-0.0206821 0 0.226881)
(-0.0115903 0 0.121565)
(-0.011963 0 0.150826)
(-0.0052108 0 0.0638281)
(-0.00523245 0 0.0872933)
(-0.000395295 0 0.0186529)
(-6.08326e-05 0 0.0363004)
(0.00313021 0 -0.014349)
(0.0037949 0 -0.00221115)
(0.00565858 0 -0.0363429)
(0.00656941 0 -0.029002)
(0.00745575 0 -0.049184)
(0.00853789 0 -0.0456553)
(0.00874338 0 -0.0550259)
(0.00993724 0 -0.0542822)
(0.00968517 0 -0.0559129)
(0.0109483 0 -0.0570525)
(0.010393 0 -0.0535333)
(0.0116988 0 -0.0558518)
(0.01094 0 -0.0491563)
(0.0122724 0 -0.0521435)
(0.0113729 0 -0.0436801)
(0.0127228 0 -0.0469826)
(0.0117217 0 -0.0377184)
(0.013084 0 -0.0410973)
(0.0120062 0 -0.0316838)
(0.0133778 0 -0.0349791)
(0.0122397 0 -0.0258515)
(0.0136189 0 -0.0289565)
(0.0124318 0 -0.0204047)
(0.0138175 0 -0.0232489)
(0.0125897 0 -0.0154645)
(0.0139811 0 -0.0180019)
(0.0127191 0 -0.0111092)
(0.0141153 0 -0.0133113)
(0.0128245 0 -0.00738569)
(0.014225 0 -0.0092376)
(0.0129099 0 -0.00431564)
(0.014314 0 -0.00581425)
(0.0129785 0 -0.00189718)
(0.0143857 0 -0.00305082)
(0.0130328 0 -0.000106405)
(0.0144428 0 -0.000934014)
(0.0130749 0 0.00109894)
(0.0144873 0 0.00057073)
(0.0131065 0 0.0017716)
(0.014521 0 0.00151357)
(0.0131289 0 0.00196718)
(0.0145455 0 0.00195035)
(0.0131431 0 0.00174314)
(0.0145612 0 0.0019369)
(0.0131501 0 0.00114107)
(0.0145656 0 0.00153188)
(0.014575 0 0.000758617)
(-0.00748855 0 0.165103)
(-0.00556073 0 0.229564)
(-0.00222449 0 0.0421073)
(-0.0040867 0 0.0976359)
(0.00297324 0 -0.0737256)
(0.0022186 0 -0.016351)
(0.00654994 0 -0.188062)
(0.00581937 0 -0.133603)
(0.00681085 0 -0.279669)
(0.00783582 0 -0.243494)
(0.00406277 0 -0.316014)
(0.00572798 0 -0.314813)
(0.00206668 0 -0.278111)
(0.00178269 0 -0.315464)
(0.00496857 0 -0.176921)
(0.00118443 0 -0.240797)
(0.0135008 0 -0.041687)
(0.00640242 0 -0.116432)
(0.0260093 0 0.104409)
(0.0169334 0 0.0266258)
(0.0413844 0 0.256803)
(0.0296603 0 0.173642)
(0.058549 0 0.431204)
(0.0438472 0 0.330057)
(0.0746785 0 0.675809)
(0.066321 0 0.522438)
(0.0910535 0 0.850999)
(0.0615133 0 0.819228)
(0.132045 0 0.0902712)
(0.118318 0 0.864421)
(0.00559877 0 -0.729731)
(0.1251 0 -0.657173)
(-0.124093 0 0.0224923)
(-0.115136 0 -0.722313)
(-0.0803694 0 0.835846)
(-0.109971 0 0.793184)
(-0.0612596 0 0.725739)
(-0.0466764 0 0.858194)
(-0.0456596 0 0.494807)
(-0.0516162 0 0.582617)
(-0.0326123 0 0.364082)
(-0.0317499 0 0.414505)
(-0.0215451 0 0.265944)
(-0.0215637 0 0.307159)
(-0.0126575 0 0.183983)
(-0.0126823 0 0.218903)
(-0.00556573 0 0.115029)
(-0.00518633 0 0.144148)
(-1.73151e-05 0 0.0585504)
(0.000570239 0 0.0818126)
(0.00418284 0 0.0145227)
(0.00503726 0 0.0319484)
(0.00726492 0 -0.0174958)
(0.00836439 0 -0.00556101)
(0.00947122 0 -0.0387019)
(0.0107494 0 -0.0315174)
(0.0110361 0 -0.0509495)
(0.0124355 0 -0.0475268)
(0.0121549 0 -0.0563656)
(0.0136281 0 -0.0556857)
(0.0129722 0 -0.0569542)
(0.0144858 0 -0.058128)
(0.0135867 0 -0.0543657)
(0.0151208 0 -0.0566998)
(0.0140623 0 -0.0498396)
(0.0156061 0 -0.052832)
(0.0144398 0 -0.0442531)
(0.0159877 0 -0.0475559)
(0.014745 0 -0.0382064)
(0.0162946 0 -0.0415835)
(0.0149947 0 -0.0321031)
(0.0165453 0 -0.0353964)
(0.0152003 0 -0.0262134)
(0.0167517 0 -0.0293169)
(0.0153698 0 -0.0207171)
(0.0169222 0 -0.0235605)
(0.0155093 0 -0.0157335)
(0.0170628 0 -0.0182708)
(0.0156235 0 -0.0113397)
(0.0171782 0 -0.0135423)
(0.0157165 0 -0.00758206)
(0.0172724 0 -0.0094349)
(0.0157916 0 -0.00448146)
(0.0173487 0 -0.00598134)
(0.0158515 0 -0.00203548)