/*--------------------------------*- C++ -*----------------------------------*\
  =========                 |
  \\      /  F ield         | OpenFOAM: The Open Source CFD Toolbox
   \\    /   O peration     | Website:  https://openfoam.org
    \\  /    A nd           | Version:  9
     \\/     M anipulation  |
\*---------------------------------------------------------------------------*/
FoamFile
{
    format      ascii;
    class       volScalarField;
    location    "0.17";
    object      alpha.water;
}
// * * * * * * * * * * * * * * * * * * * * * * * * * * * * * * * * * * * * * //

dimensions      [0 0 0 0 0 0 0];

internalField   nonuniform List<scalar> 
5000
(
-6.34702e-65
-2.21573e-64
-1.07312e-63
-5.40802e-63
-2.82923e-62
-1.53686e-61
-8.67037e-61
-5.0814e-60
-3.09431e-59
-1.95822e-58
-1.28807e-57
-8.8072e-57
-6.25978e-56
-4.62448e-55
-3.55019e-54
-2.8311e-53
-2.34379e-52
-2.01273e-51
-1.79103e-50
-1.64934e-49
-1.56949e-48
-1.5408e-47
-1.55797e-46
-1.62016e-45
-1.73098e-44
-1.89967e-43
-2.14413e-42
-2.49722e-41
-3.01936e-40
-3.82281e-39
-5.11786e-38
-8.37783e-37
-1.38991e-35
-2.31242e-34
-3.79292e-33
-6.01537e-32
-9.05177e-31
-1.27038e-29
-1.63714e-28
-1.90854e-27
-1.98124e-26
-1.79738e-25
-1.38912e-24
-8.79338e-24
-4.25529e-23
-1.36311e-22
-1.92553e-22
-1.23645e-24
-8.41967e-24
3.58404e-22
-2.15393e-64
-7.44883e-64
-3.57589e-63
-1.78601e-62
-9.25823e-62
-4.98198e-61
-2.78356e-60
-1.61515e-59
-9.73459e-59
-6.09508e-58
-3.96497e-57
-2.67988e-56
-1.88186e-55
-1.37274e-54
-1.03992e-53
-8.17774e-53
-6.67134e-52
-5.64122e-51
-4.93903e-50
-4.47138e-49
-4.17921e-48
-4.02563e-47
-3.98884e-46
-4.05805e-45
-4.23174e-44
-4.51787e-43
-4.93679e-42
-5.52846e-41
-6.36758e-40
-7.59342e-39
-9.46768e-38
-1.43115e-36
-2.19172e-35
-3.39e-34
-5.22911e-33
-7.89141e-32
-1.14072e-30
-1.54778e-29
-1.9353e-28
-2.19209e-27
-2.21056e-26
-1.94554e-25
-1.45578e-24
-8.90279e-24
-4.1563e-23
-1.28678e-22
-1.77133e-22
-8.16389e-25
6.11217e-24
5.65931e-22
-6.87933e-64
-2.35406e-63
-1.11928e-62
-5.53623e-62
-2.84146e-61
-1.51356e-60
-8.3692e-60
-4.80476e-59
-2.86441e-58
-1.77346e-57
-1.14041e-56
-7.61632e-56
-5.28249e-55
-3.80412e-54
-2.84347e-53
-2.20502e-52
-1.77277e-51
-1.47635e-50
-1.27214e-49
-1.13266e-48
-1.04036e-47
-9.83989e-47
-9.56414e-46
-9.53304e-45
-9.72391e-44
-1.01314e-42
-1.07683e-41
-1.16718e-40
-1.29194e-39
-1.46625e-38
-1.71951e-37
-2.41466e-36
-3.41107e-35
-4.86991e-34
-6.99098e-33
-9.93888e-32
-1.36968e-30
-1.78824e-29
-2.16449e-28
-2.3809e-27
-2.33416e-26
-1.99637e-25
-1.4498e-24
-8.59259e-24
-3.88622e-23
-1.17008e-22
-1.59542e-22
-7.81758e-25
1.29224e-23
6.54024e-22
-2.08831e-63
-7.06256e-63
-3.32308e-62
-1.62638e-61
-8.25751e-61
-4.35017e-60
-2.37841e-59
-1.34981e-58
-7.9529e-58
-4.86511e-57
-3.09023e-56
-2.03799e-55
-1.39532e-54
-9.91516e-54
-7.31006e-53
-5.58866e-52
-4.42742e-51
-3.6312e-50
-3.07969e-49
-2.6972e-48
-2.43533e-47
-2.26268e-46
-2.15873e-45
-2.11011e-44
-2.10828e-43
-2.14825e-42
-2.22793e-41
-2.34836e-40
-2.51506e-39
-2.74134e-38
-3.05627e-37
-4.02731e-36
-5.27738e-35
-6.94421e-34
-9.2048e-33
-1.21969e-31
-1.58672e-30
-1.9791e-29
-2.30903e-28
-2.46189e-27
-2.34595e-26
-1.95176e-25
-1.3781e-24
-7.93316e-24
-3.48377e-23
-1.02122e-22
-1.37338e-22
-6.34713e-25
3.74382e-23
2.77688e-21
-6.07863e-63
-2.02966e-62
-9.44353e-62
-4.56948e-61
-2.29304e-60
-1.1936e-59
-6.44634e-59
-3.61291e-58
-2.10166e-57
-1.26904e-56
-7.95442e-56
-5.17541e-55
-3.49479e-54
-2.44864e-53
-1.77944e-52
-1.34046e-51
-1.04595e-50
-8.44576e-50
-7.04895e-49
-6.0722e-48
-5.38983e-47
-4.92013e-46
-4.60912e-45
-4.4206e-44
-4.33003e-43
-4.32064e-42
-4.38121e-41
-4.5051e-40
-4.69076e-39
-4.94469e-38
-5.29037e-37
-6.6146e-36
-8.12119e-35
-9.89889e-34
-1.2087e-32
-1.47999e-31
-1.79785e-30
-2.12175e-29
-2.37009e-28
-2.44009e-27
-2.25667e-26
-1.82653e-25
-1.25534e-24
-7.03074e-24
-3.00227e-23
-8.56552e-23
-1.12687e-22
-1.8783e-25
8.59924e-23
5.21529e-21
-1.70947e-62
-5.63207e-62
-2.59002e-61
-1.23832e-60
-6.13758e-60
-3.15422e-59
-1.68123e-58
-9.29621e-58
-5.33342e-57
-3.1753e-56
-1.96185e-55
-1.25787e-54
-8.36829e-54
-5.77507e-53
-4.13259e-52
-3.06468e-51
-2.3535e-50
-1.86976e-49
-1.53488e-48
-1.3e-47
-1.13409e-46
-1.01704e-45
-9.35539e-45
-8.80585e-44
-8.45961e-43
-8.27246e-42
-8.21206e-41
-8.25436e-40
-8.38232e-39
-8.58792e-38
-8.8822e-37
-1.06427e-35
-1.23841e-34
-1.41227e-33
-1.5955e-32
-1.79919e-31
-2.02181e-30
-2.23259e-29
-2.36523e-28
-2.33641e-27
-2.09001e-26
-1.64382e-25
-1.10006e-24
-6.0011e-24
-2.49488e-23
-6.92571e-23
-8.84959e-23
6.3069e-26
8.23639e-23
4.50539e-21
-4.67069e-62
-1.51844e-61
-6.90149e-61
-3.25994e-60
-1.59539e-59
-8.09134e-59
-4.25393e-58
-2.31894e-57
-1.31103e-56
-7.68834e-56
-4.67724e-55
-2.95179e-54
-1.93233e-53
-1.31182e-52
-9.23225e-52
-6.73195e-51
-5.08219e-50
-3.96841e-49
-3.20117e-48
-2.66372e-47
-2.28244e-46
-2.0099e-45
-1.81484e-44
-1.67621e-43
-1.5794e-42
-1.514e-41
-1.47227e-40
-1.44825e-39
-1.43725e-38
-1.43584e-37
-1.44302e-36
-1.66997e-35
-1.8612e-34
-2.00968e-33
-2.12166e-32
-2.21159e-31
-2.28877e-30
-2.34061e-29
-2.32465e-28
-2.18252e-27
-1.87685e-26
-1.42999e-25
-9.30949e-25
-4.94884e-24
-2.0049e-23
-5.41541e-23
-6.68154e-23
-5.25133e-26
4.81064e-23
2.65868e-21
-1.24365e-61
-3.99275e-61
-1.79453e-60
-8.3778e-60
-4.04951e-59
-2.02709e-58
-1.05115e-57
-5.64799e-57
-3.14537e-56
-1.81586e-55
-1.08689e-54
-6.74539e-54
-4.34036e-53
-2.89514e-52
-2.00127e-51
-1.43291e-50
-1.06197e-49
-8.13925e-49
-6.44354e-48
-5.2614e-47
-4.42345e-46
-3.82146e-45
-3.3847e-44
-3.0658e-43
-2.83224e-42
-2.66097e-41
-2.53507e-40
-2.44163e-39
-2.37048e-38
-2.31374e-37
-2.26717e-36
-2.54824e-35
-2.74308e-34
-2.83631e-33
-2.8336e-32
-2.75788e-31
-2.63639e-30
-2.4828e-29
-2.28554e-28
-2.01468e-27
-1.64952e-26
-1.21013e-25
-7.64164e-25
-3.95544e-24
-1.56209e-23
-4.10586e-23
-4.86465e-23
-1.38367e-25
2.29772e-23
1.98176e-21
-3.22922e-61
-1.02531e-60
-4.56144e-60
-2.10669e-59
-1.00662e-58
-4.97715e-58
-2.54721e-57
-1.34969e-56
-7.40612e-56
-4.20951e-55
-2.47871e-54
-1.51221e-53
-9.55866e-53
-6.25942e-52
-4.24544e-51
-2.98118e-50
-2.16608e-49
-1.62713e-48
-1.26228e-47
-1.00991e-46
-8.31893e-46
-7.0413e-45
-6.11016e-44
-5.42211e-43
-4.90692e-42
-4.51557e-41
-4.21275e-40
-3.97223e-39
-3.77386e-38
-3.60224e-37
-3.44816e-36
-3.77755e-35
-3.95108e-34
-3.94787e-33
-3.77813e-32
-3.47955e-31
-3.10402e-30
-2.69802e-29
-2.28592e-28
-1.86788e-27
-1.43703e-26
-1.00496e-25
-6.11822e-25
-3.07499e-24
-1.1829e-23
-3.02445e-23
-3.41967e-23
-9.63624e-26
1.67917e-23
2.00084e-21
-8.16683e-61
-2.56915e-60
-1.13287e-59
-5.18293e-59
-2.45132e-58
-1.19873e-57
-6.06222e-57
-3.17125e-56
-1.71637e-55
-9.61294e-55
-5.57225e-54
-3.34332e-53
-2.0764e-52
-1.33476e-51
-8.87938e-51
-6.11099e-50
-4.34891e-49
-3.19804e-48
-2.42777e-47
-1.90026e-46
-1.53117e-45
-1.26771e-44
-1.07608e-43
-9.34147e-43
-8.27057e-42
-7.44612e-41
-6.79625e-40
-6.26898e-39
-5.82583e-38
-5.43832e-37
-5.08916e-36
-5.44445e-35
-5.55375e-34
-5.39705e-33
-4.99686e-32
-4.41259e-31
-3.72611e-30
-3.02061e-29
-2.35889e-28
-1.77134e-27
-1.26204e-26
-8.2928e-26
-4.81603e-25
-2.33585e-24
-8.72837e-24
-2.1675e-23
-2.31784e-23
-6.17563e-26
1.98169e-23
2.06779e-21
-2.00725e-60
-6.26837e-60
-2.74351e-59
-1.24521e-58
-5.83849e-58
-2.82823e-57
-1.41564e-56
-7.32293e-56
-3.91542e-55
-2.16416e-54
-1.2367e-53
-7.30686e-53
-4.46361e-52
-2.81907e-51
-1.84044e-50
-1.24172e-49
-8.65424e-49
-6.22713e-48
-4.62219e-47
-3.53544e-46
-2.78275e-45
-2.25006e-44
-1.86513e-43
-1.58118e-42
-1.36723e-41
-1.20235e-40
-1.07204e-39
-9.66108e-39
-8.7723e-38
-8.00183e-37
-7.31793e-36
-7.64839e-35
-7.62238e-34
-7.2319e-33
-6.52243e-32
-5.58226e-31
-4.52628e-30
-3.47468e-29
-2.52795e-28
-1.74528e-27
-1.13927e-26
-6.91678e-26
-3.77102e-25
-1.74527e-24
-6.29522e-24
-1.51251e-23
-1.50626e-23
-2.24641e-26
2.19396e-23
1.92738e-21
-4.78262e-60
-1.48534e-59
-6.46139e-59
-2.9136e-58
-1.3564e-57
-6.51939e-57
-3.23537e-56
-1.65797e-55
-8.77399e-55
-4.79525e-54
-2.70663e-53
-1.57776e-52
-9.4978e-52
-5.90362e-51
-3.7883e-50
-2.50888e-49
-1.71418e-48
-1.20766e-47
-8.76676e-47
-6.55143e-46
-5.03402e-45
-3.97118e-44
-3.2103e-43
-2.65359e-42
-2.23711e-41
-1.91815e-40
-1.66769e-39
-1.46568e-38
-1.29812e-37
-1.15525e-36
-1.03114e-35
-1.05193e-34
-1.02421e-33
-9.5013e-33
-8.37959e-32
-7.00118e-31
-5.51378e-30
-4.07025e-29
-2.80392e-28
-1.79932e-27
-1.07518e-26
-5.95041e-26
-2.98601e-25
-1.2954e-24
-4.45716e-24
-1.02789e-23
-9.25319e-24
4.67434e-26
1.90116e-23
1.3964e-21
-1.10233e-59
-3.40996e-59
-1.47607e-58
-6.62106e-58
-3.06469e-57
-1.46374e-56
-7.2138e-56
-3.66857e-55
-1.92514e-54
-1.04243e-53
-5.82397e-53
-3.35687e-52
-1.99582e-51
-1.22373e-50
-7.73577e-50
-5.03987e-49
-3.38253e-48
-2.33739e-47
-1.66185e-46
-1.21465e-45
-9.11675e-45
-7.0175e-44
-5.53048e-43
-4.45369e-42
-3.65636e-41
-3.05214e-40
-2.5831e-39
-2.2098e-38
-1.90517e-37
-1.6507e-36
-1.43492e-35
-1.42588e-34
-1.35412e-33
-1.22736e-32
-1.05953e-31
-8.67331e-31
-6.68387e-30
-4.80212e-29
-3.18387e-28
-1.93214e-27
-1.06859e-26
-5.37542e-26
-2.43971e-25
-9.68942e-25
-3.11806e-24
-6.80661e-24
-5.29825e-24
2.79434e-26
1.21399e-23
8.61855e-22
-2.45384e-59
-7.57023e-59
-3.26387e-58
-1.45788e-57
-6.71703e-57
-3.19197e-56
-1.5644e-55
-7.90726e-55
-4.12156e-54
-2.21518e-53
-1.22745e-52
-7.01057e-52
-4.12616e-51
-2.50172e-50
-1.56191e-49
-1.00369e-48
-6.6347e-48
-4.50868e-47
-3.14743e-46
-2.25507e-45
-1.65656e-44
-1.24611e-43
-9.58406e-43
-7.52333e-42
-6.0148e-41
-4.88571e-40
-4.02124e-39
-3.34405e-38
-2.80158e-37
-2.35822e-36
-1.99147e-35
-1.92203e-34
-1.77499e-33
-1.56765e-32
-1.32229e-31
-1.0607e-30
-8.02388e-30
-5.65244e-29
-3.65238e-28
-2.13259e-27
-1.11181e-26
-5.13789e-26
-2.09523e-25
-7.43828e-25
-2.17563e-24
-4.39653e-24
-2.80563e-24
-6.33191e-41
1.13228e-23
5.87996e-22
-5.27062e-59
-1.6232e-58
-6.97554e-58
-3.10514e-57
-1.42536e-56
-6.74595e-56
-3.29158e-55
-1.65564e-54
-8.58362e-54
-4.58613e-53
-2.52463e-52
-1.43152e-51
-8.35785e-51
-5.02225e-50
-3.10447e-49
-1.9729e-48
-1.28811e-47
-8.63381e-47
-5.93574e-46
-4.18164e-45
-3.01533e-44
-2.22274e-43
-1.67251e-42
-1.28243e-41
-1.00006e-40
-7.91321e-40
-6.33741e-39
-5.12278e-38
-4.16781e-37
-3.40385e-36
-2.78676e-35
-2.60454e-34
-2.33019e-33
-1.99667e-32
-1.63864e-31
-1.28403e-30
-9.52658e-30
-6.59734e-29
-4.18508e-28
-2.38199e-27
-1.19232e-26
-5.1601e-26
-1.90736e-25
-5.96667e-25
-1.53244e-24
-2.76624e-24
-1.3576e-24
6.22072e-27
1.22675e-23
2.90267e-22
-1.09195e-58
-3.35949e-58
-1.43979e-57
-6.39114e-57
-2.92482e-56
-1.3797e-55
-6.70791e-55
-3.36081e-54
-1.73494e-53
-9.22597e-53
-5.05251e-52
-2.8485e-51
-1.65255e-50
-9.86041e-50
-6.04748e-49
-3.80967e-48
-2.46313e-47
-1.633e-46
-1.10904e-45
-7.70708e-45
-5.47373e-44
-3.96766e-43
-2.93076e-42
-2.20227e-41
-1.68019e-40
-1.29861e-39
-1.01426e-38
-7.98352e-38
-6.31499e-37
-5.00609e-36
-3.97132e-35
-3.58773e-34
-3.09924e-33
-2.56394e-32
-2.03503e-31
-1.54822e-30
-1.12126e-29
-7.61864e-29
-4.75472e-28
-2.65743e-27
-1.29479e-26
-5.35203e-26
-1.82836e-25
-5.05081e-25
-1.1021e-24
-1.67121e-24
-5.72112e-25
1.68471e-25
7.03823e-24
1.21228e-22
-2.18231e-58
-6.71093e-58
-2.86943e-57
-1.2707e-56
-5.80038e-56
-2.72867e-55
-1.32271e-54
-6.60578e-54
-3.39817e-53
-1.80018e-52
-9.81748e-52
-5.50962e-51
-3.18032e-50
-1.88711e-49
-1.15027e-48
-7.19677e-48
-4.61765e-47
-3.03538e-46
-2.04187e-45
-1.40387e-44
-9.85203e-44
-7.04656e-43
-5.12831e-42
-3.79081e-41
-2.84039e-40
-2.15245e-39
-1.64552e-38
-1.26555e-37
-9.76263e-37
-7.53116e-36
-5.79916e-35
-5.06672e-34
-4.22048e-33
-3.35839e-32
-2.56188e-31
-1.87714e-30
-1.31625e-29
-8.72041e-29
-5.33957e-28
-2.93607e-27
-1.40322e-26
-5.62207e-26
-1.8126e-25
-4.49243e-25
-8.14403e-25
-9.48633e-25
-1.84336e-25
6.24403e-25
5.35683e-24
1.98599e-22
-4.20935e-58
-1.29432e-57
-5.52284e-57
-2.44068e-56
-1.11166e-55
-5.21731e-55
-2.52271e-54
-1.25647e-53
-6.44475e-53
-3.40335e-52
-1.84971e-51
-1.03421e-50
-5.94553e-50
-3.51222e-49
-2.1304e-48
-1.32573e-47
-8.45561e-47
-5.52147e-46
-3.68687e-45
-2.51404e-44
-1.74808e-43
-1.23746e-42
-8.90287e-42
-6.49719e-41
-4.79964e-40
-3.58069e-39
-2.69072e-38
-2.03072e-37
-1.53435e-36
-1.15673e-35
-8.67979e-35
-7.35806e-34
-5.92085e-33
-4.52877e-32
-3.30651e-31
-2.31517e-30
-1.55583e-29
-9.95013e-29
-5.93372e-28
-3.2001e-27
-1.50327e-26
-5.88684e-26
-1.82002e-25
-4.12678e-25
-6.14091e-25
-4.80452e-25
7.84797e-26
2.04926e-24
1.09619e-23
4.5887e-22
-7.84195e-58
-2.41171e-57
-1.02715e-56
-4.53087e-56
-2.05965e-55
-9.64652e-55
-4.6541e-54
-2.31261e-53
-1.18322e-52
-6.2316e-52
-3.37707e-51
-1.88231e-50
-1.07848e-49
-6.34774e-49
-3.83507e-48
-2.37622e-47
-1.50839e-46
-9.79836e-46
-6.50504e-45
-4.40745e-44
-3.04294e-43
-2.13715e-42
-1.52412e-41
-1.10148e-40
-8.04933e-40
-5.93367e-39
-4.40042e-38
-3.27307e-37
-2.43346e-36
-1.80165e-35
-1.3242e-34
-1.09493e-33
-8.55196e-33
-6.30805e-32
-4.40854e-31
-2.9362e-30
-1.87314e-29
-1.14229e-28
-6.55854e-28
-3.44181e-27
-1.58441e-26
-6.07957e-26
-1.81864e-25
-3.82536e-25
-4.57465e-25
-1.81345e-25
1.04941e-24
7.14824e-24
2.83971e-23
1.02483e-21
-1.41237e-57
-4.34507e-57
-1.84736e-56
-8.13498e-56
-3.69143e-55
-1.72566e-54
-8.30922e-54
-4.12018e-53
-2.10337e-52
-1.10515e-51
-5.97404e-51
-3.32087e-50
-1.89725e-49
-1.11325e-48
-6.70354e-48
-4.13868e-47
-2.617e-46
-1.69283e-45
-1.1187e-44
-7.54162e-44
-5.17808e-43
-3.61464e-42
-2.56053e-41
-1.83683e-40
-1.3314e-39
-9.72681e-39
-7.14256e-38
-5.25529e-37
-3.86048e-36
-2.81981e-35
-2.04054e-34
-1.65538e-33
-1.26294e-32
-9.03991e-32
-6.07635e-31
-3.85309e-30
-2.32132e-29
-1.3346e-28
-7.27393e-28
-3.66843e-27
-1.64181e-26
-6.15646e-26
-1.78624e-25
-3.49829e-25
-3.12645e-25
0
4.08583e-24
2.2583e-23
7.27503e-23
2.29067e-21
-2.46176e-57
-7.57685e-57
-3.21602e-56
-1.4139e-55
-6.40513e-55
-2.98901e-54
-1.4366e-53
-7.10974e-53
-3.62219e-52
-1.8991e-51
-1.02426e-50
-5.6801e-50
-3.23688e-49
-1.89419e-48
-1.13734e-47
-7.00036e-47
-4.41207e-46
-2.844e-45
-1.87235e-44
-1.25709e-43
-8.59311e-43
-5.9698e-42
-4.20681e-41
-3.00066e-40
-2.16151e-39
-1.56849e-38
-1.14332e-37
-8.34504e-37
-6.07648e-36
-4.39513e-35
-3.14497e-34
-2.51631e-33
-1.88705e-32
-1.32035e-31
-8.60233e-31
-5.22635e-30
-2.97805e-29
-1.60412e-28
-8.18799e-28
-3.90597e-27
-1.67767e-26
-6.10052e-26
-1.7113e-25
-3.10579e-25
-1.78908e-25
1.03852e-25
1.19784e-23
5.87762e-23
1.60899e-22
5.65131e-21
-4.15732e-57
-1.28017e-56
-5.42481e-56
-2.38124e-55
-1.07698e-54
-5.01737e-54
-2.40727e-53
-1.1892e-52
-6.04705e-52
-3.16413e-51
-1.70299e-50
-9.42328e-50
-5.35761e-49
-3.12761e-48
-1.87314e-47
-1.14981e-46
-7.22619e-46
-4.64388e-45
-3.04751e-44
-2.03909e-43
-1.38878e-42
-9.61044e-42
-6.74394e-41
-4.78872e-40
-3.43287e-39
-2.47814e-38
-1.79635e-37
-1.30332e-36
-9.429e-36
-6.77183e-35
-4.80702e-34
-3.80877e-33
-2.82214e-32
-1.94315e-31
-1.23737e-30
-7.27016e-30
-3.94867e-29
-1.99588e-28
-9.46316e-28
-4.20138e-27
-1.70185e-26
-5.92219e-26
-1.59211e-25
-2.64165e-25
-6.82278e-26
5.76582e-25
2.8936e-23
1.25573e-22
3.12554e-22
1.48445e-20
-6.81028e-57
-2.09811e-56
-8.87628e-56
-3.89018e-55
-1.75662e-54
-8.17021e-54
-3.9133e-53
-1.92977e-52
-9.79497e-52
-5.1155e-51
-2.7478e-50
-1.51732e-49
-8.60819e-49
-5.01391e-48
-2.9958e-47
-1.83443e-46
-1.14992e-45
-7.36999e-45
-4.82281e-44
-3.21736e-43
-2.18441e-42
-1.50663e-41
-1.05356e-40
-7.45349e-40
-5.32232e-39
-3.82627e-38
-2.76152e-37
-1.99439e-36
-1.43586e-35
-1.02584e-34
-7.24018e-34
-5.69722e-33
-4.18669e-32
-2.85144e-31
-1.78746e-30
-1.02535e-29
-5.36668e-29
-2.5681e-28
-1.13172e-27
-4.6228e-27
-1.73164e-26
-5.65686e-26
-1.43451e-25
-2.11022e-25
-3.84483e-27
2.01232e-24
5.90146e-23
2.27521e-22
5.28068e-22
4.05936e-20
-1.0835e-56
-3.33948e-56
-1.41043e-55
-6.17165e-55
-2.78234e-54
-1.29196e-53
-6.17771e-53
-3.04114e-52
-1.54083e-51
-8.03224e-51
-4.30627e-50
-2.37319e-49
-1.3436e-48
-7.80924e-48
-4.65567e-47
-2.84428e-46
-1.77869e-45
-1.13717e-44
-7.42232e-44
-4.93828e-43
-3.34348e-42
-2.29938e-41
-1.60305e-40
-1.13052e-39
-8.04625e-39
-5.7648e-38
-4.14588e-37
-2.98319e-36
-2.13956e-35
-1.52249e-34
-1.06993e-33
-8.37708e-33
-6.12093e-32
-4.13859e-31
-2.56763e-30
-1.4494e-29
-7.39062e-29
-3.39063e-28
-1.40172e-27
-5.257e-27
-1.79077e-26
-5.35998e-26
-1.24965e-25
-1.5095e-25
7.31688e-28
5.11243e-24
1.01989e-22
3.59547e-22
9.11255e-22
1.41429e-19
-1.67624e-56
-5.16813e-56
-2.17897e-55
-9.51897e-55
-4.28433e-54
-1.98608e-53
-9.48054e-53
-4.65893e-52
-2.35629e-51
-1.22607e-50
-6.56083e-50
-3.60866e-49
-2.03899e-48
-1.18264e-47
-7.03562e-47
-4.28882e-46
-2.67597e-45
-1.70683e-44
-1.11137e-43
-7.37594e-43
-4.98115e-42
-3.41662e-41
-2.3755e-40
-1.6706e-39
-1.1856e-38
-8.46929e-38
-6.07251e-37
-4.35606e-36
-3.11436e-35
-2.209e-34
-1.54716e-33
-1.20673e-32
-8.78115e-32
-5.90821e-31
-3.64111e-30
-2.03432e-29
-1.01963e-28
-4.5415e-28
-1.78652e-27
-6.20418e-27
-1.90748e-26
-5.10158e-26
-1.05587e-25
-9.12927e-26
3.86171e-26
1.01453e-23
1.51233e-22
5.19733e-22
1.92585e-21
6.82672e-19
-2.52475e-56
-7.78592e-56
-3.27666e-55
-1.42899e-54
-6.42065e-54
-2.97127e-53
-1.41586e-52
-6.9455e-52
-3.50641e-51
-1.82115e-50
-9.72686e-50
-5.33975e-49
-3.01113e-48
-1.74296e-47
-1.03473e-46
-6.29413e-46
-3.91857e-45
-2.49379e-44
-1.62006e-43
-1.07267e-42
-7.22655e-42
-4.94458e-41
-3.42923e-40
-2.40547e-39
-1.70268e-38
-1.21309e-37
-8.67461e-37
-6.20585e-36
-4.42481e-35
-3.12987e-34
-2.18598e-33
-1.69969e-32
-1.23297e-31
-8.26726e-31
-5.07286e-30
-2.81613e-29
-1.39641e-28
-6.10111e-28
-2.31748e-27
-7.56982e-27
-2.112e-26
-4.95752e-26
-8.73666e-26
-4.06e-26
1.85387e-25
1.65684e-23
1.98485e-22
7.28553e-22
6.33318e-21
2.61202e-18
-3.70691e-56
-1.14321e-55
-4.80178e-55
-2.09033e-54
-9.37528e-54
-4.33076e-53
-2.05994e-52
-1.00866e-51
-5.08277e-51
-2.63493e-50
-1.40464e-49
-7.69609e-49
-4.33129e-48
-2.50204e-47
-1.48231e-46
-8.99768e-46
-5.58968e-45
-3.5495e-44
-2.30073e-43
-1.51989e-42
-1.02158e-41
-6.97348e-41
-4.82483e-40
-3.37629e-39
-2.38404e-38
-1.69437e-37
-1.20863e-36
-8.62526e-36
-6.13474e-35
-4.32872e-34
-3.01583e-33
-2.33859e-32
-1.6921e-31
-1.13165e-30
-6.92359e-30
-3.82835e-29
-1.88616e-28
-8.14434e-28
-3.02409e-27
-9.45412e-27
-2.4333e-26
-4.99958e-26
-7.20301e-26
-1.03079e-26
5.3557e-25
2.32694e-23
2.44046e-22
1.09888e-21
2.96257e-20
6.68319e-18
-5.31188e-56
-1.63793e-55
-6.86545e-55
-2.98294e-54
-1.33531e-53
-6.15655e-53
-2.92283e-52
-1.42845e-51
-7.18436e-51
-3.71722e-50
-1.97773e-49
-1.08146e-48
-6.07415e-48
-3.50169e-47
-2.07025e-46
-1.25401e-45
-7.77369e-45
-4.92565e-44
-3.1857e-43
-2.09981e-42
-1.40819e-41
-9.59063e-41
-6.62033e-40
-4.622e-39
-3.25607e-38
-2.30872e-37
-1.64302e-36
-1.16981e-35
-8.30111e-35
-5.84392e-34
-4.06217e-33
-3.14214e-32
-2.26838e-31
-1.51386e-30
-9.24249e-30
-5.09784e-29
-2.50225e-28
-1.07312e-27
-3.93022e-27
-1.19397e-26
-2.89567e-26
-5.28659e-26
-6.04881e-26
0
1.08375e-24
2.92608e-23
2.97842e-22
2.04583e-21
1.07625e-19
1.26751e-17
-7.43817e-56
-2.29268e-55
-9.58828e-55
-4.15733e-54
-1.85723e-53
-8.54551e-53
-4.04882e-52
-1.97478e-51
-9.91223e-51
-5.11833e-50
-2.71769e-49
-1.48307e-48
-8.31274e-48
-4.78229e-47
-2.82144e-46
-1.70539e-45
-1.05492e-44
-6.66981e-44
-4.30429e-43
-2.83085e-42
-1.8942e-41
-1.28718e-40
-8.86524e-40
-6.17529e-39
-4.34047e-38
-3.07066e-37
-2.18034e-36
-1.54889e-35
-1.09668e-34
-7.70357e-34
-5.34311e-33
-4.1231e-32
-2.97026e-31
-1.97855e-30
-1.20593e-29
-6.64041e-29
-3.25245e-28
-1.38968e-27
-5.05024e-27
-1.50787e-26
-3.51533e-26
-5.85849e-26
-5.31027e-26
2.5358e-28
1.70851e-24
3.44213e-23
3.72171e-22
4.4353e-21
2.65438e-19
1.90488e-17
-1.01908e-55
-3.13903e-55
-1.30958e-54
-5.66534e-54
-2.52532e-53
-1.15943e-52
-5.48151e-52
-2.66787e-51
-1.33628e-50
-6.88553e-50
-3.64832e-49
-1.98672e-48
-1.11122e-47
-6.37924e-47
-3.75554e-46
-2.26512e-45
-1.39811e-44
-8.82034e-44
-5.67958e-43
-3.72708e-42
-2.48835e-41
-1.68715e-40
-1.1594e-39
-8.05804e-39
-5.65117e-38
-3.98903e-37
-2.82617e-36
-2.00328e-35
-1.41532e-34
-9.92037e-34
-6.86585e-33
-5.28565e-32
-3.79984e-31
-2.52662e-30
-1.53768e-29
-8.45661e-29
-4.13682e-28
-1.76419e-27
-6.38542e-27
-1.88813e-26
-4.29746e-26
-6.73246e-26
-4.99784e-26
3.77248e-27
2.22419e-24
3.90225e-23
4.82843e-22
9.0751e-21
4.72086e-19
2.39529e-17
-1.36782e-55
-4.20905e-55
-1.75129e-54
-7.55766e-54
-3.36075e-53
-1.53936e-52
-7.26087e-52
-3.52582e-51
-1.76203e-50
-9.05905e-50
-4.78933e-49
-2.60231e-48
-1.45233e-47
-8.31909e-47
-4.88677e-46
-2.9409e-45
-1.81121e-44
-1.14011e-43
-7.32499e-43
-4.7961e-42
-3.19491e-41
-2.16136e-40
-1.48196e-39
-1.02769e-38
-7.19131e-38
-5.06496e-37
-3.58057e-36
-2.53249e-35
-1.78535e-34
-1.24871e-33
-8.62368e-33
-6.6231e-32
-4.75133e-31
-3.15362e-30
-1.91649e-29
-1.05284e-28
-5.14606e-28
-2.19258e-27
-7.92111e-27
-2.33064e-26
-5.23401e-26
-7.89991e-26
-5.10711e-26
1.20308e-26
2.57509e-24
4.34097e-23
6.38019e-22
1.53891e-20
6.59027e-19
2.61808e-17
-1.8009e-55
-5.5342e-55
-2.29592e-54
-9.88134e-54
-4.38254e-53
-2.00223e-52
-9.42047e-52
-4.56324e-51
-2.27496e-50
-1.16683e-49
-6.15423e-49
-3.33614e-48
-1.85757e-47
-1.06159e-46
-6.22168e-46
-3.73571e-45
-2.29547e-44
-1.44165e-43
-9.2413e-43
-6.03708e-42
-4.01248e-41
-2.70832e-40
-1.85281e-39
-1.28199e-38
-8.95077e-38
-6.29023e-37
-4.43698e-36
-3.13137e-35
-2.20276e-34
-1.53733e-33
-1.05938e-32
-8.1164e-32
-5.81003e-31
-3.84913e-30
-2.33567e-29
-1.28174e-28
-6.26056e-28
-2.66622e-27
-9.62519e-27
-2.82571e-26
-6.30258e-26
-9.32498e-26
-5.61459e-26
2.09099e-26
2.75472e-24
4.74153e-23
8.13272e-22
2.13987e-20
7.73001e-19
2.63828e-17
-2.32902e-55
-7.14441e-55
-2.95438e-54
-1.26777e-53
-5.6066e-53
-2.55429e-52
-1.1985e-51
-5.78995e-51
-2.87896e-50
-1.47283e-49
-7.74861e-49
-4.19001e-48
-2.3273e-47
-1.32682e-46
-7.75748e-46
-4.64679e-45
-2.84855e-44
-1.78481e-43
-1.14143e-42
-7.43934e-42
-4.93305e-41
-3.32203e-40
-2.26748e-39
-1.56535e-38
-1.09046e-37
-7.64624e-37
-5.38153e-36
-3.78963e-35
-2.65998e-34
-1.85236e-33
-1.27365e-32
-9.7336e-32
-6.95205e-31
-4.5967e-30
-2.78485e-29
-1.52645e-28
-7.45051e-28
-3.17195e-27
-1.14483e-26
-3.35815e-26
-7.46678e-26
-1.09455e-25
-6.46462e-26
2.22072e-26
2.77668e-24
5.00994e-23
9.64657e-22
2.5707e-20
8.09507e-19
2.60777e-17
-2.96252e-55
-9.06751e-55
-3.73632e-54
-1.59808e-53
-7.04507e-53
-3.19975e-52
-1.49686e-51
-7.21019e-51
-3.57495e-50
-1.82379e-49
-9.56896e-49
-5.16058e-48
-2.8589e-47
-1.6257e-46
-9.48093e-46
-5.66498e-45
-3.46416e-44
-2.16523e-43
-1.38138e-42
-8.98163e-42
-5.94163e-41
-3.99183e-40
-2.71832e-39
-1.87227e-38
-1.30129e-37
-9.10391e-37
-6.39308e-36
-4.49192e-35
-3.14592e-34
-2.18588e-33
-1.49956e-32
-1.14306e-31
-8.14495e-31
-5.37425e-30
-3.25027e-29
-1.77922e-28
-8.67696e-28
-3.6926e-27
-1.33259e-26
-3.90793e-26
-8.6781e-26
-1.26765e-25
-7.56343e-26
2.051e-26
2.74515e-24
5.05698e-23
1.07218e-21
2.82048e-20
8.0853e-19
2.48665e-17
-3.71153e-55
-1.13292e-54
-4.65002e-54
-1.98175e-53
-8.70604e-53
-3.94075e-52
-1.83743e-51
-8.82234e-51
-4.36066e-50
-2.21789e-49
-1.16023e-48
-6.23918e-48
-3.44672e-47
-1.95458e-46
-1.13683e-45
-6.77474e-45
-4.13203e-44
-2.57607e-43
-1.63935e-42
-1.06325e-41
-7.01647e-41
-4.70255e-40
-3.19465e-39
-2.19516e-38
-1.52216e-37
-1.06245e-36
-7.44388e-36
-5.21836e-35
-3.64641e-34
-2.52788e-33
-1.73015e-32
-1.3153e-31
-9.34928e-31
-6.15526e-30
-3.71558e-29
-2.0309e-28
-9.89401e-28
-4.20803e-27
-1.51822e-26
-4.4515e-26
-9.87922e-26
-1.44172e-25
-8.78998e-26
1.56314e-26
2.64462e-24
4.98798e-23
1.14791e-21
2.94202e-20
7.88624e-19
2.25033e-17
-4.58608e-55
-1.39536e-54
-5.70261e-54
-2.42075e-53
-1.05939e-52
-4.77742e-52
-2.21947e-51
-1.06192e-50
-5.23087e-50
-2.65167e-49
-1.38269e-48
-7.41219e-48
-4.08228e-47
-2.30815e-46
-1.33859e-45
-7.95469e-45
-4.83834e-44
-3.00828e-43
-1.90933e-42
-1.23514e-41
-8.12998e-41
-5.43518e-40
-3.68325e-39
-2.52475e-38
-1.74651e-37
-1.21617e-36
-8.50094e-36
-5.94555e-35
-4.14493e-34
-2.86677e-33
-1.95741e-32
-1.48394e-31
-1.05209e-30
-6.91031e-30
-4.16276e-29
-2.27147e-28
-1.10518e-27
-4.69641e-27
-1.69353e-26
-4.96348e-26
-1.10086e-25
-1.60591e-25
-1.0007e-25
8.98245e-27
2.4368e-24
4.7759e-23
1.22031e-21
3.01316e-20
7.36056e-19
1.96073e-17
-5.59648e-55
-1.69642e-54
-6.90045e-54
-2.91656e-53
-1.27101e-52
-5.70828e-52
-2.64137e-51
-1.2589e-50
-6.17789e-50
-3.12035e-49
-1.62134e-48
-8.66187e-48
-4.75476e-47
-2.67975e-46
-1.54927e-45
-9.17877e-45
-5.56644e-44
-3.45106e-43
-2.18422e-42
-1.4091e-41
-9.25024e-41
-6.16792e-40
-4.16908e-39
-2.85058e-38
-1.96703e-37
-1.3664e-36
-9.52804e-36
-6.648e-35
-4.62362e-34
-3.19018e-33
-2.17285e-32
-1.64253e-31
-1.16139e-30
-7.60911e-30
-4.57345e-29
-2.4908e-28
-1.21003e-27
-5.13594e-27
-1.85036e-26
-5.41867e-26
-1.20053e-25
-1.74961e-25
-1.10811e-25
3.16654e-27
2.11592e-24
4.51432e-23
1.32612e-21
3.09129e-20
6.58335e-19
1.66862e-17
-6.75371e-55
-2.0385e-54
-8.24966e-54
-3.47038e-53
-1.50542e-52
-6.73082e-52
-3.10094e-51
-1.47166e-50
-7.19227e-50
-3.61819e-49
-1.87275e-48
-9.96761e-48
-5.45175e-47
-3.06184e-46
-1.76418e-45
-1.04179e-44
-6.2979e-44
-3.89255e-43
-2.4563e-42
-1.58002e-41
-1.0343e-40
-6.87756e-40
-4.63627e-39
-3.16169e-38
-2.17611e-37
-1.50782e-36
-1.0488e-35
-7.2998e-35
-5.06448e-34
-3.48571e-33
-2.36809e-32
-1.78475e-31
-1.25838e-30
-8.22267e-30
-4.93024e-29
-2.67938e-28
-1.29929e-27
-5.50645e-27
-1.98125e-26
-5.79418e-26
-1.28148e-25
-1.86335e-25
-1.18941e-25
5.04154e-28
1.71694e-24
4.48659e-23
1.51963e-21
3.21686e-20
5.72504e-19
1.38422e-17
-8.06983e-55
-2.42422e-54
-9.75676e-54
-4.08345e-53
-1.76255e-52
-7.84209e-52
-3.59573e-51
-1.69857e-50
-8.26376e-50
-4.13902e-49
-2.13325e-48
-1.13075e-47
-6.16015e-47
-3.44648e-46
-1.9785e-45
-1.1642e-44
-7.01376e-44
-4.32064e-43
-2.71771e-42
-1.74275e-41
-1.1374e-40
-7.54105e-40
-5.06914e-39
-3.44736e-38
-2.36635e-37
-1.63532e-36
-1.13455e-35
-7.87641e-35
-5.45063e-34
-3.74187e-33
-2.53539e-32
-1.90488e-31
-1.3391e-30
-8.7254e-30
-5.21796e-29
-2.82903e-28
-1.36898e-27
-5.79103e-27
-2.07999e-26
-6.07123e-26
-1.33928e-25
-1.93965e-25
-1.23496e-25
3.84059e-28
1.26776e-24
4.64408e-23
1.87993e-21
3.44063e-20
4.88618e-19
1.1713e-17
-9.55824e-55
-2.85653e-54
-1.14292e-53
-4.75727e-53
-2.04241e-52
-9.03947e-52
-4.12338e-51
-1.938e-50
-9.38226e-50
-4.67676e-49
-2.39921e-48
-1.26602e-47
-6.86714e-47
-3.82597e-46
-2.18751e-45
-1.2822e-44
-7.69584e-44
-4.7238e-43
-2.96102e-42
-1.89245e-41
-1.23112e-40
-8.13704e-40
-5.45331e-39
-3.69781e-38
-2.53108e-37
-1.74433e-36
-1.2069e-35
-8.35638e-35
-5.76746e-34
-3.94882e-33
-2.66825e-32
-1.99819e-31
-1.40031e-30
-9.09695e-30
-5.42482e-29
-2.93351e-28
-1.41616e-27
-5.97728e-27
-2.14212e-26
-6.23668e-26
-1.37093e-25
-1.9735e-25
-1.23735e-25
-3.84854e-29
8.293e-25
5.3647e-23
2.49775e-21
3.81888e-20
4.07724e-19
1.12234e-17
-1.12339e-54
-3.33876e-54
-1.32758e-53
-5.49383e-53
-2.34518e-52
-1.03211e-51
-4.68192e-51
-2.18855e-50
-1.05387e-49
-5.22589e-49
-2.66735e-48
-1.40061e-47
-7.56111e-47
-4.19333e-46
-2.38698e-45
-1.39319e-44
-8.328e-44
-5.09185e-43
-3.17973e-42
-2.0249e-41
-1.31271e-40
-8.64737e-40
-5.77668e-39
-3.90492e-38
-2.66481e-37
-1.83114e-36
-1.26336e-35
-8.72277e-35
-6.00365e-34
-4.09909e-33
-2.76184e-32
-2.06124e-31
-1.43976e-30
-9.32358e-30
-5.54313e-29
-2.98894e-28
-1.43904e-27
-6.05813e-27
-2.16525e-26
-6.28392e-26
-1.37506e-25
-1.96271e-25
-1.19141e-25
-3.168e-30
6.07897e-25
7.34675e-23
3.43746e-21
4.39499e-20
3.55758e-19
1.16404e-17
-1.31133e-54
-3.87468e-54
-1.53067e-53
-6.29569e-53
-2.67132e-52
-1.16864e-51
-5.26999e-51
-2.4491e-50
-1.17258e-49
-5.78188e-49
-2.93495e-48
-1.53289e-47
-8.23241e-47
-4.54279e-46
-2.57344e-45
-1.49506e-44
-8.89715e-44
-5.41661e-43
-3.36869e-42
-2.13682e-41
-1.38006e-40
-9.05821e-40
-6.03018e-39
-4.06272e-38
-2.7636e-37
-1.89312e-36
-1.30218e-35
-8.96425e-35
-6.15186e-34
-4.18801e-33
-2.81326e-32
-2.09214e-31
-1.4563e-30
-9.39896e-30
-5.56981e-29
-2.994e-28
-1.43717e-27
-6.03227e-27
-2.14915e-26
-6.21318e-26
-1.35196e-25
-1.9079e-25
-1.09404e-25
0
6.43516e-25
1.12444e-22
4.69553e-21
5.2017e-20
3.56016e-19
1.37857e-17
-1.52143e-54
-4.46841e-54
-1.75335e-53
-7.16599e-53
-3.02154e-52
-1.3136e-51
-5.88691e-51
-2.71893e-50
-1.29383e-49
-6.34141e-49
-3.19997e-48
-1.66166e-47
-8.87387e-47
-4.8701e-46
-2.74435e-45
-1.58627e-44
-9.394e-44
-5.69239e-43
-3.52438e-42
-2.226e-41
-1.43177e-40
-9.36084e-40
-6.20829e-39
-4.16769e-38
-2.82522e-37
-1.9289e-36
-1.32252e-35
-9.07569e-35
-6.20911e-34
-4.21395e-33
-2.82173e-32
-2.09057e-31
-1.44992e-30
-9.32434e-30
-5.50638e-29
-2.94992e-28
-1.41133e-27
-5.90394e-27
-2.0957e-26
-6.03114e-26
-1.30346e-25
-1.8123e-25
-9.43952e-26
-4.94681e-43
1.03256e-24
1.75244e-22
6.18529e-21
6.27325e-20
3.86353e-19
1.96553e-17
-1.7556e-54
-5.12439e-54
-1.99688e-53
-8.10823e-53
-3.39675e-52
-1.46718e-51
-6.53266e-51
-2.9977e-50
-1.41733e-49
-6.90243e-49
-3.46115e-48
-1.78617e-47
-9.48107e-47
-5.17267e-46
-2.89819e-45
-1.66595e-44
-9.81343e-44
-5.9162e-43
-3.64503e-42
-2.29144e-41
-1.46727e-40
-9.55196e-40
-6.30921e-39
-4.21893e-38
-2.84929e-37
-1.93837e-36
-1.32441e-35
-9.05819e-35
-6.17675e-34
-4.17828e-33
-2.78848e-32
-2.05778e-31
-1.42168e-30
-9.10808e-30
-5.35865e-29
-2.86029e-28
-1.36347e-27
-5.68233e-27
-2.0086e-26
-5.75009e-26
-1.2327e-25
-1.68126e-25
-7.4072e-26
1.7908e-28
2.35534e-24
2.63294e-22
7.79118e-21
7.67541e-20
5.10928e-19
3.07756e-17
-2.01588e-54
-5.8473e-54
-2.26255e-53
-9.12613e-53
-3.79796e-52
-1.62962e-51
-7.20766e-51
-3.28537e-50
-1.54295e-49
-7.46405e-49
-3.71793e-48
-1.90609e-47
-1.00522e-46
-5.44955e-46
-3.03449e-45
-1.73386e-44
-1.01544e-43
-6.08769e-43
-3.73066e-42
-2.33326e-41
-1.48675e-40
-9.63358e-40
-6.33479e-39
-4.21805e-38
-2.83714e-37
-1.92261e-36
-1.30874e-35
-8.91869e-35
-6.0602e-34
-4.08514e-33
-2.71663e-32
-1.99637e-31
-1.37363e-30
-8.76468e-30
-5.13604e-29
-2.73064e-28
-1.29649e-27
-5.38063e-27
-1.89299e-26
-5.38659e-26
-1.14382e-25
-1.52221e-25
-5.08014e-26
1.13995e-26
5.22799e-24
3.757e-22
9.47805e-21
9.55257e-20
8.33907e-19
4.79226e-17
-2.30456e-54
-6.64213e-54
-2.55171e-53
-1.02234e-52
-4.22621e-52
-1.80119e-51
-7.9126e-51
-3.58207e-50
-1.67072e-49
-8.02631e-49
-3.97034e-48
-2.02146e-47
-1.05878e-46
-5.70125e-46
-3.15368e-45
-1.79035e-44
-1.04197e-43
-6.20897e-43
-3.78283e-42
-2.35268e-41
-1.4911e-40
-9.61245e-40
-6.29011e-39
-4.16886e-38
-2.79165e-37
-1.88378e-36
-1.27711e-35
-8.66915e-35
-5.86827e-34
-3.94096e-33
-2.6108e-32
-1.91008e-31
-1.30855e-30
-8.31342e-30
-4.85076e-29
-2.56795e-28
-1.21395e-27
-5.01484e-27
-1.75501e-26
-4.95997e-26
-1.04154e-25
-1.34394e-25