/*--------------------------------*- C++ -*----------------------------------*\
  =========                 |
  \\      /  F ield         | OpenFOAM: The Open Source CFD Toolbox
   \\    /   O peration     | Website:  https://openfoam.org
    \\  /    A nd           | Version:  9
     \\/     M anipulation  |
\*---------------------------------------------------------------------------*/
FoamFile
{
    format      ascii;
    class       surfaceScalarField;
    location    "0.17";
    object      alphaPhi0.water;
}
// * * * * * * * * * * * * * * * * * * * * * * * * * * * * * * * * * * * * * //

dimensions      [0 3 -1 0 0 0 0];

internalField   nonuniform List<scalar> 
9850
(
1.53404e-70
-1.90635e-70
7.43203e-70
-7.48622e-70
3.74704e-69
-3.80676e-69
1.96143e-68
-2.01417e-68
1.06624e-67
-1.10628e-67
6.02065e-67
-6.3091e-67
3.5322e-66
-3.73688e-66
2.15357e-65
-2.2993e-65
1.36481e-64
-1.47001e-64
8.99197e-64
-9.76695e-64
6.15963e-63
-6.74484e-63
4.38716e-62
-4.84158e-62
3.2487e-61
-3.61246e-61
2.5006e-60
-2.80134e-60
1.99999e-59
-2.2572e-59
1.66118e-58
-1.889e-58
1.43177e-57
-1.64092e-57
1.27925e-56
-1.47834e-56
1.18337e-55
-1.37984e-55
1.13175e-54
-1.33257e-54
1.11729e-53
-1.32959e-53
1.13681e-52
-1.36839e-52
1.19047e-51
-1.45036e-51
1.2819e-50
-1.58083e-50
1.41922e-49
-1.77018e-49
1.61768e-48
-2.03609e-48
1.90486e-47
-2.40858e-47
2.3314e-46
-2.9399e-46
2.99183e-45
-3.72468e-45
4.06515e-44
-4.93988e-44
6.78227e-43
-8.07657e-43
1.14789e-41
-1.31809e-41
1.95031e-40
-2.17812e-40
3.27116e-39
-3.60627e-39
5.3138e-38
-5.88285e-38
8.20691e-37
-9.27688e-37
1.18494e-35
-1.38846e-35
1.57473e-34
-1.93977e-34
1.89731e-33
-2.4913e-33
2.03928e-32
-2.89793e-32
1.91813e-31
-3.00449e-31
1.53856e-30
-2.72335e-30
1.01172e-29
-2.10267e-29
5.09116e-29
-1.32896e-28
1.69843e-28
-6.41683e-28
2.50367e-28
-2.05044e-27
1.68163e-30
-2.89155e-27
-1.34346e-27
-1.85776e-29
-6.76967e-27
9.85827e-27
3.86573e-25
5.10884e-70
-6.47368e-70
2.45334e-69
-2.51688e-69
1.22589e-68
-1.26861e-68
6.35845e-68
-6.65256e-68
3.42406e-67
-3.62061e-67
1.9148e-66
-2.0455e-66
1.11221e-65
-1.1999e-65
6.71149e-65
-7.30979e-65
4.20812e-64
-4.62553e-64
2.74186e-63
-3.04069e-63
1.85657e-62
-2.07671e-62
1.3064e-61
-1.47359e-61
9.55181e-61
-1.0863e-60
7.25482e-60
-8.31804e-60
5.72163e-59
-6.61389e-59
4.68279e-58
-5.45829e-58
3.97399e-57
-4.67239e-57
3.49327e-56
-4.14502e-56
3.17659e-55
-3.80666e-55
2.98372e-54
-3.6142e-54
2.88992e-53
-3.54204e-53
2.88114e-52
-3.57696e-52
2.95131e-51
-3.71529e-51
3.10138e-50
-3.96183e-50
3.33973e-49
-4.33025e-49
3.68475e-48
-4.84554e-48
4.17097e-47
-5.54965e-47
4.86174e-46
-6.5135e-46
5.87458e-45
-7.86149e-45
7.43138e-44
-9.82086e-44
1.14437e-42
-1.4955e-42
1.78697e-41
-2.25389e-41
2.82112e-40
-3.43832e-40
4.44719e-39
-5.29299e-39
6.86983e-38
-8.12089e-38
1.0185e-36
-1.21877e-36
1.42051e-35
-1.7526e-35
1.82986e-34
-2.36764e-34
2.13968e-33
-2.95095e-33
2.23115e-32
-3.33576e-32
2.03291e-31
-3.36011e-31
1.57613e-30
-2.95518e-30
9.99451e-30
-2.20939e-29
4.84241e-29
-1.34928e-28
1.55786e-28
-6.2865e-28
2.23225e-28
-1.94199e-27
-2.53176e-29
-2.66958e-27
-5.92736e-28
2.85835e-28
-7.74996e-27
1.11248e-26
4.28599e-25
1.59851e-69
-2.06903e-69
7.60287e-69
-7.95462e-69
3.76227e-68
-3.97117e-68
1.93211e-67
-2.06236e-67
1.02993e-66
-1.11135e-66
5.69995e-66
-6.2153e-66
3.27573e-65
-3.60827e-65
1.9552e-64
-2.17492e-64
1.21221e-63
-1.36133e-63
7.80735e-63
-8.84931e-63
5.22359e-62
-5.97444e-62
3.63031e-61
-4.18907e-61
2.6203e-60
-3.05015e-60
1.96361e-59
-2.30576e-59
1.52707e-58
-1.809e-58
1.23164e-57
-1.47224e-57
1.02933e-56
-1.24203e-56
8.90444e-56
-1.08519e-55
7.9628e-55
-9.80867e-55
7.34947e-54
-9.1591e-54
6.98889e-53
-8.82142e-53
6.83406e-52
-8.74742e-52
6.85785e-51
-8.91287e-51
7.04807e-50
-9.31218e-50
7.40567e-49
-9.95626e-49
7.94583e-48
-1.08733e-47
8.70355e-47
-1.21135e-46
9.74691e-46
-1.37616e-45
1.12052e-44
-1.59631e-44
1.33273e-43
-1.89795e-43
1.90561e-42
-2.71854e-42
2.74336e-41
-3.80644e-41
3.9953e-40
-5.3567e-40
5.85766e-39
-7.61217e-39
8.51826e-38
-1.08705e-37
1.20303e-36
-1.5371e-36
1.61306e-35
-2.10761e-35
2.0094e-34
-2.74017e-34
2.27906e-33
-3.30667e-33
2.30718e-32
-3.63052e-32
2.03971e-31
-3.55575e-31
1.53217e-30
-3.03939e-30
9.3978e-30
-2.20567e-29
4.40184e-29
-1.30561e-28
1.37399e-28
-5.89417e-28
1.945e-28
-1.77112e-27
-3.56358e-29
-2.4122e-27
-2.52462e-28
3.57099e-28
-3.79794e-27
1.06505e-26
4.06271e-25
4.74559e-69
-6.28533e-69
2.23362e-68
-2.38667e-68
1.09367e-67
-1.17912e-67
5.55604e-67
-6.05925e-67
2.92912e-66
-3.23007e-66
1.60285e-65
-1.78661e-65
9.10588e-65
-1.02558e-64
5.37145e-64
-6.11111e-64
3.29042e-63
-3.78042e-63
2.09327e-62
-2.42813e-62
1.38295e-61
-1.6193e-61
9.48732e-61
-1.1212e-60
6.75687e-60
-8.05881e-60
4.99412e-59
-6.01149e-59
3.82882e-58
-4.65204e-58
3.04274e-57
-3.73263e-57
2.50422e-56
-3.10297e-56
2.13208e-55
-2.67008e-55
1.8753e-54
-2.37547e-54
1.7013e-53
-2.18195e-53
1.58907e-52
-2.06587e-52
1.52503e-51
-2.01241e-51
1.50054e-50
-2.01274e-50
1.51033e-49
-2.06233e-49
1.55171e-48
-2.15991e-48
1.62416e-47
-2.30698e-47
1.72961e-46
-2.50792e-46
1.87356e-45
-2.77082e-45
2.06786e-44
-3.10993e-44
2.33726e-43
-3.55131e-43
3.13436e-42
-4.83609e-42
4.1833e-41
-6.35442e-41
5.61163e-40
-8.29567e-40
7.5918e-39
-1.08661e-38
1.02821e-37
-1.43297e-37
1.36967e-36
-1.88878e-36
1.75279e-35
-2.44516e-35
2.10232e-34
-3.03754e-34
2.30828e-33
-3.53375e-33
2.26804e-32
-3.76119e-32
1.9473e-31
-3.58097e-31
1.41962e-30
-2.97781e-30
8.44085e-30
-2.10125e-29
3.83046e-29
-1.20824e-28
1.16128e-28
-5.29688e-28
1.61699e-28
-1.5499e-27
-3.55498e-29
-2.08239e-27
-1.54833e-28
3.57618e-28
-1.84308e-27
1.03059e-26
3.96033e-25
1.3488e-68
-1.8309e-68
6.27763e-68
-6.85932e-68
3.03892e-67
-3.35111e-67
1.52586e-66
-1.70258e-66
7.94827e-66
-8.97071e-66
4.29632e-65
-4.9028e-65
2.41034e-64
-2.78013e-64
1.40376e-63
-1.63599e-63
8.48765e-63
-9.99216e-63
5.32829e-62
-6.33495e-62
3.4728e-61
-4.1691e-61
2.34968e-60
-2.84792e-60
1.64995e-59
-2.01898e-59
1.20199e-58
-1.485e-58
9.07964e-58
-1.13275e-57
7.10652e-57
-8.95562e-57
5.75791e-56
-7.33298e-56
4.82383e-55
-6.21248e-55
4.17287e-54
-5.43912e-54
3.72123e-53
-4.91417e-53
3.41457e-52
-4.57408e-52
3.21723e-51
-4.3779e-51
3.10557e-50
-4.29949e-50
3.06391e-49
-4.32276e-49
3.08197e-48
-4.43853e-48
3.15337e-47
-4.64267e-47
3.27508e-46
-4.93498e-46
3.44794e-45
-5.31918e-45
3.67906e-44
-5.80446e-44
3.98898e-43
-6.41061e-43
5.0729e-42
-8.37806e-42
6.33983e-41
-1.04458e-40
7.87273e-40
-1.27778e-39
9.80414e-39
-1.55051e-38
1.22606e-37
-1.88374e-37
1.52372e-36
-2.2947e-36
1.84313e-35
-2.77431e-35
2.11414e-34
-3.26143e-34
2.23847e-33
-3.6332e-33
2.13144e-32
-3.7345e-32
1.77735e-31
-3.45114e-31
1.2589e-30
-2.79217e-30
7.26764e-30
-1.91795e-29
3.1999e-29
-1.07305e-28
9.41854e-29
-4.57493e-28
1.27937e-28
-1.30305e-27
-2.8541e-29
-1.71286e-27
-5.13167e-29
2.68338e-28
-1.50068e-27
8.10904e-27
3.05657e-25
3.69957e-68
-5.15295e-68
1.70184e-67
-1.90349e-67
8.14026e-67
-9.1916e-67
4.03688e-66
-4.61443e-66
2.07609e-65
-2.40139e-65
1.10751e-64
-1.29579e-64
6.12995e-64
-7.2518e-64
3.52093e-63
-4.21019e-63
2.09899e-62
-2.53619e-62
1.29881e-61
-1.5854e-61
8.34177e-61
-1.02847e-60
5.56028e-60
-6.92341e-60
3.84554e-59
-4.83565e-59
2.75851e-58
-3.50328e-58
2.05121e-57
-2.63145e-57
1.57996e-56
-2.04813e-56
1.2594e-55
-1.65053e-55
1.03767e-54
-1.37582e-54
8.82489e-54
-1.18477e-53
7.73378e-53
-1.05248e-52
6.97074e-52
-9.62841e-52
6.44831e-51
-9.05352e-51
6.10777e-50
-8.73098e-50
5.90891e-49
-8.61524e-49
5.82363e-48
-8.67624e-48
5.83182e-47
-8.89415e-47
5.91899e-46
-9.25572e-46
6.07553e-45
-9.75231e-45
6.2983e-44
-1.03797e-43
6.5985e-43
-1.11421e-42
8.03714e-42
-1.40771e-41
9.51354e-41
-1.68209e-40
1.10453e-39
-1.95023e-39
1.27169e-38
-2.21423e-38
1.46341e-37
-2.48917e-37
1.68084e-36
-2.79285e-36
1.90043e-35
-3.12393e-35
2.06491e-34
-3.43667e-34
2.09488e-33
-3.63133e-33
1.9264e-32
-3.58169e-32
1.55828e-31
-3.20174e-31
1.07266e-30
-2.51733e-30
6.01918e-30
-1.68378e-29
2.57431e-29
-9.17636e-29
7.35409e-29
-3.80923e-28
9.67526e-29
-1.05577e-27
-1.94964e-29
-1.34805e-27
-3.54763e-29
1.83037e-28
-1.03053e-27
5.39432e-27
2.0135e-25
9.85372e-68
-1.40903e-67
4.47999e-67
-5.13222e-67
2.11703e-66
-2.44943e-66
1.03663e-65
-1.21489e-65
5.2611e-65
-6.24286e-65
2.76826e-64
-3.32445e-64
1.51053e-63
-1.83515e-63
8.54959e-63
-1.0504e-62
5.02029e-62
-6.23544e-62
3.05864e-61
-3.83948e-61
1.93355e-60
-2.45249e-60
1.26815e-59
-1.62506e-59
8.62752e-59
-1.11687e-58
6.08624e-58
-7.95983e-58
4.4497e-57
-5.88029e-57
3.36913e-56
-4.50029e-56
2.63936e-55
-3.56529e-55
2.13679e-54
-2.92101e-54
1.78517e-53
-2.47184e-53
1.53646e-52
-2.15734e-52
1.35968e-51
-1.93854e-51
1.23448e-50
-1.78992e-50
1.14717e-49
-1.69447e-49
1.08831e-48
-1.64071e-48
1.05122e-47
-1.62068e-47
1.03094e-46
-1.62868e-46
1.0237e-45
-1.66036e-45
1.02652e-44
-1.71214e-44
1.03724e-43
-1.7809e-43
1.05545e-42
-1.86417e-42
1.24091e-41
-2.28867e-41
1.40593e-40
-2.64146e-40
1.54443e-39
-2.93342e-39
1.66037e-38
-3.1537e-38
1.76466e-37
-3.3133e-37
1.86483e-36
-3.43674e-36
1.95052e-35
-3.54067e-35
1.98438e-34
-3.6077e-34
1.91073e-33
-3.5741e-33
1.68644e-32
-3.35082e-32
1.31918e-31
-2.8797e-31
8.81683e-31
-2.19339e-30
4.81097e-30
-1.42727e-29
2.00043e-29
-7.58003e-29
5.5464e-29
-3.06642e-28
7.02588e-29
-8.27016e-28
-1.22502e-29
-1.01966e-27
-2.26872e-29
1.1989e-28
-6.38123e-28
3.50031e-27
1.41166e-25
2.55833e-67
-3.75486e-67
1.15017e-66
-1.3496e-66
5.37181e-66
-6.36951e-66
2.59794e-65
-3.12246e-65
1.30135e-64
-1.58477e-64
6.75366e-64
-8.32966e-64
3.63234e-63
-4.53531e-63
2.0251e-62
-2.55876e-62
1.17061e-61
-1.49624e-61
7.01693e-61
-9.06993e-61
4.36196e-60
-5.70024e-60
2.81193e-59
-3.71436e-59
1.87954e-58
-2.50928e-58
1.30225e-57
-1.75714e-57
9.34825e-57
-1.275e-56
6.94818e-56
-9.58164e-56
5.34228e-55
-7.4522e-55
4.24422e-54
-5.9929e-54
3.47913e-53
-4.97716e-53
2.93772e-52
-4.26271e-52
2.55013e-51
-3.75838e-51
2.27075e-50
-3.40457e-50
2.06906e-49
-3.16155e-49
1.92413e-48
-3.00225e-48
1.82115e-47
-2.90769e-47
1.74927e-46
-2.86402e-46
1.70018e-45
-2.86052e-45
1.66725e-44
-2.88823e-44
1.64528e-43
-2.93911e-43
1.63154e-42
-3.00594e-42
1.86184e-41
-3.5983e-41
2.03604e-40
-4.0336e-40
2.14017e-39
-4.32673e-39
2.17554e-38
-4.45464e-38
2.15697e-37
-4.42917e-37
2.10342e-36
-4.28999e-36
2.02375e-35
-4.08297e-35
1.9059e-34
-3.83153e-34
1.72055e-33
-3.51857e-33
1.44351e-32
-3.09738e-32
1.0853e-31
-2.53448e-31
7.02218e-31
-1.85882e-30
3.72301e-30
-1.17327e-29
1.50556e-29
-6.06738e-29
4.0517e-29
-2.39275e-28
4.91477e-29
-6.27991e-28
-7.86582e-30
-7.43539e-28
-1.74091e-29
8.16477e-29
-4.25435e-28
2.55447e-27
1.16958e-25
6.48311e-67
-9.75795e-67
2.88507e-66
-3.46584e-66
1.333e-65
-1.61915e-65
6.37273e-65
-7.85251e-65
3.15306e-64
-3.93982e-64
1.61497e-63
-2.04545e-63
8.5653e-63
-1.09918e-62
4.70517e-62
-6.11554e-62
2.67769e-61
-3.52365e-61
1.57896e-60
-2.10296e-60
9.64848e-60
-1.30022e-59
6.10984e-59
-8.32877e-59
4.00912e-58
-5.52737e-58
2.72535e-57
-3.79993e-57
1.9186e-56
-2.70545e-56
1.39793e-55
-1.99401e-55
1.05337e-54
-1.52045e-54
8.19989e-54
-1.19841e-53
6.58543e-53
-9.75331e-53
5.4475e-52
-8.18489e-52
4.63242e-51
-7.07071e-51
4.04069e-50
-6.27556e-50
3.60638e-49
-5.70967e-49
3.2847e-48
-5.31203e-48
3.04437e-47
-5.03998e-47
2.8628e-46
-4.86255e-46
2.7231e-45
-4.75611e-45
2.61217e-44
-4.70143e-44
2.5198e-43
-4.68189e-43
2.43983e-42
-4.68282e-42
2.71199e-41
-5.47627e-41
2.87961e-40
-5.98359e-40
2.92275e-39
-6.2367e-39
2.84366e-38
-6.20529e-38
2.66542e-37
-5.9106e-37
2.42311e-36
-5.41767e-36
2.14928e-35
-4.81215e-35
1.86057e-34
-4.16833e-34
1.55471e-33
-3.52336e-33
1.22366e-32
-2.87528e-32
8.75421e-32
-2.21081e-31
5.4501e-31
-1.54565e-30
2.79968e-30
-9.40572e-30
1.10026e-29
-4.72288e-29
2.87295e-29
-1.81427e-28
3.31639e-29
-4.63191e-28
-5.44333e-30
-5.23351e-28
-1.64879e-29
5.92152e-29
-3.21833e-28
2.08676e-27
1.02243e-25
1.60227e-66
-2.46996e-66
7.06718e-66
-8.68493e-66
3.23454e-65
-4.02157e-65
1.53061e-64
-1.93206e-64
7.48982e-64
-9.59527e-64
3.79076e-63
-4.92698e-63
1.98485e-62
-2.61634e-62
1.07541e-61
-1.43713e-61
6.03048e-61
-8.16739e-61
3.50052e-60
-4.80322e-60
2.1036e-59
-2.92351e-59
1.30877e-58
-1.84177e-58
8.42983e-58
-1.20095e-57
5.62028e-57
-8.10485e-57
3.87753e-56
-5.65986e-56
2.767e-55
-4.08849e-55
2.04091e-54
-3.05349e-54
1.55453e-53
-2.3561e-53
1.22126e-52
-1.87645e-52
9.8808e-52
-1.54058e-51
8.21775e-51
-1.30187e-50
7.01062e-50
-1.13026e-49
6.11991e-49
-1.00594e-48
5.45198e-48
-9.15563e-48
4.9424e-47
-8.4986e-47
4.5456e-46
-8.02208e-46
4.22843e-45
-7.67667e-45
3.96606e-44
-7.42375e-44
3.73984e-43
-7.23161e-43
3.5383e-42
-7.07381e-42
3.83814e-41
-8.08739e-41
3.9717e-40
-8.62948e-40
3.91757e-39
-8.77244e-39
3.68432e-38
-8.4893e-38
3.30816e-37
-7.8234e-37
2.84382e-36
-6.87637e-36
2.34982e-35
-5.78206e-35
1.87246e-34
-4.67151e-34
1.43576e-33
-3.63979e-33
1.04481e-32
-2.72973e-32
7.01059e-32
-1.94381e-31
4.15523e-31
-1.2769e-30
2.05544e-30
-7.41209e-30
7.82827e-30
-3.59158e-29
1.98031e-29
-1.34017e-28
2.15603e-29
-3.3231e-28
-3.9858e-30
-3.55093e-28
-1.05611e-29
4.355e-29
-2.57372e-28
1.7336e-27
8.74742e-26
3.85385e-66
-6.07602e-66
1.68719e-65
-2.11911e-65
7.66069e-65
-9.73984e-65
3.59375e-64
-4.64222e-64
1.74197e-63
-2.28561e-63
8.72602e-63
-1.16259e-62
4.51798e-62
-6.11042e-62
2.41821e-61
-3.31904e-61
1.33822e-60
-1.86345e-60
7.65764e-60
-1.08153e-59
4.53135e-59
-6.4896e-59
2.7729e-58
-4.02598e-58
1.75466e-57
-2.58221e-57
1.148e-56
-1.71216e-56
7.76395e-56
-1.1734e-55
5.42552e-55
-8.30962e-55
3.91539e-54
-6.07797e-54
2.91571e-53
-4.589e-53
2.23818e-52
-3.57359e-52
1.76866e-51
-2.86715e-51
1.43637e-50
-2.3668e-50
1.19642e-49
-2.0068e-49
1.01975e-48
-1.7442e-48
8.87046e-48
-1.55033e-47
7.85255e-47
-1.40552e-46
7.05306e-46
-1.29593e-45
6.4077e-45
-1.21149e-44
5.87e-44
-1.14464e-43
5.40636e-43
-1.08948e-42
4.99622e-42
-1.04139e-41
5.2911e-41
-1.16358e-40
5.34526e-40
-1.213e-39
5.14341e-39
-1.20475e-38
4.70792e-38
-1.13831e-37
4.09305e-37
-1.02194e-36
3.37498e-36
-8.70606e-36
2.6377e-35
-7.02983e-35
1.95555e-34
-5.37878e-34
1.37656e-33
-3.90449e-33
9.16269e-33
-2.69229e-32
5.6703e-32
-1.75648e-31
3.14889e-31
-1.06608e-30
1.48317e-30
-5.80935e-30
5.44016e-30
-2.68602e-29
1.32818e-29
-9.67458e-29
1.34299e-29
-2.32093e-28
-2.8995e-30
-2.30949e-28
-4.98939e-30
3.13951e-29
-1.99632e-28
1.37302e-27
6.75549e-26
8.99803e-66
-1.44902e-65
3.91526e-65
-5.02161e-65
1.76614e-64
-2.29403e-64
8.22623e-64
-1.08629e-63
3.95634e-63
-5.31045e-63
1.9649e-62
-2.6802e-62
1.00781e-61
-1.39668e-61
5.33883e-61
-7.51561e-61
2.92125e-60
-4.1764e-60
1.65106e-59
-2.3968e-59
9.63891e-59
-1.42055e-58
5.81218e-58
-8.69488e-58
3.61952e-57
-5.4956e-57
2.32748e-56
-3.58631e-56
1.54501e-55
-2.41583e-55
1.05834e-54
-1.67935e-54
7.47741e-54
-1.20419e-53
5.44516e-53
-8.90205e-53
4.08332e-52
-6.77979e-52
3.14959e-51
-5.3146e-51
2.49514e-50
-4.2829e-50
2.02652e-49
-3.54301e-49
1.6838e-48
-3.00321e-48
1.42769e-47
-2.6028e-47
1.23195e-46
-2.30067e-46
1.07864e-45
-2.06831e-45
9.55347e-45
-1.88546e-44
8.53311e-44
-1.73734e-43
7.66409e-43
-1.61298e-42
6.90899e-42
-1.50426e-41
7.13681e-41
-1.64043e-40
7.03853e-40
-1.66923e-39
6.6167e-39
-1.61975e-38
5.9172e-38
-1.49644e-37
5.01719e-37
-1.3138e-36
4.01389e-36
-1.09269e-35
3.013e-35
-8.57029e-35
2.11228e-34
-6.30603e-34
1.38e-33
-4.33455e-33
8.39475e-33
-2.77813e-32
4.72708e-32
-1.65914e-31
2.41148e-31
-9.17916e-31
1.06245e-30
-4.60377e-30
3.70892e-30
-1.99521e-29
8.67011e-30
-6.85489e-29
7.90365e-30
-1.57838e-28
-1.96662e-30
-1.41963e-28
-3.27695e-30
2.09021e-29
-1.35694e-28
9.50856e-28
4.60259e-26
2.03445e-65
-3.34282e-65
8.80869e-65
-1.15289e-64
3.95264e-64
-5.24089e-64
1.83044e-63
-2.46876e-63
8.74778e-63
-1.19997e-62
4.31439e-62
-6.01823e-62
2.19599e-61
-3.11451e-61
1.15353e-60
-1.66319e-60
6.25329e-60
-9.16492e-60
3.49819e-59
-5.21113e-59
2.01926e-58
-3.05717e-58
1.20251e-57
-1.85027e-57
7.38662e-57
-1.15504e-56
4.67892e-56
-7.43538e-56
3.0552e-55
-4.93422e-55
2.05564e-54
-3.37427e-54
1.4244e-53
-2.37675e-53
1.01581e-52
-1.7234e-52
7.44949e-52
-1.28553e-51
5.61204e-51
-9.85611e-51
4.33743e-50
-7.75874e-50
3.43374e-49
-6.26283e-49
2.77898e-48
-5.17543e-48
2.29407e-47
-4.36997e-47
1.92667e-46
-3.76164e-46
1.64157e-45
-3.29237e-45
1.41474e-44
-2.92162e-44
1.22957e-43
-2.62053e-43
1.07466e-42
-2.36837e-42
9.43004e-42
-2.1504e-41
9.4817e-41
-2.28391e-40
9.11386e-40
-2.26378e-39
8.3642e-39
-2.14264e-38
7.3149e-38
-1.93418e-37
6.07086e-37
-1.6622e-36
4.74735e-36
-1.35456e-35
3.46414e-35
-1.03964e-34
2.33423e-34
-7.44558e-34
1.44002e-33
-4.92578e-33
8.09436e-33
-2.98556e-32
4.13548e-32
-1.65024e-31
1.9044e-31
-8.29823e-31
7.66521e-31
-3.76406e-30
2.49702e-30
-1.49333e-29
5.51204e-30
-4.79821e-29
4.3335e-30
-1.04575e-28
-1.27562e-30
-8.13217e-29
-2.01236e-30
1.31521e-29
-8.60319e-29
6.76968e-28
3.37117e-26
4.44616e-65
-7.44814e-65
1.91738e-64
-2.55955e-64
8.56727e-64
-1.15893e-63
3.94912e-63
-5.43629e-63
1.87775e-62
-2.63026e-62
9.20953e-62
-1.31253e-61
4.65887e-61
-6.75497e-61
2.43074e-60
-3.58531e-60
1.30788e-59
-1.9624e-59
7.25614e-59
-1.10754e-58
4.15021e-58
-6.44424e-58
2.44653e-57
-3.86479e-57
1.48597e-56
-2.38836e-56
9.29574e-56
-1.52033e-55
5.98648e-55
-9.96463e-55
3.96683e-54
-6.72128e-54
2.70288e-53
-4.66297e-53
1.89238e-52
-3.32512e-52
1.36024e-51
-2.43533e-51
1.00279e-50
-1.83034e-50
7.57282e-50
-1.4102e-49
5.84963e-49
-1.11243e-48
4.61382e-48
-8.97158e-48
3.70817e-47
-7.38434e-47
3.02964e-46
-6.19014e-46
2.50959e-45
-5.27221e-45
2.10165e-44
-4.55e-44
1.77421e-43
-3.9672e-43
1.5058e-42
-3.48418e-42
1.28294e-41
-3.07343e-41
1.25199e-40
-3.17118e-40
1.16934e-39
-3.05291e-39
1.04481e-38
-2.80995e-38
8.92005e-38
-2.4717e-37
7.24724e-37
-2.07556e-36
5.55714e-36
-1.65754e-35
3.97117e-35
-1.24888e-34
2.60438e-34
-8.76991e-34
1.5436e-33
-5.65453e-33
8.16561e-33
-3.29757e-32
3.82577e-32
-1.7181e-31
1.57995e-31
-7.93639e-31
5.6728e-31
-3.2344e-30
1.67597e-30
-1.14696e-29
3.41674e-30
-3.34944e-29
2.19662e-30
-6.75723e-29
-8.89074e-31
-4.3075e-29
-1.38097e-30
8.54321e-30
-6.24393e-29
5.86546e-28
2.83469e-26
9.38059e-65
-1.60128e-64
4.03206e-64
-5.48835e-64
1.79543e-63
-2.47698e-63
8.2452e-63
-1.15796e-62
3.90451e-62
-5.5819e-62
1.90646e-61
-2.77419e-61
9.5971e-61
-1.42144e-60
4.98027e-60
-7.50789e-60
2.66376e-59
-4.08746e-59
1.46816e-58
-2.29329e-58
8.33619e-58
-1.32566e-57
4.87448e-57
-7.893e-57
2.93409e-56
-4.83864e-56
1.81714e-55
-3.05266e-55
1.15723e-54
-1.98096e-54
7.57321e-54
-1.32144e-53
5.08914e-53
-9.05499e-53
3.50869e-52
-6.36882e-52
2.47951e-51
-4.59388e-51
1.79407e-50
-3.39489e-50
1.32747e-49
-2.56757e-49
1.00301e-48
-1.98484e-48
7.72592e-48
-1.56609e-47
6.05513e-47
-1.25913e-46
4.81787e-46
-1.02955e-45
3.88199e-45
-8.54215e-45
3.15888e-44
-7.1733e-44
2.58861e-43
-6.07968e-43
2.1306e-42
-5.18531e-42
1.75891e-41
-4.43797e-41
1.661e-40
-4.43942e-40
1.50175e-39
-4.13875e-39
1.30075e-38
-3.69049e-38
1.07951e-37
-3.14959e-37
8.55907e-37
-2.57341e-36
6.42987e-36
-2.00761e-35
4.51157e-35
-1.48361e-34
2.90087e-34
-1.02421e-33
1.67349e-33
-6.48319e-33
8.48615e-33
-3.68539e-32
3.717e-32
-1.84355e-31
1.38876e-31
-7.97472e-31
4.38496e-31
-2.94568e-30
1.13512e-30
-9.20388e-30
2.06238e-30
-2.35998e-29
1.0172e-30
-4.25259e-29
-7.37468e-31
-2.08463e-29
-1.078e-30
7.72018e-30
-5.53718e-29
5.67397e-28
2.56814e-26
1.90951e-64
-3.32058e-64
8.1852e-64
-1.13595e-63
3.63443e-63
-5.11286e-63
1.66394e-62
-2.38351e-62
7.85339e-62
-1.14549e-61
3.82072e-61
-5.67438e-61
1.91576e-60
-2.89704e-60
9.89859e-60
-1.52422e-59
5.26926e-59
-8.26269e-59
2.88904e-58
-4.61406e-58
1.63093e-57
-2.65341e-57
9.47575e-57
-1.57082e-56
5.6633e-56
-9.56871e-56
3.47972e-55
-5.99446e-55
2.19654e-54
-3.8596e-54
1.42335e-53
-2.5522e-53
9.45982e-53
-1.73185e-52
6.44204e-52
-1.20485e-51
4.49018e-51
-8.58516e-51
3.19948e-50
-6.25852e-50
2.32752e-49
-4.66205e-49
1.72606e-48
-3.54392e-48
1.30268e-47
-2.74502e-47
9.98623e-47
-2.16288e-46
7.75896e-46
-1.73026e-45
6.09501e-45
-1.40227e-44
4.8277e-44
-1.14843e-43
3.84473e-43
-9.47807e-43
3.07012e-42
-7.8595e-42
2.45452e-41
-6.52939e-41
2.23889e-40
-6.32884e-40
1.95298e-39
-5.70328e-39
1.63178e-38
-4.91045e-38
1.30854e-37
-4.04609e-37
1.0063e-36
-3.19734e-36
7.37123e-36
-2.42184e-35
5.06856e-35
-1.74707e-34
3.20202e-34
-1.18338e-33
1.81128e-33
-7.36951e-33
8.92623e-33
-4.11362e-32
3.72784e-32
-2.00291e-31
1.28487e-31
-8.27466e-31
3.57553e-31
-2.82462e-30
7.84719e-31
-7.79319e-30
1.19503e-30
-1.69758e-29
4.10155e-31
-2.56949e-29
-8.85119e-31
-8.785e-30
-9.33486e-31
1.28624e-29
-4.77359e-29
6.22331e-28
4.28712e-26
3.75001e-64
-6.64262e-64
1.60368e-63
-2.26923e-63
7.10363e-63
-1.01901e-62
3.24386e-62
-4.73922e-62
1.52678e-61
-2.27185e-61
7.40565e-61
-1.12233e-60
3.70125e-60
-5.71312e-60
1.90566e-59
-2.99621e-59
1.01053e-58
-1.61858e-58
5.51721e-58
-9.00415e-58
3.10021e-57
-5.15652e-57
1.79208e-56
-3.03875e-56
1.06505e-55
-1.84178e-55
6.50335e-55
-1.14742e-54
4.07683e-54
-7.34246e-54
2.62145e-53
-4.82217e-53
1.72728e-52
-3.24734e-52
1.16496e-51
-2.24001e-51
8.03251e-51
-1.58096e-50
5.65472e-50
-1.14026e-49
4.0584e-49
-8.39306e-49
2.96475e-48
-6.29554e-48
2.2006e-47
-4.80453e-47
1.65637e-46
-3.724e-46
1.26146e-45
-2.92587e-45
9.69614e-45
-2.32496e-44
7.50127e-44
-1.86376e-43
5.82347e-43
-1.50295e-42
4.52304e-42
-1.21543e-41
3.50809e-41
-9.82609e-41
3.09242e-40
-9.24491e-40
2.5991e-39
-8.05715e-39
2.08708e-38
-6.68933e-38
1.60705e-37
-5.30177e-37
1.1891e-36
-4.02668e-36
8.4242e-36
-2.93759e-35
5.64134e-35
-2.0518e-34
3.49199e-34
-1.35513e-33
1.9406e-33
-8.2797e-33
9.36616e-33
-4.54687e-32
3.78501e-32
-2.17146e-31
1.22899e-31
-8.69485e-31
3.0625e-31
-2.80094e-30
5.57268e-31
-6.93278e-30
6.50488e-31
-1.25456e-29
1.26436e-31
-1.45855e-29
-1.5816e-30
-2.83027e-30
-1.4661e-30
2.92561e-29
-4.30283e-28
1.19156e-27
9.40412e-26
7.10726e-64
-1.28248e-63
3.0331e-63
-4.37671e-63
1.34073e-62
-1.96138e-62
6.10882e-62
-9.1033e-62
2.8684e-61
-4.35437e-61
1.38777e-60
-2.14611e-60
6.91692e-60
-1.08972e-59
3.5508e-59
-5.6996e-59
1.87689e-58
-3.07002e-58
1.02118e-57
-1.70249e-57
5.71657e-57
-9.71661e-57
3.29087e-56
-5.70478e-56
1.94698e-55
-3.44366e-55
1.18297e-54
-2.13587e-54
7.3753e-54
-1.36011e-53
4.71374e-53
-8.88454e-53
3.08505e-52
-5.94743e-52
2.06513e-51
-4.07543e-51
1.41204e-50
-2.85521e-50
9.84774e-50
-2.0424e-49
6.99405e-49
-1.48953e-48
5.04988e-48
-1.10583e-47
3.69981e-47
-8.34276e-47
2.74489e-46
-6.38428e-46
2.05739e-45
-4.94536e-45
1.55393e-44
-3.86871e-44
1.17926e-43
-3.04843e-43
8.96311e-43
-2.41235e-42
6.79996e-42
-1.91082e-41
5.13669e-41
-1.50966e-40
4.39025e-40
-1.38414e-39
3.56172e-39
-1.17045e-38
2.74685e-38
-9.38731e-38
2.02253e-37
-7.15173e-37
1.42866e-36
-5.19885e-36
9.68969e-36
-3.6244e-35
6.25633e-35
-2.42619e-34
3.76684e-34
-1.54683e-33
2.05022e-33
-9.20449e-33
9.71122e-33
-4.95745e-32
3.82946e-32
-2.32696e-31
1.19026e-31
-9.10638e-31
2.70842e-31
-2.81282e-30
4.03748e-31
-6.36899e-30
3.15893e-31
-9.45984e-30
-1.28409e-31
-7.38646e-30
-2.70385e-31
5.32086e-30
-3.26148e-30
7.94104e-29
-1.09699e-27
2.62861e-27
2.18561e-25
1.3008e-63
-2.39152e-63
5.54083e-63
-8.15529e-63
2.44464e-62
-3.64796e-62
1.11166e-61
-1.69001e-61
5.20886e-61
-8.06815e-61
2.5145e-60
-3.96832e-60
1.25029e-59
-2.01058e-59
6.40206e-59
-1.04915e-58
3.37479e-58
-5.637e-58
1.83077e-57
-3.11764e-57
1.02162e-56
-1.77421e-56
5.86107e-56
-1.03843e-55
3.45473e-55
-6.24743e-55
2.09059e-54
-3.86078e-54
1.29765e-53
-2.4488e-53
8.25359e-53
-1.59271e-52
5.37311e-52
-1.06113e-51
3.57566e-51
-7.23351e-51
2.42898e-50
-5.0386e-50
1.68177e-49
-3.58129e-49
1.18484e-48
-2.59341e-48
8.4784e-48
-1.91021e-47
6.15006e-47
-1.42854e-46
4.5125e-46
-1.08258e-45
3.3411e-45
-8.2957e-45
2.48961e-44
-6.41254e-44
1.86133e-43
-4.98671e-43
1.39149e-42
-3.88919e-42
1.03623e-41
-3.03133e-41
7.66307e-41
-2.352e-40
6.38371e-40
-2.11224e-39
5.02298e-39
-1.74218e-38
3.73256e-38
-1.35626e-37
2.62835e-37
-9.96436e-37
1.76429e-36
-6.93365e-36
1.13473e-35
-4.59806e-35
6.97805e-35
-2.92196e-34
4.03991e-34
-1.77636e-33
2.13665e-33
-1.01769e-32
9.90285e-33
-5.33335e-32
3.82018e-32
-2.45309e-31
1.1469e-31
-9.40589e-31
2.4166e-31
-2.81089e-30
2.8896e-31
-5.90377e-30
1.14322e-31
-7.04651e-30
-8.53646e-31
-2.78754e-30
-1.47113e-30
3.0411e-29
-8.32733e-30
2.3617e-28
-2.40506e-27
5.88674e-27
5.06963e-25
2.30103e-63
-4.31135e-63
9.78416e-63
-1.46933e-62
4.30935e-62
-6.56113e-62
1.95605e-61
-3.03447e-61
9.14792e-61
-1.4461e-60
4.40715e-60
-7.09939e-60
2.18672e-59
-3.58988e-59
1.11717e-58
-1.86934e-58
5.87488e-58
-1.00216e-57
3.17887e-57
-5.52959e-57
1.76904e-56
-3.13893e-56
1.01193e-55
-1.83228e-55
5.94591e-55
-1.09918e-54
3.58592e-54
-6.77182e-54
2.21768e-53
-4.281e-53
1.40494e-52
-2.77445e-52
9.10683e-52
-1.84132e-51
6.03185e-51
-1.24992e-50
4.0764e-50
-8.6666e-50
2.80642e-49
-6.12907e-49
1.96484e-48
-4.41394e-48
1.39632e-47
-3.23143e-47
1.00516e-46
-2.40046e-46
7.31343e-46
-1.80571e-45
5.36498e-45
-1.37245e-44
3.95711e-44
-1.05142e-43
2.92543e-43
-8.09609e-43
2.15991e-42
-6.24603e-42
1.58611e-41
-4.81012e-41
1.1542e-40
-3.68206e-40
9.42667e-40
-3.25564e-39
7.23968e-39
-2.63455e-38
5.21619e-38
-2.00338e-37
3.52955e-37
-1.42832e-36
2.25351e-36
-9.55917e-36
1.36731e-35
-6.0355e-35
7.91806e-35
-3.62208e-34
4.34607e-34
-2.07599e-33
2.20596e-33
-1.12898e-32
9.92534e-33
-5.6857e-32
3.73586e-32
-2.54233e-31
1.08603e-31
-9.52557e-31
2.12694e-31
-2.7608e-30
1.89716e-31
-5.39859e-30
-2.68244e-34
-4.81505e-30
-2.89759e-30
1.4984e-32
-5.35015e-30
1.02535e-28
-2.12808e-29
6.58073e-28
-5.08036e-27
1.30928e-26
1.16572e-24
3.938e-63
-7.52193e-63
1.67164e-62
-2.56222e-62
7.3505e-62
-1.14224e-61
3.33077e-61
-5.27428e-61
1.55493e-60
-2.50931e-60
7.47714e-60
-1.22976e-59
3.70269e-59
-6.20706e-59
1.88775e-58
-3.22597e-58
9.90553e-58
-1.72597e-57
5.34747e-57
-9.503e-57
2.96859e-56
-5.38233e-56
1.69369e-55
-3.13433e-55
9.92439e-55
-1.87552e-54
5.96773e-54
-1.15237e-53
3.67912e-53
-7.26425e-53
2.32297e-52
-4.6935e-52
1.50032e-51
-3.10479e-51
9.89866e-51
-2.10021e-50
6.66154e-50
-1.45075e-49
4.56528e-49
-1.02181e-48
3.18041e-48
-7.32628e-48
2.24795e-47
-5.33788e-47
1.60868e-46
-3.94456e-46
1.16291e-45
-2.95039e-45
8.47095e-45
-2.22861e-44
6.20016e-44
-1.69581e-43
4.54534e-43
-1.29623e-42
3.3251e-42
-9.92039e-42
2.41677e-41
-7.57284e-41
1.73806e-40
-5.74031e-40
1.39903e-39
-5.01878e-39
1.05532e-38
-4.00555e-38
7.42658e-38
-2.99399e-37
4.8665e-37
-2.0866e-36
2.97411e-36
-1.35359e-35
1.70498e-35
-8.18839e-35
9.23988e-35
-4.64785e-34
4.74386e-34
-2.49576e-33
2.27453e-33
-1.27109e-32
9.80735e-33
-6.05474e-32
3.57425e-32
-2.59808e-31
1.00297e-31
-9.43914e-31
1.81718e-31
-2.64482e-30
1.04291e-31
-4.7922e-30
-1.41109e-31
-2.75477e-30
-1.34429e-30
3.97011e-30
-1.47793e-29
2.78899e-28
-4.85653e-29
1.55258e-27
-1.0488e-26
2.7931e-26
2.60264e-24
6.52744e-63
-1.27149e-62
2.76623e-62
-4.32912e-62
1.21442e-61
-1.92678e-61
5.4939e-61
-8.88302e-61
2.56039e-60
-4.21943e-60
1.22901e-59
-2.06441e-59
6.07482e-59
-1.04017e-58
3.09113e-58
-5.39626e-58
1.6187e-57
-2.88165e-57
8.71981e-57
-1.58346e-56
4.82984e-56
-8.94977e-56
2.74909e-55
-5.20039e-55
1.60685e-54
-3.10466e-54
9.63688e-54
-1.90298e-53
5.92465e-53
-1.19653e-52
3.72978e-52
-7.71009e-52
2.4014e-51
-5.08579e-51
1.57911e-50
-3.42987e-50
1.05893e-49
-2.36164e-49
7.22954e-49
-1.6577e-48
5.01598e-48
-1.18423e-47
3.52982e-47
-8.59455e-47
2.51411e-46
-6.32459e-46
1.80823e-45
-4.70931e-45
1.30995e-44
-3.54007e-44
9.53154e-44
-2.67979e-43
6.94326e-43
-2.03697e-42
5.0444e-42
-1.54964e-41
3.63875e-41
-1.17532e-40
2.59462e-40
-8.84608e-40
2.06676e-39
-7.67249e-39
1.53919e-38
-6.064e-38
1.06502e-37
-4.47838e-37
6.8151e-37
-3.07135e-36
4.02407e-36
-1.94734e-35
2.19662e-35
-1.13926e-34
1.11583e-34
-6.16379e-34
5.31493e-34
-3.10581e-33
2.36862e-33
-1.46924e-32
9.61824e-33
-6.51326e-32
3.34954e-32
-2.63559e-31
8.99376e-32
-9.16281e-31
1.48732e-31
-2.46031e-30
3.82083e-32
-4.07524e-30
-5.20237e-31
-1.05027e-30
-3.59834e-30
1.79105e-29
-3.22265e-29
6.30612e-28
-9.57323e-29
3.08193e-27
-1.99939e-26
5.5681e-26
5.45992e-24
1.04913e-62
-2.08489e-62
4.43864e-62
-7.09517e-62
1.94554e-61
-3.15272e-61
8.78709e-61
-1.45124e-60
4.08829e-60
-6.88246e-60
1.95903e-59
-3.36182e-59
9.66578e-59
-1.69103e-58
4.90919e-58
-8.75744e-58
2.56575e-57
-4.66804e-57
1.37935e-56
-2.56022e-56
7.62395e-56
-1.44419e-55
4.32986e-55
-8.37442e-55
2.52496e-54
-4.98885e-54
1.51064e-53
-3.05101e-53
9.2637e-53
-1.91388e-52
5.8163e-52
-1.23023e-51
3.73433e-51
-8.09414e-51
2.44839e-50
-5.44403e-50
1.63677e-49
-3.73792e-49
1.1138e-48
-2.61596e-48
7.70091e-48
-1.86294e-47
5.39933e-47
-1.34757e-46
3.83066e-46
-9.88201e-46
2.7437e-45
-7.33106e-45
1.9789e-44
-5.48941e-44
1.43317e-43
-4.13831e-43
1.03882e-42
-3.13195e-42
7.50736e-42
-2.37173e-41
5.38458e-41
-1.79008e-40
3.8154e-40
-1.34028e-39
3.01617e-39
-1.15578e-38
2.2261e-38
-9.07193e-38
1.5224e-37
-6.64465e-37
9.58178e-37
-4.50761e-36
5.51854e-36
-2.81346e-35
2.90004e-35
-1.60697e-34
1.39314e-34
-8.3784e-34
6.16034e-34
-3.99671e-33
2.52264e-33
-1.75726e-32
9.45994e-33
-7.16685e-32
3.0882e-32
-2.68167e-31
7.80985e-32
-8.75143e-31
1.14328e-31
-2.21638e-30
2.0686e-33
-3.25461e-30
-1.43164e-30
-5.91672e-32
-7.97887e-30
5.16615e-29
-5.81574e-29
1.20342e-27
-1.64676e-28
5.29315e-27
-3.49852e-26
1.02482e-25
1.05969e-23
1.637e-62
-3.32019e-62
6.91404e-62
-1.12932e-61
3.02567e-61
-5.0097e-61
1.36431e-60
-2.30241e-60
6.33698e-60
-1.09016e-59
3.03133e-59
-5.31634e-59
1.493e-58
-2.66969e-58
7.56899e-58
-1.38018e-57
3.94838e-57
-7.34376e-57
2.11849e-56
-4.02031e-56
1.16854e-55
-2.26348e-55
6.62245e-55
-1.30993e-54
3.85338e-54
-7.78756e-54
2.30014e-53
-4.75248e-53
1.40716e-52
-2.97462e-52
8.8131e-52
-1.90769e-51
5.64382e-51
-1.25215e-50
3.6904e-50
-8.40101e-50
2.46015e-49
-5.75338e-49
1.66919e-48
-4.01572e-48
1.15056e-47
-2.85183e-47
8.04107e-47
-2.05691e-46
5.68571e-46
-1.50382e-45
4.05802e-45
-1.11211e-44
2.91605e-44
-8.30007e-44
2.10372e-43
-6.23584e-43
1.5187e-42
-4.7027e-42
1.0929e-41
-3.54813e-41
7.80369e-41
-2.66775e-40
5.50292e-40
-1.98942e-39
4.32545e-39
-1.70819e-38
3.17188e-38
-1.33407e-37
2.15178e-37
-9.71553e-37
1.33923e-36
-6.54305e-36
7.58323e-36
-4.04187e-35
3.87848e-35
-2.2718e-34
1.78435e-34
-1.15392e-33
7.39332e-34
-5.27722e-33
2.77625e-33
-2.17659e-32
9.45501e-33
-8.15e-32
2.82408e-32
-2.77304e-31
6.55661e-32
-8.29096e-31
7.86962e-32
-1.93036e-30
-2.56499e-32
-2.32745e-30
-6.2878e-31
5.87887e-31
-1.44863e-29