/*--------------------------------*- C++ -*----------------------------------*\
  =========                 |
  \\      /  F ield         | OpenFOAM: The Open Source CFD Toolbox
   \\    /   O peration     | Website:  https://openfoam.org
    \\  /    A nd           | Version:  9
     \\/     M anipulation  |
\*---------------------------------------------------------------------------*/
FoamFile
{
    format      ascii;
    class       volVectorField;
    location    "0.17";
    object      U;
}
// * * * * * * * * * * * * * * * * * * * * * * * * * * * * * * * * * * * * * //

dimensions      [0 1 -1 0 0 0 0];

internalField   nonuniform List<vector> 
5000
(
(-0.10609 0 0.00561991)
(-0.106174 0 0.00849921)
(-0.106219 0 0.0108996)
(-0.106308 0 0.0132239)
(-0.106423 0 0.015486)
(-0.106564 0 0.0177285)
(-0.106733 0 0.0199831)
(-0.106932 0 0.0222606)
(-0.107163 0 0.0245528)
(-0.107428 0 0.0268359)
(-0.107732 0 0.0290732)
(-0.108077 0 0.0312176)
(-0.108467 0 0.0332133)
(-0.108906 0 0.0349984)
(-0.109398 0 0.0365071)
(-0.109949 0 0.0376735)
(-0.110565 0 0.0384359)
(-0.111251 0 0.0387422)
(-0.112016 0 0.0385561)
(-0.112871 0 0.0378647)
(-0.113827 0 0.036686)
(-0.114898 0 0.0350743)
(-0.116103 0 0.03312)
(-0.117461 0 0.0309401)
(-0.118997 0 0.0286543)
(-0.120733 0 0.0263466)
(-0.122696 0 0.0240176)
(-0.124906 0 0.0215412)
(-0.127388 0 0.0186426)
(-0.130155 0 0.0149047)
(-0.133509 0 0.00932427)
(-0.137452 0 0.00119849)
(-0.141682 0 -0.0093111)
(-0.146242 0 -0.0220752)
(-0.151222 0 -0.0364647)
(-0.156734 0 -0.0513871)
(-0.1629 0 -0.0654607)
(-0.169812 0 -0.0773616)
(-0.177513 0 -0.0862416)
(-0.185984 0 -0.0920296)
(-0.19517 0 -0.0954588)
(-0.205007 0 -0.0978171)
(-0.21547 0 -0.100541)
(-0.226605 0 -0.10475)
(-0.23855 0 -0.110722)
(-0.251542 0 -0.117376)
(-0.265837 0 -0.122056)
(-0.281602 0 -0.121041)
(-0.29882 0 -0.110788)
(-0.317117 0 -0.0891884)
(-0.104471 0 0.00572763)
(-0.104556 0 0.00867072)
(-0.104601 0 0.0111284)
(-0.10469 0 0.0135098)
(-0.104804 0 0.0158267)
(-0.104943 0 0.0181217)
(-0.105108 0 0.0204274)
(-0.105303 0 0.0227554)
(-0.105528 0 0.0250981)
(-0.105788 0 0.027432)
(-0.106084 0 0.0297207)
(-0.106421 0 0.0319172)
(-0.106801 0 0.0339657)
(-0.10723 0 0.0358045)
(-0.10771 0 0.0373682)
(-0.108247 0 0.0385912)
(-0.108847 0 0.0394126)
(-0.109516 0 0.039781)
(-0.110262 0 0.0396614)
(-0.111095 0 0.0390424)
(-0.112025 0 0.0379434)
(-0.113068 0 0.0364204)
(-0.11424 0 0.0345651)
(-0.115562 0 0.032495)
(-0.117054 0 0.0303292)
(-0.11874 0 0.0281496)
(-0.120643 0 0.0259539)
(-0.122784 0 0.0236126)
(-0.125185 0 0.0208487)
(-0.127859 0 0.0172452)
(-0.131095 0 0.0118143)
(-0.134894 0 0.00386007)
(-0.138964 0 -0.00645197)
(-0.143346 0 -0.0189699)
(-0.148127 0 -0.0330442)
(-0.153412 0 -0.0475733)
(-0.159312 0 -0.0611856)
(-0.165908 0 -0.0725867)
(-0.173229 0 -0.0809682)
(-0.181248 0 -0.0862923)
(-0.1899 0 -0.0893048)
(-0.19912 0 -0.0912796)
(-0.208879 0 -0.0936128)
(-0.21921 0 -0.0973638)
(-0.230235 0 -0.102751)
(-0.242152 0 -0.108662)
(-0.255161 0 -0.112479)
(-0.269344 0 -0.11061)
(-0.284629 0 -0.0996513)
(-0.300531 0 -0.0776083)
(-0.102768 0 0.00583688)
(-0.102854 0 0.00884383)
(-0.102898 0 0.0113575)
(-0.102987 0 0.0137942)
(-0.1031 0 0.0161636)
(-0.103236 0 0.0185089)
(-0.103399 0 0.0208634)
(-0.10359 0 0.0232399)
(-0.10381 0 0.0256312)
(-0.104064 0 0.0280141)
(-0.104353 0 0.0303523)
(-0.104681 0 0.032599)
(-0.105052 0 0.0346984)
(-0.105469 0 0.036589)
(-0.105937 0 0.0382056)
(-0.10646 0 0.0394832)
(-0.107043 0 0.0403612)
(-0.107694 0 0.0407893)
(-0.10842 0 0.0407335)
(-0.109229 0 0.0401838)
(-0.110133 0 0.0391613)
(-0.111146 0 0.0377235)
(-0.112284 0 0.0359635)
(-0.113566 0 0.0339993)
(-0.115012 0 0.0319494)
(-0.116645 0 0.0298939)
(-0.118486 0 0.0278275)
(-0.120555 0 0.0256175)
(-0.122872 0 0.0229846)
(-0.125449 0 0.0195112)
(-0.128561 0 0.0142242)
(-0.132209 0 0.00643274)
(-0.136109 0 -0.00369423)
(-0.140302 0 -0.0159839)
(-0.144872 0 -0.0297676)
(-0.149916 0 -0.0439349)
(-0.155538 0 -0.057123)
(-0.161805 0 -0.0680651)
(-0.168736 0 -0.0759902)
(-0.176294 0 -0.0808929)
(-0.184405 0 -0.0835329)
(-0.193 0 -0.0851734)
(-0.202041 0 -0.0871753)
(-0.211555 0 -0.0905449)
(-0.221646 0 -0.0954462)
(-0.232481 0 -0.100744)
(-0.244213 0 -0.103863)
(-0.256848 0 -0.101345)
(-0.270244 0 -0.0899498)
(-0.28389 0 -0.0677473)
(-0.100989 0 0.00594557)
(-0.101076 0 0.00901611)
(-0.101119 0 0.0115848)
(-0.101206 0 0.0140754)
(-0.101317 0 0.0164958)
(-0.101451 0 0.0188895)
(-0.101611 0 0.0212911)
(-0.101797 0 0.0237142)
(-0.102013 0 0.0261522)
(-0.10226 0 0.0285823)
(-0.102542 0 0.0309683)
(-0.102862 0 0.0332634)
(-0.103223 0 0.0354121)
(-0.103628 0 0.0373528)
(-0.104083 0 0.0390206)
(-0.104591 0 0.0403508)
(-0.105158 0 0.0412835)
(-0.10579 0 0.0417691)
(-0.106494 0 0.0417746)
(-0.107279 0 0.0412914)
(-0.108156 0 0.0403421)
(-0.109137 0 0.0389858)
(-0.110238 0 0.0373166)
(-0.111478 0 0.0354532)
(-0.112876 0 0.0335135)
(-0.114452 0 0.0315757)
(-0.116228 0 0.029632)
(-0.118221 0 0.0275467)
(-0.12045 0 0.0250381)
(-0.122925 0 0.0216885)
(-0.125909 0 0.0165389)
(-0.129401 0 0.00890251)
(-0.133126 0 -0.00104855)
(-0.137126 0 -0.0131226)
(-0.141478 0 -0.026634)
(-0.146273 0 -0.0404658)
(-0.151605 0 -0.0532652)
(-0.157531 0 -0.0637921)
(-0.164059 0 -0.0713099)
(-0.171144 0 -0.0758417)
(-0.178708 0 -0.0781584)
(-0.186674 0 -0.0795126)
(-0.195 0 -0.0812354)
(-0.203703 0 -0.0842887)
(-0.212868 0 -0.088794)
(-0.222632 0 -0.0936051)
(-0.233111 0 -0.0961938)
(-0.244254 0 -0.0932198)
(-0.25583 0 -0.0816266)
(-0.267353 0 -0.0595562)
(-0.0991411 0 0.00605146)
(-0.0992269 0 0.00918465)
(-0.0992674 0 0.0118076)
(-0.0993528 0 0.0143512)
(-0.0994608 0 0.0168214)
(-0.0995919 0 0.0192621)
(-0.0997476 0 0.0217093)
(-0.0999294 0 0.0241773)
(-0.10014 0 0.0266604)
(-0.10038 0 0.029136)
(-0.100655 0 0.0315681)
(-0.100966 0 0.03391)
(-0.101316 0 0.0361062)
(-0.101711 0 0.0380953)
(-0.102152 0 0.0398126)
(-0.102645 0 0.0411937)
(-0.103195 0 0.0421794)
(-0.103807 0 0.0427206)
(-0.104489 0 0.0427854)
(-0.105249 0 0.0423665)
(-0.106096 0 0.0414878)
(-0.107045 0 0.0402098)
(-0.108108 0 0.0386277)
(-0.109305 0 0.0368604)
(-0.110652 0 0.0350251)
(-0.11217 0 0.0331984)
(-0.113878 0 0.0313694)
(-0.115791 0 0.0293997)
(-0.117928 0 0.0270053)
(-0.120298 0 0.0237688)
(-0.12315 0 0.0187444)
(-0.126479 0 0.0112504)
(-0.130026 0 0.00146318)
(-0.133826 0 -0.0104074)
(-0.137954 0 -0.0236609)
(-0.142494 0 -0.0371763)
(-0.14753 0 -0.0496135)
(-0.153109 0 -0.0597608)
(-0.159228 0 -0.066916)
(-0.165836 0 -0.0711292)
(-0.172849 0 -0.0731797)
(-0.180187 0 -0.0743074)
(-0.187803 0 -0.0758124)
(-0.195707 0 -0.0786157)
(-0.203966 0 -0.0828035)
(-0.212687 0 -0.0872306)
(-0.22195 0 -0.0894283)
(-0.23167 0 -0.0861674)
(-0.241533 0 -0.0745609)
(-0.251069 0 -0.0528787)
(-0.0972247 0 0.00615309)
(-0.097309 0 0.00934742)
(-0.0973467 0 0.0120238)
(-0.0974296 0 0.0146195)
(-0.0975345 0 0.0171385)
(-0.0976621 0 0.0196253)
(-0.0978136 0 0.0221168)
(-0.0979906 0 0.0246284)
(-0.0981949 0 0.027155)
(-0.098429 0 0.0296744)
(-0.0986955 0 0.0321509)
(-0.0989973 0 0.0345377)
(-0.0993374 0 0.0367797)
(-0.0997195 0 0.0388153)
(-0.100147 0 0.0405801)
(-0.100625 0 0.0420101)
(-0.101157 0 0.0430464)
(-0.101749 0 0.0436408)
(-0.102408 0 0.0437624)
(-0.103141 0 0.0434049)
(-0.103959 0 0.0425937)
(-0.104874 0 0.0413904)
(-0.105899 0 0.0398913)
(-0.10705 0 0.0382157)
(-0.108346 0 0.0364799)
(-0.109803 0 0.0347585)
(-0.111441 0 0.033038)
(-0.113273 0 0.0311769)
(-0.115316 0 0.0288892)
(-0.117576 0 0.0257574)
(-0.120292 0 0.0208479)
(-0.123456 0 0.0134838)
(-0.126818 0 0.00384629)
(-0.130414 0 -0.00783734)
(-0.134314 0 -0.0208528)
(-0.138595 0 -0.0340763)
(-0.14333 0 -0.0461814)
(-0.148559 0 -0.0559846)
(-0.154268 0 -0.062818)
(-0.160399 0 -0.0667576)
(-0.166864 0 -0.0685912)
(-0.173582 0 -0.0695458)
(-0.1805 0 -0.0708917)
(-0.187621 0 -0.0735112)
(-0.195 0 -0.0774594)
(-0.202716 0 -0.081597)
(-0.210815 0 -0.0835254)
(-0.219187 0 -0.0801291)
(-0.227465 0 -0.0686685)
(-0.235182 0 -0.0475615)
(-0.0952415 0 0.00624993)
(-0.0953243 0 0.00950371)
(-0.0953593 0 0.0122324)
(-0.0954394 0 0.0148795)
(-0.0955413 0 0.0174466)
(-0.0956652 0 0.0199784)
(-0.0958124 0 0.022513)
(-0.0959843 0 0.0250667)
(-0.0961827 0 0.0276353)
(-0.0964098 0 0.030197)
(-0.0966681 0 0.0327162)
(-0.0969605 0 0.0351463)
(-0.0972898 0 0.0374321)
(-0.0976594 0 0.0395123)
(-0.0980729 0 0.0413227)
(-0.0985343 0 0.0427994)
(-0.0990481 0 0.0438842)
(-0.0996196 0 0.0445294)
(-0.100255 0 0.044705)
(-0.100962 0 0.0444059)
(-0.10175 0 0.0436587)
(-0.102629 0 0.0425264)
(-0.103614 0 0.0411061)
(-0.104719 0 0.0395172)
(-0.105961 0 0.0378752)
(-0.107357 0 0.036253)
(-0.108923 0 0.0346343)
(-0.110672 0 0.0328747)
(-0.112618 0 0.0306862)
(-0.114768 0 0.027651)
(-0.117346 0 0.022847)
(-0.120341 0 0.0156012)
(-0.123516 0 0.00610041)
(-0.126905 0 -0.00541188)
(-0.130573 0 -0.0182087)
(-0.134592 0 -0.031165)
(-0.139025 0 -0.0429686)
(-0.143902 0 -0.0524641)
(-0.149203 0 -0.0590164)
(-0.154861 0 -0.0627262)
(-0.160787 0 -0.0643887)
(-0.166896 0 -0.0652186)
(-0.173135 0 -0.0664575)
(-0.179497 0 -0.0689526)
(-0.186027 0 -0.0727332)
(-0.192783 0 -0.0766701)
(-0.199781 0 -0.0784385)
(-0.206892 0 -0.075041)
(-0.213715 0 -0.063869)
(-0.219791 0 -0.0434746)
(-0.0931943 0 0.00634214)
(-0.0932756 0 0.00965367)
(-0.0933079 0 0.0124337)
(-0.0933855 0 0.0151313)
(-0.0934843 0 0.0177455)
(-0.0936046 0 0.0203212)
(-0.0937475 0 0.0228975)
(-0.0939143 0 0.0254921)
(-0.0941067 0 0.0281011)
(-0.0943267 0 0.0307033)
(-0.0945767 0 0.0332635)
(-0.0948595 0 0.0357351)
(-0.0951777 0 0.038063)
(-0.0955347 0 0.040186)
(-0.0959338 0 0.0420399)
(-0.0963787 0 0.0435613)
(-0.0968739 0 0.0446923)
(-0.0974243 0 0.0453859)
(-0.0980357 0 0.0456129)
(-0.0987154 0 0.0453693)
(-0.0994721 0 0.0446828)
(-0.100316 0 0.0436176)
(-0.10126 0 0.0422715)
(-0.102318 0 0.0407641)
(-0.103506 0 0.0392102)
(-0.104838 0 0.0376806)
(-0.106331 0 0.0361564)
(-0.107995 0 0.0344905)
(-0.109844 0 0.0323929)
(-0.111882 0 0.0294458)
(-0.114319 0 0.0247374)
(-0.117144 0 0.0175989)
(-0.120131 0 0.00822259)
(-0.123312 0 -0.00313264)
(-0.126747 0 -0.0157289)
(-0.130502 0 -0.0284412)
(-0.134633 0 -0.0399726)
(-0.13916 0 -0.049196)
(-0.144055 0 -0.0555074)
(-0.149249 0 -0.0590304)
(-0.154647 0 -0.0605658)
(-0.160166 0 -0.0613156)
(-0.165747 0 -0.0624945)
(-0.17138 0 -0.064918)
(-0.177098 0 -0.0685953)
(-0.182947 0 -0.0724115)
(-0.188913 0 -0.0741149)
(-0.194856 0 -0.0708265)
(-0.200356 0 -0.0600572)
(-0.204965 0 -0.0404785)
(-0.0910869 0 0.00643001)
(-0.0911668 0 0.00979771)
(-0.0911966 0 0.012628)
(-0.0912717 0 0.0153752)
(-0.0913676 0 0.0180355)
(-0.0914844 0 0.0206539)
(-0.0916231 0 0.0232706)
(-0.0917848 0 0.0259043)
(-0.0919711 0 0.0285521)
(-0.0921839 0 0.0311932)
(-0.0924255 0 0.0337926)
(-0.0926985 0 0.0363039)
(-0.0930056 0 0.0386719)
(-0.0933496 0 0.0408357)
(-0.093734 0 0.0427312)
(-0.0941623 0 0.0442952)
(-0.0946385 0 0.0454701)
(-0.0951673 0 0.0462096)
(-0.0957544 0 0.0464853)
(-0.0964064 0 0.0462941)
(-0.0971315 0 0.0456649)
(-0.0979395 0 0.0446628)
(-0.098842 0 0.0433865)
(-0.0998523 0 0.0419556)
(-0.100985 0 0.0404838)
(-0.102253 0 0.0390404)
(-0.103672 0 0.0376037)
(-0.10525 0 0.0360239)
(-0.107 0 0.034009)
(-0.108925 0 0.0311414)
(-0.111221 0 0.0265189)
(-0.113875 0 0.0194762)
(-0.116673 0 0.0102119)
(-0.119645 0 -0.00100077)
(-0.122848 0 -0.0134144)
(-0.126341 0 -0.0259054)
(-0.130172 0 -0.0371931)
(-0.134353 0 -0.0461779)
(-0.13885 0 -0.0522861)
(-0.143589 0 -0.0556621)
(-0.148475 0 -0.0571111)
(-0.153423 0 -0.0578222)
(-0.158373 0 -0.0589844)
(-0.163309 0 -0.0613842)
(-0.16826 0 -0.0650151)
(-0.173256 0 -0.0687796)
(-0.178265 0 -0.0704974)
(-0.183134 0 -0.0674056)
(-0.187442 0 -0.0571251)
(-0.190749 0 -0.0384337)
(-0.0889244 0 0.00651371)
(-0.0890029 0 0.00993607)
(-0.0890302 0 0.0128157)
(-0.0891029 0 0.0156116)
(-0.0891959 0 0.0183169)
(-0.0893092 0 0.0209768)
(-0.0894436 0 0.0236323)
(-0.0896002 0 0.0263035)
(-0.0897804 0 0.0289883)
(-0.089986 0 0.0316665)
(-0.0902191 0 0.0343032)
(-0.0904822 0 0.0368522)
(-0.0907778 0 0.0392586)
(-0.0911088 0 0.0414612)
(-0.0914782 0 0.0433961)
(-0.0918896 0 0.0450005)
(-0.0923466 0 0.046217)
(-0.0928536 0 0.0469999)
(-0.093416 0 0.0473215)
(-0.09404 0 0.0471796)
(-0.0947331 0 0.0466043)
(-0.0955046 0 0.0456614)
(-0.0963652 0 0.0444504)
(-0.0973273 0 0.0430907)
(-0.0984038 0 0.0416954)
(-0.0996079 0 0.0403317)
(-0.100952 0 0.0389755)
(-0.102444 0 0.0374744)
(-0.104095 0 0.0355346)
(-0.105906 0 0.0327381)
(-0.108061 0 0.0281917)
(-0.110545 0 0.0212336)
(-0.113154 0 0.0120689)
(-0.115919 0 0.00098417)
(-0.11889 0 -0.0112647)
(-0.122123 0 -0.0235568)
(-0.125659 0 -0.0346279)
(-0.1295 0 -0.0434059)
(-0.133608 0 -0.0493459)
(-0.137905 0 -0.0526115)
(-0.142297 0 -0.0540114)
(-0.146696 0 -0.0547215)
(-0.151044 0 -0.0559062)
(-0.155322 0 -0.0583251)
(-0.15955 0 -0.0619589)
(-0.163751 0 -0.0657307)
(-0.167877 0 -0.0675291)
(-0.171768 0 -0.0647029)
(-0.175009 0 -0.054976)
(-0.177172 0 -0.0372151)
(-0.0867127 0 0.0065931)
(-0.0867896 0 0.0100685)
(-0.0868143 0 0.0129965)
(-0.0868844 0 0.0158402)
(-0.0869743 0 0.0185896)
(-0.087084 0 0.0212895)
(-0.0872141 0 0.0239824)
(-0.0873655 0 0.0266894)
(-0.0875394 0 0.0294095)
(-0.0877376 0 0.0321229)
(-0.087962 0 0.0347951)
(-0.088215 0 0.03738)
(-0.0884991 0 0.0398226)
(-0.0888168 0 0.042062)
(-0.0891712 0 0.0440344)
(-0.0895654 0 0.045677)
(-0.090003 0 0.0469328)
(-0.0904881 0 0.0477566)
(-0.0910256 0 0.0481213)
(-0.0916213 0 0.0480256)
(-0.0922823 0 0.0475005)
(-0.093017 0 0.0466129)
(-0.0938354 0 0.0454626)
(-0.0947489 0 0.044169)
(-0.0957694 0 0.0428444)
(-0.0969087 0 0.0415541)
(-0.0981776 0 0.0402716)
(-0.0995841 0 0.0388418)
(-0.101136 0 0.0369692)
(-0.102834 0 0.0342359)
(-0.104848 0 0.0297561)
(-0.107162 0 0.0228717)
(-0.109584 0 0.0137946)
(-0.112144 0 0.0028237)
(-0.114888 0 -0.00927777)
(-0.117865 0 -0.0213924)
(-0.121109 0 -0.0322729)
(-0.124619 0 -0.0408741)
(-0.12835 0 -0.0466785)
(-0.13222 0 -0.0498677)
(-0.136137 0 -0.0512524)
(-0.140013 0 -0.0519953)
(-0.143791 0 -0.053237)
(-0.147448 0 -0.0557123)
(-0.151001 0 -0.0593914)
(-0.154466 0 -0.06322)
(-0.157782 0 -0.0651539)
(-0.160787 0 -0.0626472)
(-0.16308 0 -0.0535195)
(-0.164246 0 -0.0367105)
(-0.0844577 0 0.00666772)
(-0.0845326 0 0.0101945)
(-0.0845545 0 0.0131697)
(-0.0846217 0 0.0160603)
(-0.0847082 0 0.0188528)
(-0.084814 0 0.0215917)
(-0.0849395 0 0.0243205)
(-0.0850854 0 0.0270617)
(-0.0852529 0 0.0298153)
(-0.0854435 0 0.032562)
(-0.0856591 0 0.0352678)
(-0.0859018 0 0.0378867)
(-0.0861741 0 0.0403637)
(-0.0864785 0 0.042638)
(-0.0868176 0 0.0446457)
(-0.0871946 0 0.0463243)
(-0.0876126 0 0.0476172)
(-0.0880757 0 0.0484793)
(-0.0885882 0 0.0488844)
(-0.0891555 0 0.0488319)
(-0.0897842 0 0.0483536)
(-0.090482 0 0.0475172)
(-0.0912582 0 0.046423)
(-0.0921231 0 0.0451905)
(-0.0930875 0 0.0439309)
(-0.0941622 0 0.0427076)
(-0.0953564 0 0.0414919)
(-0.096677 0 0.0401262)
(-0.0981302 0 0.0383132)
(-0.099716 0 0.035635)
(-0.101591 0 0.0312128)
(-0.103737 0 0.0243915)
(-0.105975 0 0.0153905)
(-0.108332 0 0.00451989)
(-0.110852 0 -0.00745069)
(-0.113579 0 -0.0194083)
(-0.11654 0 -0.0301229)
(-0.119727 0 -0.0385754)
(-0.123093 0 -0.0442746)
(-0.126554 0 -0.0474185)
(-0.130018 0 -0.0488186)
(-0.133398 0 -0.0496241)
(-0.136637 0 -0.0509528)
(-0.139714 0 -0.0535165)
(-0.142641 0 -0.057277)
(-0.145427 0 -0.0612036)
(-0.148007 0 -0.0633169)
(-0.150214 0 -0.0611701)
(-0.151667 0 -0.0526715)
(-0.151966 0 -0.0368194)
(-0.0821651 0 0.00673694)
(-0.0822377 0 0.010313)
(-0.0822564 0 0.0133343)
(-0.0823203 0 0.016271)
(-0.0824031 0 0.0191057)
(-0.0825045 0 0.0218824)
(-0.082625 0 0.0246459)
(-0.0827651 0 0.0274198)
(-0.0829258 0 0.0302051)
(-0.0831085 0 0.0329834)
(-0.0833151 0 0.035721)
(-0.0835474 0 0.0383721)
(-0.0838078 0 0.0408816)
(-0.0840985 0 0.0431888)
(-0.0844223 0 0.0452299)
(-0.0847819 0 0.0469424)
(-0.0851804 0 0.04827)
(-0.0856213 0 0.049168)
(-0.0861088 0 0.0496107)
(-0.0866477 0 0.0495983)
(-0.0872442 0 0.0491633)
(-0.0879052 0 0.0483742)
(-0.0886393 0 0.0473318)
(-0.0894557 0 0.0461552)
(-0.0903643 0 0.0449548)
(-0.0913745 0 0.0437924)
(-0.0924945 0 0.0426368)
(-0.0937299 0 0.0413282)
(-0.0950855 0 0.0395675)
(-0.0965603 0 0.0369367)
(-0.0982982 0 0.0325631)
(-0.100278 0 0.0257948)
(-0.102335 0 0.0168586)
(-0.104495 0 0.00607546)
(-0.106796 0 -0.00578006)
(-0.109279 0 -0.0176)
(-0.111965 0 -0.0281718)
(-0.114841 0 -0.0365019)
(-0.117855 0 -0.0421238)
(-0.120925 0 -0.0452504)
(-0.123958 0 -0.0466932)
(-0.12687 0 -0.0475874)
(-0.129605 0 -0.0490291)
(-0.132142 0 -0.0517083)
(-0.134491 0 -0.0555802)
(-0.136656 0 -0.059638)
(-0.138568 0 -0.0619651)
(-0.140061 0 -0.0602074)
(-0.140774 0 -0.052355)
(-0.140322 0 -0.0374535)
(-0.0798399 0 0.00680005)
(-0.0799098 0 0.010423)
(-0.079925 0 0.0134892)
(-0.0799852 0 0.016471)
(-0.0800637 0 0.0193469)
(-0.0801604 0 0.0221606)
(-0.0802755 0 0.0249575)
(-0.0804094 0 0.0277627)
(-0.080563 0 0.0305783)
(-0.0807375 0 0.0333867)
(-0.0809347 0 0.0361543)
(-0.0811564 0 0.0388357)
(-0.0814047 0 0.041376)
(-0.0816818 0 0.0437142)
(-0.0819901 0 0.0457867)
(-0.0823323 0 0.0475311)
(-0.0827111 0 0.0488911)
(-0.0831299 0 0.0498226)
(-0.0835924 0 0.0503003)
(-0.0841032 0 0.050325)
(-0.0846675 0 0.0499299)
(-0.085292 0 0.0491842)
(-0.0859842 0 0.0481891)
(-0.0867524 0 0.0470635)
(-0.0876056 0 0.0459168)
(-0.088552 0 0.0448091)
(-0.0895986 0 0.0437071)
(-0.0907498 0 0.0424486)
(-0.0920092 0 0.0407331)
(-0.0933747 0 0.0381423)
(-0.0949775 0 0.0338088)
(-0.0967957 0 0.0270837)
(-0.0986758 0 0.0182019)
(-0.100642 0 0.00749377)
(-0.102731 0 -0.00426172)
(-0.104977 0 -0.0159624)
(-0.107397 0 -0.0264131)
(-0.109973 0 -0.034645)
(-0.112652 0 -0.040215)
(-0.115349 0 -0.0433494)
(-0.117975 0 -0.0448588)
(-0.120448 0 -0.0458646)
(-0.122713 0 -0.0474409)
(-0.12475 0 -0.0502583)
(-0.126568 0 -0.0542659)
(-0.128168 0 -0.0584817)
(-0.129479 0 -0.0610488)
(-0.130336 0 -0.0597)
(-0.1304 0 -0.0525019)
(-0.129299 0 -0.0385368)
(-0.0774863 0 0.00685644)
(-0.0775533 0 0.0105236)
(-0.0775647 0 0.0136331)
(-0.0776207 0 0.016659)
(-0.0776946 0 0.0195755)
(-0.077786 0 0.0224251)
(-0.0778953 0 0.0252545)
(-0.0780227 0 0.0280898)
(-0.0781689 0 0.0309342)
(-0.078335 0 0.0337711)
(-0.0785227 0 0.0365672)
(-0.0787335 0 0.0392773)
(-0.0789696 0 0.0418465)
(-0.0792329 0 0.044214)
(-0.0795257 0 0.046316)
(-0.0798505 0 0.0480903)
(-0.0802097 0 0.0494807)
(-0.0806065 0 0.0504433)
(-0.0810442 0 0.0509533)
(-0.0815269 0 0.0510121)
(-0.0820594 0 0.0506536)
(-0.0826476 0 0.0499476)
(-0.0832983 0 0.0489954)
(-0.084019 0 0.0479158)
(-0.0848174 0 0.0468173)
(-0.0857008 0 0.0457584)
(-0.086675 0 0.0447037)
(-0.0877434 0 0.0434888)
(-0.0889082 0 0.0418116)
(-0.0901666 0 0.0392536)
(-0.0916374 0 0.0349521)
(-0.0932974 0 0.0282611)
(-0.0950052 0 0.0194236)
(-0.0967838 0 0.0087787)
(-0.0986666 0 -0.00289093)
(-0.100684 0 -0.0144896)
(-0.102848 0 -0.0248393)
(-0.105138 0 -0.0329952)
(-0.107497 0 -0.0385364)
(-0.109842 0 -0.0417011)
(-0.112085 0 -0.0432981)
(-0.114147 0 -0.0444344)
(-0.115976 0 -0.0461637)
(-0.117553 0 -0.0491374)
(-0.118886 0 -0.0533004)
(-0.119974 0 -0.0576947)
(-0.120747 0 -0.0605216)
(-0.12104 0 -0.0595944)
(-0.120537 0 -0.0530513)
(-0.118879 0 -0.0400042)
(-0.075108 0 0.00690566)
(-0.0751718 0 0.0106141)
(-0.0751792 0 0.0137652)
(-0.0752308 0 0.0168341)
(-0.0752997 0 0.0197902)
(-0.0753857 0 0.0226751)
(-0.0754889 0 0.0255359)
(-0.0756094 0 0.0284002)
(-0.0757479 0 0.0312723)
(-0.0759054 0 0.0341362)
(-0.0760833 0 0.0369594)
(-0.0762832 0 0.0396966)
(-0.0765069 0 0.0422931)
(-0.0767564 0 0.0446882)
(-0.0770338 0 0.0468179)
(-0.0773412 0 0.0486201)
(-0.077681 0 0.0500388)
(-0.0780559 0 0.0510302)
(-0.078469 0 0.05157)
(-0.0789239 0 0.0516601)
(-0.079425 0 0.0513349)
(-0.0799774 0 0.0506648)
(-0.0805872 0 0.0497512)
(-0.0812609 0 0.0487129)
(-0.0820054 0 0.0476574)
(-0.0828269 0 0.0466416)
(-0.08373 0 0.0456279)
(-0.0847172 0 0.0444503)
(-0.0857895 0 0.0428048)
(-0.0869432 0 0.0402729)
(-0.0882853 0 0.0359955)
(-0.0897915 0 0.0293299)
(-0.0913324 0 0.0205272)
(-0.0929296 0 0.00993459)
(-0.0946137 0 -0.00166249)
(-0.0964113 0 -0.0131751)
(-0.0983305 0 -0.0234425)
(-0.100347 0 -0.0315428)
(-0.102402 0 -0.0370758)
(-0.104416 0 -0.0402905)
(-0.1063 0 -0.041993)
(-0.10798 0 -0.0432761)
(-0.109406 0 -0.045173)
(-0.110562 0 -0.0483175)
(-0.111455 0 -0.0526508)
(-0.112083 0 -0.0572392)
(-0.112376 0 -0.0603397)
(-0.112173 0 -0.0598413)
(-0.111178 0 -0.0539489)
(-0.109043 0 -0.0417993)
(-0.0727081 0 0.00694747)
(-0.0727687 0 0.010694)
(-0.0727719 0 0.0138849)
(-0.072819 0 0.0169956)
(-0.0728828 0 0.0199906)
(-0.072963 0 0.02291)
(-0.0730599 0 0.0258013)
(-0.0731735 0 0.0286936)
(-0.0733042 0 0.0315921)
(-0.0734529 0 0.0344817)
(-0.073621 0 0.0373305)
(-0.0738098 0 0.0400934)
(-0.0740212 0 0.0427157)
(-0.0742569 0 0.0451366)
(-0.0745189 0 0.0472924)
(-0.074809 0 0.0491207)
(-0.0751295 0 0.0505656)
(-0.0754829 0 0.0515837)
(-0.0758717 0 0.0521508)
(-0.0762992 0 0.0522694)
(-0.0767693 0 0.0519744)
(-0.0772865 0 0.0513365)
(-0.077856 0 0.0504575)
(-0.0784837 0 0.0494558)
(-0.0791753 0 0.0484381)
(-0.079936 0 0.0474597)
(-0.0807696 0 0.0464813)
(-0.0816775 0 0.0453347)
(-0.0826596 0 0.0437148)
(-0.0837114 0 0.0412024)
(-0.0849287 0 0.0369419)
(-0.0862859 0 0.0302936)
(-0.0876655 0 0.0215167)
(-0.0890879 0 0.0109661)
(-0.0905811 0 -0.000570834)
(-0.0921682 0 -0.0120123)
(-0.0938538 0 -0.0222145)
(-0.0956105 0 -0.0302776)
(-0.0973798 0 -0.0358209)
(-0.0990817 0 -0.0391029)
(-0.100632 0 -0.0409261)
(-0.101958 0 -0.0423689)
(-0.103014 0 -0.044445)
(-0.103786 0 -0.0477712)
(-0.104282 0 -0.0522861)
(-0.104499 0 -0.0570794)
(-0.104367 0 -0.0604624)
(-0.103731 0 -0.0603951)
(-0.102313 0 -0.0551452)
(-0.0997753 0 -0.0438723)
(-0.0702894 0 0.00698191)
(-0.0703468 0 0.0107634)
(-0.070346 0 0.0139921)
(-0.0703885 0 0.0171434)
(-0.0704471 0 0.0201763)
(-0.0705216 0 0.0231293)
(-0.0706121 0 0.0260504)
(-0.0707187 0 0.0289696)
(-0.0708415 0 0.0318934)
(-0.0709815 0 0.0348076)
(-0.0711397 0 0.0376806)
(-0.0713176 0 0.0404677)
(-0.0715167 0 0.0431143)
(-0.0717387 0 0.0455596)
(-0.0719854 0 0.0477397)
(-0.0722585 0 0.0495923)
(-0.07256 0 0.0510616)
(-0.072892 0 0.0521042)
(-0.0732569 0 0.0526963)
(-0.0736575 0 0.0528406)
(-0.0740972 0 0.0525727)
(-0.0745798 0 0.0519635)
(-0.07511 0 0.0511151)
(-0.0756925 0 0.0501456)
(-0.0763324 0 0.0491606)
(-0.0770339 0 0.0482143)
(-0.0777997 0 0.0472655)
(-0.0786304 0 0.0461442)
(-0.0795249 0 0.0445438)
(-0.0804779 0 0.0420449)
(-0.0815743 0 0.0377945)
(-0.0827879 0 0.0311557)
(-0.0840123 0 0.0223964)
(-0.0852669 0 0.0118782)
(-0.0865773 0 0.00038989)
(-0.0879637 0 -0.0109942)
(-0.0894272 0 -0.0211467)
(-0.0909384 0 -0.0291892)
(-0.0924385 0 -0.0347591)
(-0.093849 0 -0.0381232)
(-0.0950885 0 -0.0400797)
(-0.0960886 0 -0.0416927)
(-0.0968066 0 -0.0439567)
(-0.0972315 0 -0.0474723)
(-0.0973714 0 -0.0521762)
(-0.0972225 0 -0.0571813)
(-0.0967186 0 -0.0608511)
(-0.0957096 0 -0.0612132)
(-0.093932 0 -0.0565943)
(-0.0910602 0 -0.0461764)
(-0.067855 0 0.00700917)
(-0.0679092 0 0.0108223)
(-0.0679044 0 0.014087)
(-0.0679425 0 0.0172774)
(-0.067996 0 0.0203473)
(-0.0680649 0 0.0233332)
(-0.0681491 0 0.0262832)
(-0.0682487 0 0.0292283)
(-0.0683637 0 0.0321763)
(-0.068495 0 0.0351138)
(-0.0686435 0 0.0380097)
(-0.0688106 0 0.0408197)
(-0.0689975 0 0.0434892)
(-0.069206 0 0.0459573)
(-0.0694376 0 0.0481602)
(-0.0696939 0 0.0500354)
(-0.0699767 0 0.0515271)
(-0.0702878 0 0.0525922)
(-0.0706293 0 0.053207)
(-0.0710036 0 0.0533745)
(-0.0714135 0 0.0531307)
(-0.0718623 0 0.0525469)
(-0.072354 0 0.0517252)
(-0.0728926 0 0.0507834)
(-0.0734821 0 0.0498265)
(-0.0741259 0 0.0489071)
(-0.0748258 0 0.0479825)
(-0.0755816 0 0.0468809)
(-0.0763912 0 0.0452943)
(-0.0772489 0 0.0428034)
(-0.0782289 0 0.0385566)
(-0.0793043 0 0.0319202)
(-0.0803798 0 0.0231707)
(-0.081474 0 0.012676)
(-0.08261 0 0.00122575)
(-0.0838056 0 -0.0101134)
(-0.0850589 0 -0.0202305)
(-0.0863389 0 -0.0282673)
(-0.0875866 0 -0.0338782)
(-0.0887257 0 -0.0373369)
(-0.0896782 0 -0.039437)
(-0.0903791 0 -0.041228)
(-0.0907896 0 -0.0436857)
(-0.0909012 0 -0.0473958)
(-0.0907239 0 -0.052293)
(-0.0902539 0 -0.057513)
(-0.0894274 0 -0.0614697)
(-0.0881002 0 -0.0622555)
(-0.0860239 0 -0.058253)
(-0.082884 0 -0.048667)
(-0.0654077 0 0.00702962)
(-0.0654591 0 0.0108713)
(-0.0654505 0 0.01417)
(-0.0654843 0 0.0173983)
(-0.0655329 0 0.0205041)
(-0.0655963 0 0.023522)
(-0.0656744 0 0.0265)
(-0.0657672 0 0.02947)
(-0.0658746 0 0.0324411)
(-0.0659974 0 0.0354006)
(-0.0661364 0 0.0383182)
(-0.0662927 0 0.0411497)
(-0.0664678 0 0.0438407)
(-0.066663 0 0.0463302)
(-0.0668798 0 0.0485543)
(-0.0671196 0 0.0504505)
(-0.0673841 0 0.0519629)
(-0.0676747 0 0.0530485)
(-0.0679933 0 0.0536837)
(-0.0683418 0 0.0538719)
(-0.0687227 0 0.0536494)
(-0.0691387 0 0.0530877)
(-0.0695929 0 0.052289)
(-0.0700887 0 0.0513708)
(-0.0706293 0 0.0504373)
(-0.0712172 0 0.0495399)
(-0.0718533 0 0.0486343)
(-0.0725366 0 0.0475471)
(-0.0732645 0 0.0459692)
(-0.0740303 0 0.0434808)
(-0.0748984 0 0.0392317)
(-0.0758416 0 0.0325911)
(-0.0767749 0 0.0238444)
(-0.0777161 0 0.013365)
(-0.0786864 0 0.00194295)
(-0.0797012 0 -0.0093628)
(-0.0807563 0 -0.0194572)
(-0.0818191 0 -0.0275015)
(-0.0828312 0 -0.0331657)
(-0.0837185 0 -0.0367297)
(-0.0844064 0 -0.0389814)
(-0.0848341 0 -0.0409559)
(-0.0849661 0 -0.0436109)
(-0.0847971 0 -0.0475177)
(-0.084339 0 -0.0526096)
(-0.0835893 0 -0.0580444)
(-0.082487 0 -0.0622844)
(-0.0808941 0 -0.0634842)
(-0.0785767 0 -0.0600801)
(-0.0752323 0 -0.0513001)
(-0.0629513 0 0.00704368)
(-0.0629998 0 0.0109108)
(-0.0629877 0 0.0142416)
(-0.0630175 0 0.0175064)
(-0.0630614 0 0.0206473)
(-0.0631194 0 0.0236962)
(-0.0631917 0 0.0267012)
(-0.0632779 0 0.0296953)
(-0.0633779 0 0.0326883)
(-0.0634924 0 0.0356686)
(-0.0636221 0 0.0386066)
(-0.063768 0 0.0414582)
(-0.0639314 0 0.0441693)
(-0.0641136 0 0.0466788)
(-0.064316 0 0.0489226)
(-0.0645397 0 0.0508381)
(-0.0647863 0 0.0523696)
(-0.0650569 0 0.0534737)
(-0.0653532 0 0.0541273)
(-0.0656767 0 0.0543338)
(-0.0660294 0 0.0541298)
(-0.0664134 0 0.053587)
(-0.0668313 0 0.0528077)
(-0.0672857 0 0.0519091)
(-0.067779 0 0.0509947)
(-0.0683127 0 0.0501147)
(-0.0688873 0 0.0492232)
(-0.0695009 0 0.0481455)
(-0.07015 0 0.0465713)
(-0.0708277 0 0.0440804)
(-0.0715888 0 0.0398235)
(-0.0724056 0 0.0331727)
(-0.0732035 0 0.0244222)
(-0.0739994 0 0.0139505)
(-0.0748129 0 0.00254781)
(-0.075657 0 -0.00873494)
(-0.0765257 0 -0.0188181)
(-0.0773853 0 -0.0268816)
(-0.0781781 0 -0.0326099)
(-0.0788324 0 -0.0362877)
(-0.0792775 0 -0.0386971)
(-0.0794565 0 -0.0408585)
(-0.0793377 0 -0.0437123)
(-0.0789187 0 -0.0478156)
(-0.0782142 0 -0.053101)
(-0.0772232 0 -0.0587472)
(-0.075889 0 -0.0632633)
(-0.0740799 0 -0.0648634)
(-0.0715764 0 -0.0620359)
(-0.0680894 0 -0.0540317)
(-0.0604895 0 0.00705173)
(-0.0605354 0 0.0109415)
(-0.0605199 0 0.0143025)
(-0.0605458 0 0.0176024)
(-0.0605852 0 0.0207773)
(-0.0606382 0 0.0238564)
(-0.0607048 0 0.0268876)
(-0.0607846 0 0.0299045)
(-0.0608775 0 0.0329182)
(-0.0609839 0 0.0359182)
(-0.0611045 0 0.0388752)
(-0.0612403 0 0.0417457)
(-0.0613924 0 0.0444756)
(-0.0615619 0 0.0470036)
(-0.0617502 0 0.0492657)
(-0.0619583 0 0.0511991)
(-0.0621874 0 0.0527479)
(-0.0624387 0 0.0538688)
(-0.0627133 0 0.0545387)
(-0.0630125 0 0.0547612)
(-0.0633378 0 0.0545731)
(-0.0636909 0 0.0540462)
(-0.0640737 0 0.053283)
(-0.0644881 0 0.0524002)
(-0.0649357 0 0.0515006)
(-0.0654173 0 0.0506334)
(-0.0659326 0 0.0497515)
(-0.0664792 0 0.0486786)
(-0.0670528 0 0.0471035)
(-0.0676463 0 0.0446055)
(-0.0683052 0 0.0403359)
(-0.0690018 0 0.0336693)
(-0.0696714 0 0.024909)
(-0.0703299 0 0.0144382)
(-0.0709952 0 0.00304667)
(-0.0716788 0 -0.00822252)
(-0.0723728 0 -0.0183048)
(-0.073043 0 -0.0263976)
(-0.0736323 0 -0.032199)
(-0.0740718 0 -0.0359978)
(-0.0742945 0 -0.038569)
(-0.0742481 0 -0.0409191)
(-0.0739044 0 -0.0439709)
(-0.0732641 0 -0.0482686)
(-0.0723446 0 -0.0537436)
(-0.071148 0 -0.0595952)
(-0.0696224 0 -0.0643765)
(-0.0676437 0 -0.0663592)
(-0.065006 0 -0.0640816)
(-0.0614368 0 -0.0568184)
(-0.0580268 0 0.00705405)
(-0.0580701 0 0.0109636)
(-0.0580514 0 0.0143531)
(-0.0580734 0 0.0176868)
(-0.0581084 0 0.0208946)
(-0.0581565 0 0.0240031)
(-0.0582176 0 0.0270594)
(-0.0582912 0 0.0300982)
(-0.0583772 0 0.0331316)
(-0.0584758 0 0.0361499)
(-0.0585876 0 0.0391247)
(-0.0587135 0 0.0420128)
(-0.0588545 0 0.04476)
(-0.0590117 0 0.0473053)
(-0.0591863 0 0.0495842)
(-0.0593791 0 0.0515341)
(-0.0595913 0 0.0530986)
(-0.0598238 0 0.0542347)
(-0.0600774 0 0.0549189)
(-0.0603532 0 0.0551552)
(-0.0606521 0 0.0549805)
(-0.0609754 0 0.0544668)
(-0.0613243 0 0.0537163)
(-0.0617002 0 0.0528456)
(-0.0621038 0 0.0519569)
(-0.0625355 0 0.0510984)
(-0.0629939 0 0.0502216)
(-0.0634763 0 0.0491492)
(-0.0639778 0 0.0475688)
(-0.0644909 0 0.0450597)
(-0.0650528 0 0.0407727)
(-0.0656354 0 0.0340853)
(-0.0661836 0 0.0253098)
(-0.0667125 0 0.0148336)
(-0.0672386 0 0.00344587)
(-0.0677717 0 -0.00781828)
(-0.0683026 0 -0.0179088)
(-0.0687965 0 -0.0260399)
(-0.0691976 0 -0.0319221)
(-0.0694396 0 -0.0358472)
(-0.0694595 0 -0.0385832)
(-0.0692093 0 -0.0411218)
(-0.0686647 0 -0.0443692)
(-0.0678296 0 -0.048857)
(-0.0667242 0 -0.0545157)
(-0.0653544 0 -0.0605639)
(-0.0636744 0 -0.0655966)
(-0.0615687 0 -0.0679399)
(-0.0588456 0 -0.0661805)
(-0.0552512 0 -0.059617)
(-0.0555679 0 0.00705075)
(-0.0556085 0 0.0109774)
(-0.0555866 0 0.0143934)
(-0.0556048 0 0.0177596)
(-0.0556355 0 0.0209995)
(-0.0556786 0 0.0241364)
(-0.0557342 0 0.0272172)
(-0.0558018 0 0.0302768)
(-0.055881 0 0.0333287)
(-0.0559719 0 0.0363642)
(-0.0560751 0 0.0393555)
(-0.0561913 0 0.0422599)
(-0.0563216 0 0.0450233)
(-0.0564668 0 0.0475845)
(-0.056628 0 0.049879)
(-0.0568061 0 0.0518439)
(-0.057002 0 0.0534227)
(-0.0572162 0 0.0545722)
(-0.0574496 0 0.055269)
(-0.0577027 0 0.0555171)
(-0.0579762 0 0.0553534)
(-0.0582708 0 0.05485)
(-0.0585872 0 0.0541092)
(-0.0589261 0 0.0532472)
(-0.0592876 0 0.0523656)
(-0.0596714 0 0.0515118)
(-0.0600755 0 0.0506361)
(-0.0604966 0 0.04956)
(-0.0609295 0 0.0479706)
(-0.0613662 0 0.0454464)
(-0.061836 0 0.0411378)
(-0.062311 0 0.034425)
(-0.0627448 0 0.0256295)
(-0.0631519 0 0.0151424)
(-0.0635476 0 0.0037517)
(-0.0639401 0 -0.00751507)