/*--------------------------------*- C++ -*----------------------------------*\
  =========                 |
  \\      /  F ield         | OpenFOAM: The Open Source CFD Toolbox
   \\    /   O peration     | Website:  https://openfoam.org
    \\  /    A nd           | Version:  9
     \\/     M anipulation  |
\*---------------------------------------------------------------------------*/
FoamFile
{
    format      ascii;
    class       volScalarField;
    location    "0.11";
    object      alpha.water;
}
// * * * * * * * * * * * * * * * * * * * * * * * * * * * * * * * * * * * * * //

dimensions      [0 0 0 0 0 0 0];

internalField   nonuniform List<scalar> 
5000
(
3.14104e-15
5.50656e-14
5.38017e-13
4.94393e-12
3.0179e-11
2.83294e-10
3.20436e-09
3.67528e-08
3.65804e-07
5.69789e-06
5.04539e-05
5.99125e-05
0.040225
0.760343
0.999987
0.999987
1
1
1
1
1
1
1
1
1
0.999999
0.999991
0.999919
0.999878
0.821282
0.109211
0.000233101
0.00023581
7.69173e-05
2.03043e-05
5.02596e-06
1.19009e-06
2.89783e-07
7.47129e-08
2.02047e-08
5.67857e-09
1.61869e-09
3.59646e-10
2.07725e-10
1.42667e-10
8.7053e-11
4.80568e-11
2.51762e-11
1.19133e-11
3.78442e-12
4.53006e-15
7.43214e-14
6.76439e-13
5.71488e-12
3.59527e-11
3.60182e-10
4.02913e-09
4.54601e-08
5.76803e-07
5.72812e-06
6.98969e-06
1.48463e-05
0.0178379
0.703472
0.999992
0.999985
0.999999
1
1
1
1
1
1
1
1
0.999999
0.999987
0.999876
0.999799
0.711028
0.0328353
0.000216788
0.000244136
4.95756e-05
1.78809e-05
4.88314e-06
1.21372e-06
3.01093e-07
7.75495e-08
2.07389e-08
5.77503e-09
1.64704e-09
4.07325e-10
2.20309e-10
1.44081e-10
8.84714e-11
5.06643e-11
2.75084e-11
1.31265e-11
4.42065e-12
5.40491e-15
8.59004e-14
7.68812e-13
5.837e-12
3.81417e-11
3.7753e-10
4.14914e-09
4.5503e-08
5.19788e-07
6.57798e-06
3.57286e-05
2.47166e-05
0.000887573
0.580838
0.999998
0.999998
0.999998
1
1
1
1
1
1
1
1
0.999997
0.999967
0.999872
0.997086
0.467101
0.000216788
0.00021256
0.000211729
3.25963e-05
1.20328e-05
3.94236e-06
1.12186e-06
2.83272e-07
7.3325e-08
1.95971e-08
5.44753e-09
1.5368e-09
4.20123e-10
2.24574e-10
1.43594e-10
8.98168e-11
5.32523e-11
2.96443e-11
1.45658e-11
5.01781e-12
5.51602e-15
8.66533e-14
7.75635e-13
5.73638e-12
3.81902e-11
3.7158e-10
4.05501e-09
4.38426e-08
4.71097e-07
8.07361e-06
8.3657e-05
7.26494e-05
7.14334e-05
0.378238
0.987427
0.999998
0.999997
1
1
1
1
1
1
1
0.999999
0.999992
0.999932
0.999881
0.890424
0.183635
0.000217088
0.000215395
9.71435e-05
2.12142e-05
6.91668e-06
2.32359e-06
7.95747e-07
2.28619e-07
5.91954e-08
1.58285e-08
4.38413e-09
1.20498e-09
4.00096e-10
2.21357e-10
1.42507e-10
9.21115e-11
5.6487e-11
3.21013e-11
1.65087e-11
5.64247e-12
5.39998e-15
8.41727e-14
7.57727e-13
5.37153e-12
3.69803e-11
3.43569e-10
3.66945e-09
3.9467e-08
3.35694e-07
9.25246e-06
8.36842e-05
8.3657e-05
7.4856e-05
0.171312
0.904633
0.999997
0.999994
0.999999
1
1
1
1
1
0.999999
0.999996
0.999972
0.999921
0.997389
0.517841
0.00293491
0.000307273
0.000346296
0.000101332
6.34622e-06
6.51516e-06
1.46784e-06
3.77765e-07
1.44236e-07
3.7143e-08
1.01695e-08
2.82464e-09
7.78731e-10
3.42268e-10
2.08724e-10
1.40968e-10
9.5401e-11
6.02187e-11
3.49344e-11
1.87921e-11
6.24523e-12
5.01015e-15
7.67846e-14
6.9893e-13
4.67453e-12
3.34775e-11
2.84675e-10
2.9237e-09
2.94054e-08
2.1566e-07
9.73491e-06
6.15169e-05
7.64275e-05
7.12535e-05
0.0252503
0.675382
0.999995
0.999997
0.999997
0.999999
0.999999
0.999999
0.999999
0.999998
0.999997
0.999988
0.999959
0.999792
0.694812
0.0714098
0.000159039
0.000346226
0.000295044
0.000162642
5.47576e-06
5.47342e-06
1.1342e-06
1.93701e-07
7.38023e-08
2.11352e-08
5.70961e-09
1.57652e-09
4.77754e-10
2.72697e-10
1.90844e-10
1.4036e-10
9.89281e-11
6.37554e-11
3.78059e-11
2.07631e-11
6.58366e-12
4.30658e-15
6.45692e-14
5.95227e-13
3.88852e-12
2.82227e-11
2.18796e-10
2.09772e-09
1.86964e-08
3.51934e-07
9.4337e-06
9.72623e-06
6.79842e-05
6.85686e-05
0.000113978
0.258462
0.890059
0.999995
0.999997
0.999997
0.999994
0.999992
0.999993
0.999995
0.999992
0.999981
0.999547
0.723394
0.0947721
5.85517e-06
0.000134179
0.000262839
0.000128101
0.000130445
5.93135e-06
3.1755e-06
7.93939e-07
2.1284e-07
3.47466e-08
1.44027e-08
3.32796e-09
9.17344e-10
3.21422e-10
2.23249e-10
1.79431e-10
1.41379e-10
1.02263e-10
6.67786e-11
4.03886e-11
2.2092e-11
6.55577e-12
3.51541e-15
5.13483e-14
4.84511e-13
3.25851e-12
2.29259e-11
1.64067e-10
1.41458e-09
1.51321e-08
2.85185e-07
4.56468e-06
1.3948e-05
6.92094e-05
6.88474e-05
0.000284324
0.000776924
0.376814
0.933826
0.999988
0.999992
0.999992
0.99999
0.999986
0.999976
0.999931
0.964776
0.580656
0.0718254
4.23527e-06
5.23971e-06
2.49534e-05
9.23575e-05
0.000153888
2.6693e-05
1.56273e-05
1.00036e-06
3.5658e-07
2.48647e-07
2.40479e-08
1.06914e-08
2.3599e-09
6.21368e-10
2.41846e-10
1.96828e-10
1.76579e-10
1.43991e-10
1.04927e-10
6.90213e-11
4.26136e-11
2.35932e-11
6.19447e-12
2.7986e-15
3.97963e-14
3.90771e-13
2.7654e-12
1.81173e-11
1.19065e-10
9.71793e-10
1.46895e-08
1.97747e-07
3.24389e-06
4.65916e-05
4.51331e-05
8.03674e-05
0.000636275
0.000234359
0.000948862
0.296722
0.754337
0.940691
0.981898
0.977877
0.945349
0.856379
0.639128
0.271637
0.0229966
4.23527e-06
4.02682e-06
4.97229e-06
1.06704e-05
6.79939e-05
0.000229562
1.75233e-05
1.32539e-05
6.20706e-07
2.69084e-07
1.68951e-07
2.85674e-08
6.66765e-09
2.08086e-09
4.74766e-10
1.95707e-10
1.85602e-10
1.77233e-10
1.47229e-10
1.07117e-10
7.18589e-11
4.52611e-11
2.3283e-11
5.45694e-12
2.18357e-15
3.05911e-14
3.17639e-13
2.30842e-12
1.37956e-11
8.5302e-11
7.52044e-10
1.14294e-08
5.06145e-08
3.65487e-06
4.99251e-05
4.6429e-05
0.00025165
0.000636526
0.000125935
0.000143368
0.000117347
0.0757701
0.225589
0.324262
0.312082
0.231745
0.112394
0.0210585
3.91875e-05
3.43893e-05
3.43476e-05
2.71389e-06
2.24211e-06
2.85045e-06
0.000138783
0.000232415
4.41945e-05
2.45468e-06
1.19611e-06
7.54898e-07
3.83087e-08
4.22579e-08
3.19636e-09
1.83704e-09
3.92853e-10
1.8154e-10
1.80851e-10
1.7789e-10
1.47578e-10
1.08311e-10
7.31317e-11
4.50329e-11
2.2075e-11
4.48558e-12
1.65573e-15
2.36511e-14
2.58246e-13
1.85527e-12
1.02813e-11
6.88085e-11
5.44976e-10
2.98777e-09
3.09744e-08
1.22348e-05
4.33734e-05
5.22228e-05
0.000288616
0.000142565
3.63701e-06
2.55419e-05
0.000116815
3.75635e-05
4.01174e-05
5.6784e-05
4.26909e-05
2.7872e-05
2.24273e-05
2.10929e-05
8.98033e-05
4.4247e-05
4.37465e-06
9.18386e-07
9.3992e-07
5.54022e-05
0.000233393
0.000233181
0.000192787
9.36446e-07
1.25912e-06
1.09526e-06
1.75747e-08
3.35499e-08
3.3335e-09
1.20075e-09
3.258e-10
1.80233e-10
1.79812e-10
1.77794e-10
1.46597e-10
1.07382e-10
7.21823e-11
4.34601e-11
1.97303e-11
3.23808e-12
1.24675e-15
1.89339e-14
2.07413e-13
1.42896e-12
7.87259e-12
5.47906e-11
3.25706e-10
8.58146e-10
4.69944e-07
1.65878e-05
1.34311e-05
5.66143e-05
0.000288731
3.62692e-05
8.87768e-08
1.62515e-06
6.68412e-06
3.73722e-05
8.08411e-05
0.000104203
9.18333e-05
6.37548e-05
3.74715e-05
2.09229e-05
9.91111e-06
3.59068e-06
8.92054e-07
7.32864e-07
1.3976e-06
0.000182461
0.000233411
0.000233393
0.000231561
5.55346e-07
6.65479e-07
9.89455e-07
7.44386e-09
4.84547e-09
4.9113e-09
4.02743e-10
2.67626e-10
1.80659e-10
1.80563e-10
1.77331e-10
1.44302e-10
1.04714e-10
6.92884e-11
3.99687e-11
1.60672e-11
1.95003e-12
1.01063e-15
1.64097e-14
1.75993e-13
1.16586e-12
7.07445e-12
4.42535e-11
1.28137e-10
2.03792e-09
1.95729e-06
1.50082e-05
1.35172e-05
0.000119926
0.000288731
5.62821e-05
5.17548e-08
1.29623e-07
7.72015e-07
3.19464e-06
6.04544e-06
7.08946e-06
5.78382e-06
3.95145e-06
2.75097e-06
2.53647e-06
1.55368e-06
7.21492e-07
7.21105e-07
7.2085e-07
2.18494e-06
0.000226684
0.000233411
0.000233411
0.000147466
3.7014e-07
3.41402e-07
2.46087e-07
5.01918e-08
2.18989e-09
4.52965e-09
2.24879e-10
2.04062e-10
1.81892e-10
1.82741e-10
1.7752e-10
1.40513e-10
9.97215e-11
6.38609e-11
3.41498e-11
1.1763e-11
9.86187e-13
9.5465e-16
1.58818e-14
1.72844e-13
1.14627e-12
6.77328e-12
4.37386e-11
1.25847e-10
3.49332e-08
2.68524e-06
2.97968e-06
1.79424e-05
0.000198779
0.000288731
5.82868e-05
4.25725e-08
7.17131e-08
9.92524e-08
2.60136e-07
5.39922e-07
7.59236e-07
5.89999e-07
3.72394e-07
3.40219e-07
9.3908e-07
7.21615e-07
7.21494e-07
7.21606e-07
7.21153e-07
2.10203e-06
0.000206715
0.000233411
0.000201947
1.01858e-05
5.42159e-07
2.50297e-07
2.07373e-08
8.0647e-08
1.65056e-09
1.18848e-09
3.50926e-10
1.89652e-10
1.82872e-10
1.8704e-10
1.76799e-10
1.34739e-10
9.18511e-11
5.56969e-11
2.6818e-11
7.69443e-12
4.38078e-13
9.82027e-16
1.61817e-14
1.81108e-13
1.22494e-12
6.7951e-12
5.08446e-11
3.2866e-10
4.93097e-08
8.5432e-07
9.04026e-07
3.64187e-05
0.000146845
0.000288627
3.32135e-05
4.22178e-08
4.22061e-08
4.22089e-08
5.30975e-08
1.21302e-07
2.01049e-07
1.36128e-07
8.57568e-08
5.29725e-08
9.84602e-07
2.36264e-06
7.30795e-07
7.2171e-07
7.22041e-07
1.83262e-06
0.000185219
0.000232759
0.000112475
3.12927e-07
1.74143e-06
9.13344e-08
9.49086e-09
8.21257e-08
7.24135e-10
2.59842e-10
3.40533e-10
1.9492e-10
1.86114e-10
1.92359e-10
1.74705e-10
1.2588e-10
8.09156e-11
4.53661e-11
1.91123e-11
4.49912e-12
1.76078e-13
1.03619e-15
1.664e-14
1.9561e-13
1.37733e-12
7.07084e-12
5.81777e-11
9.13285e-10
3.72875e-08
3.81295e-08
1.20093e-06
2.97631e-05
6.49528e-05
0.000121072
5.24023e-06
4.22061e-08
4.22061e-08
4.22061e-08
4.22089e-08
6.41512e-08
2.17683e-07
1.46231e-07
7.82429e-08
2.93096e-08
1.89961e-06
2.86429e-06
1.99351e-06
7.22057e-07
7.23593e-07
1.70636e-06
0.000173809
0.00023052
0.000112262
7.22603e-08
1.81098e-06
1.12259e-07
2.58189e-09
1.93294e-08
4.72274e-09
2.18039e-10
2.11247e-10
2.00828e-10
1.92861e-10
1.93619e-10
1.69879e-10
1.12838e-10
6.71994e-11
3.3965e-11
1.22117e-11
2.34094e-12
6.38517e-14
1.04369e-15
1.65498e-14
1.97351e-13
1.41526e-12
7.11788e-12
6.04165e-11
6.87426e-10
9.67808e-09
1.29026e-07
9.71188e-06
9.69404e-06
5.39463e-05
6.56756e-06
4.22107e-08
4.22063e-08
4.22061e-08
4.22063e-08
4.22688e-08
3.3585e-07
1.99293e-06
1.43092e-06
1.39345e-07
1.88572e-08
1.14608e-06
2.86429e-06
2.86429e-06
1.03326e-06
7.63718e-07
1.76349e-06
0.000164985
0.0002283
9.77898e-05
2.15077e-08
3.93784e-07
3.61729e-07
1.66445e-09
1.47994e-09
6.73006e-09
2.32088e-10
2.02934e-10
2.0298e-10
1.98753e-10
1.93915e-10
1.56436e-10
9.53813e-11
5.17505e-11
2.30075e-11
6.92708e-12
1.08221e-12
2.10038e-14
1.01602e-15
1.59077e-14
1.90885e-13
1.37515e-12
6.83651e-12
6.03404e-11
4.98111e-10
7.69127e-10
3.05682e-07
6.65392e-06
6.32077e-06
8.06751e-05
6.28927e-06
4.22154e-08
4.2211e-08
4.22063e-08
4.22226e-08
2.85742e-07
1.93885e-06
1.99293e-06
1.99293e-06
7.25813e-07
1.24942e-08
1.18422e-07
2.84545e-06
2.85075e-06
1.39555e-06
1.04522e-06
4.14428e-06
0.000164844
0.000225902
3.7627e-05
7.94855e-09
7.95203e-08
3.79713e-07
1.79269e-09
5.35723e-10
4.34578e-09
2.03917e-10
2.0252e-10
2.03195e-10
2.01832e-10
1.89425e-10
1.34777e-10
7.45515e-11
3.63341e-11
1.39121e-11
3.47016e-12
4.45797e-13
6.37804e-15
9.35118e-16
1.44029e-14
1.74192e-13
1.26091e-12
6.13938e-12
4.91234e-11
2.73949e-10
1.60803e-09
5.99709e-07
1.03667e-06
2.1307e-05
8.10479e-05
3.19441e-05
5.62551e-07
4.22148e-08
4.22227e-08
4.6978e-08
1.77746e-06
1.98626e-06
1.99293e-06
1.85491e-06
2.39099e-07
1.24344e-08
1.24935e-08
3.9669e-07
2.48593e-06
2.98926e-06
2.06878e-06
5.11712e-06
0.000157505
0.000220694
1.92021e-07
3.58655e-09
2.99541e-08
1.91547e-07
5.12255e-10
2.90904e-10
3.63842e-10
2.04813e-10
2.03592e-10
2.03018e-10
2.01354e-10
1.74843e-10
1.07083e-10
5.29964e-11
2.29127e-11
7.42463e-12
1.52855e-12
1.63701e-13
1.78283e-15
8.20256e-16
1.24539e-14
1.51405e-13
1.11334e-12
5.421e-12
3.95715e-11
1.90974e-10
5.52202e-09
3.51565e-07
3.82814e-07
5.91982e-05
8.10561e-05
8.10479e-05
7.31276e-06
4.22983e-08
4.22913e-08
5.2806e-08
5.27433e-07
1.17393e-06
7.69481e-07
1.13837e-07
1.24344e-08
1.24338e-08
1.24338e-08
1.49926e-08
1.73057e-06
2.98926e-06
2.54551e-06
2.74223e-05
0.000155764
0.000147184
2.14439e-09
2.1533e-09
7.72286e-09
1.53992e-08
1.06547e-08
2.34139e-10
2.11678e-10
2.09842e-10
2.06853e-10
2.01577e-10
1.95957e-10
1.46926e-10
7.67519e-11
3.39666e-11
1.28457e-11
3.47288e-12
5.91705e-13
5.38211e-14
4.59467e-16
7.13828e-16
1.06358e-14
1.29732e-13
9.87921e-13
4.94953e-12
3.31739e-11
2.02935e-10
6.24256e-09
3.052e-08
5.95047e-07
3.29228e-05
8.10561e-05
7.48343e-05
2.22165e-06
5.09912e-07
6.27285e-08
6.12435e-08
8.52103e-08
4.73662e-08
1.31482e-08
1.26542e-08
1.24988e-08
1.24343e-08
1.24346e-08
1.24932e-08
4.81293e-07
2.26314e-06
2.29928e-06
2.32632e-05
0.000143184
7.53016e-06
6.9993e-10
1.53477e-09
2.17574e-09
7.54144e-09
1.3862e-08
2.69378e-10
2.1829e-10
2.23063e-10
2.09813e-10
1.96976e-10
1.77331e-10
1.09291e-10
4.93924e-11
1.9643e-11
6.38599e-12
1.42817e-12
2.03721e-13
1.62043e-14
1.15535e-16
6.18816e-16
9.02077e-15
1.10104e-13
8.78761e-13
4.62635e-12
2.98014e-11
2.58967e-10
4.784e-09
5.66522e-09
1.441e-06
2.21076e-06
8.10561e-05
1.32743e-05
2.05825e-06
1.88647e-06
6.87191e-08
7.21615e-08
5.68187e-06
4.96245e-05
2.18553e-06
1.33115e-08
6.06853e-08
2.19148e-08
1.24359e-08
1.24361e-08
1.2722e-08
6.80696e-07
9.50716e-06
9.47673e-05
4.23515e-05
6.64371e-09
1.55345e-09
1.40587e-09
1.59562e-09
2.0842e-09
8.12192e-09
2.24951e-10
2.25193e-10
2.2932e-10
2.08203e-10
1.8469e-10
1.42591e-10
7.17583e-11
2.88884e-11
1.03086e-11
2.83017e-12
5.24181e-13
6.40403e-14
4.64165e-15
3.06118e-17
5.25583e-16
7.52107e-15
9.1944e-14
7.72659e-13
4.34453e-12
2.8817e-11
2.61423e-10
1.68561e-09
2.78577e-09
1.25616e-06
2.30261e-05
4.94968e-05
1.82286e-05
1.48344e-05
8.52416e-07
8.55714e-08
1.57458e-05
0.000232156
0.000344108
0.000229883
1.5626e-05
1.76817e-08
1.91763e-08
1.24361e-08
1.24808e-08
1.38011e-08
2.88643e-08
2.90561e-05
9.70561e-05
3.62275e-05
2.1935e-09
1.43821e-09
1.23842e-09
1.08281e-09
3.29316e-10
4.4936e-10
2.23789e-10
2.25819e-10
2.28406e-10
2.00797e-10
1.59834e-10
9.9908e-11
4.25446e-11
1.56529e-11
4.93392e-12
1.12979e-12
1.75424e-13
1.89573e-14
1.30825e-15
8.55308e-18
4.33428e-16
6.14879e-15
7.584e-14
6.71701e-13
4.04479e-12
2.72868e-11
2.47604e-10
7.92486e-10
1.77525e-09
4.99643e-07
6.62549e-05
6.70851e-05
6.71197e-05
4.20834e-05
8.88209e-07
1.42907e-06
0.00027054
0.000344177
0.000344147
0.000344147
0.000189023
1.55114e-08
1.50026e-08
1.48763e-08
1.44162e-08
1.88188e-08
4.81214e-08
3.85829e-05
9.81628e-05
5.04674e-05
4.09534e-09
3.11317e-09
6.71956e-09
3.60768e-10
2.47526e-10
2.17331e-10
2.232e-10
2.24213e-10
2.22335e-10
1.80541e-10
1.24069e-10
6.19246e-11
2.35156e-11
7.94473e-12
2.15885e-12
4.10941e-13
5.46017e-14
5.4138e-15
3.68411e-16
2.37039e-18
3.49336e-16
4.97973e-15
6.26739e-14
5.80744e-13
3.66442e-12
2.38233e-11
2.13108e-10
6.46672e-10
7.72552e-10
5.9952e-07
4.09191e-05
6.717e-05
6.72548e-05
3.4979e-05
1.53256e-06
0.000152953
0.000344428
0.00034429
0.000344177
0.000344114
0.000188513
2.13536e-08
2.4772e-08
1.46398e-08
1.05761e-08
1.84571e-08
5.41211e-08
3.7074e-05
9.84193e-05
8.47996e-05
5.42538e-09
4.34153e-09
2.6679e-08
8.67864e-10
2.22596e-10
2.19897e-10
2.23178e-10
2.24197e-10
2.04645e-10
1.48764e-10
8.55449e-11
3.5252e-11
1.23745e-11
3.77335e-12
8.65122e-13
1.37693e-13
1.60528e-14
1.51201e-15
1.03532e-16
6.35074e-19
2.79998e-16
4.06269e-15
5.25842e-14
5.01243e-13
3.19373e-12
2.02999e-11
1.65749e-10
3.10229e-10
2.49869e-09
2.89223e-06
2.7093e-06
6.49471e-05
6.72548e-05
2.69721e-05
2.05888e-06
0.000317466
0.000344384
0.000344177
0.000344107
0.000270785
3.62968e-05
1.1662e-07
3.46032e-08
1.03955e-08
9.54583e-09
1.52842e-08
5.86432e-08
2.95011e-05
9.84253e-05
9.85802e-05
4.84e-06
2.84368e-09
2.66769e-08
8.90559e-09
2.1525e-10
2.14664e-10
2.23205e-10
2.19191e-10
1.74844e-10
1.11608e-10
5.31442e-11
1.91222e-11
6.22246e-12
1.66537e-12
3.18517e-13
4.29385e-14
4.5156e-15
4.15692e-16
2.87064e-17
1.61759e-19
2.28598e-16
3.40158e-15
4.51555e-14
4.38068e-13
2.8031e-12
1.77526e-11
1.20081e-10
1.18113e-10
8.12304e-09
2.3708e-06
4.06888e-07
4.24766e-05
6.72526e-05
2.57128e-05
3.59958e-05
0.000341283
0.0003447
0.000334113
0.000174386
1.52175e-05
2.73147e-08
6.41452e-08
2.55753e-08
9.40944e-09
9.2733e-09
1.11588e-08
6.17099e-08
1.57374e-05
9.84224e-05
9.84253e-05
6.61847e-06
1.15479e-09
2.68172e-08
8.47349e-09
2.13078e-10
2.11573e-10
2.22846e-10
2.02958e-10
1.38553e-10
7.57354e-11
3.0596e-11
1.0058e-11
2.97069e-12
6.79572e-13
1.08366e-13
1.25941e-14
1.22956e-15
1.12944e-16
7.76181e-18
3.96821e-20
1.94138e-16
2.95601e-15
3.97744e-14
3.93075e-13
2.59665e-12
1.54567e-11
7.69239e-11
1.01841e-10
6.04929e-08
1.31918e-07
2.45829e-07
6.98091e-05
2.88445e-05
2.57128e-05
9.85612e-05
0.000186218
0.000122896
1.35989e-05
3.13606e-08
2.73147e-08
2.71289e-08
1.11717e-08
9.49962e-09
9.41869e-09
9.17377e-09
9.35564e-09
4.00636e-08
1.24789e-06
5.94682e-05
9.2933e-05
-5.59723e-09
5.04227e-10
9.60426e-09
3.93169e-09
2.11524e-10
2.09109e-10
2.1909e-10
1.73167e-10
1.01019e-10
4.72877e-11
1.67893e-11
5.11966e-12
1.3353e-12
2.56237e-13
3.42881e-14
3.50428e-15
3.25549e-16
3.00767e-17
2.00799e-18
9.1697e-21
1.71449e-16
2.64839e-15
3.56414e-14
3.57797e-13
2.44693e-12
1.35181e-11
5.42346e-11
1.20799e-10
7.5212e-08
1.33959e-08
2.0242e-05
7.18057e-05
4.29344e-05
6.62306e-05
3.75331e-05
4.36612e-08
3.5512e-08
3.36034e-08
3.3173e-08
3.0231e-08
1.23217e-08
9.40114e-09
9.38754e-09
9.38803e-09
9.10235e-09
1.02301e-08
5.21522e-08
7.34132e-08
1.47828e-06
2.33241e-05
-1.27213e-08
2.84172e-10
4.59835e-10
3.52123e-10
2.11085e-10
2.09222e-10
2.07631e-10
1.34829e-10
6.81849e-11
2.78608e-11
8.92203e-12
2.49479e-12
5.6156e-13
8.95381e-14
1.01447e-14
9.29966e-16
8.3887e-17
7.73062e-18
4.89859e-19
2.01555e-21
1.5399e-16
2.39546e-15
3.1921e-14
3.22463e-13
2.24139e-12
1.19017e-11
4.92652e-11
7.79983e-11
1.54774e-08
4.75169e-09
7.17232e-05
7.19337e-05
7.20756e-05
7.2034e-05
5.1184e-05
1.60127e-06
4.05679e-08
3.12627e-08
3.09768e-08
1.1828e-08
9.42258e-09
9.56164e-09
9.4762e-09
9.00377e-09
9.01321e-09
9.19629e-09
6.23103e-07
1.28339e-05
2.18138e-05
2.79047e-08
-3.35059e-10
2.20255e-10
2.55827e-10
2.09859e-10
2.10185e-10
2.09789e-10
1.81062e-10
9.71171e-11
4.33226e-11
1.57882e-11
4.59394e-12
1.15068e-12
2.19981e-13
2.91022e-14
2.82155e-15
2.36806e-16
2.11941e-17
1.91786e-18
1.14447e-19
4.39167e-22
1.37948e-16
2.15057e-15
2.82755e-14
2.79399e-13
1.94701e-12
1.01334e-11
4.30587e-11
4.35626e-11
5.14352e-11
2.10219e-09
4.76853e-05
7.18057e-05
7.17724e-05
7.07685e-05
1.39465e-05
5.07017e-07
4.86746e-07
3.13587e-07
1.80174e-07
1.04313e-08
9.09587e-09
9.24617e-09
9.00551e-09
9.00393e-09
9.00297e-09
9.44258e-09
1.35734e-06
4.86393e-05
5.81742e-05
5.24645e-09
2.13103e-10
2.30366e-10
2.26476e-10
2.1422e-10
2.12589e-10
2.06204e-10
1.43875e-10
6.56236e-11
2.63135e-11
8.6373e-12
2.26694e-12
4.96843e-13
7.97501e-14
8.77965e-15
7.3794e-16
5.83089e-17
5.27166e-18
4.6309e-19
2.61945e-20
9.57603e-23
1.221e-16
1.93791e-15
2.52822e-14
2.49207e-13
1.63498e-12
7.20337e-12
5.31433e-11
1.1185e-09
6.47673e-10
4.40954e-08
1.20712e-06
1.81922e-05
3.05005e-05
8.79065e-06
2.65271e-06
2.79778e-06
3.11611e-06
2.03645e-06
6.80527e-08
9.09126e-09
9.01503e-09
9.00588e-09
9.00196e-09
9.00445e-09
9.00152e-09
1.31052e-08
4.14836e-07
3.75583e-05
5.8652e-05
2.09296e-07
2.04135e-10
2.24968e-10
2.24599e-10
2.21045e-10
2.14023e-10
1.88454e-10
1.04976e-10
4.21411e-11
1.53539e-11
4.51396e-12
1.05401e-12
1.98168e-13
2.64263e-14
2.42978e-15
1.79941e-16
1.39134e-17
1.26947e-18
1.07277e-19
5.73713e-21
1.97288e-23
1.09559e-16
1.86816e-15
2.40359e-14
2.41701e-13
1.38226e-12
3.39491e-12
1.12642e-10
3.90287e-09
8.71418e-10
1.26048e-07
1.25999e-07
5.31617e-07
1.43022e-06
2.42551e-06
2.60897e-06
3.11046e-06
3.12491e-06
2.4766e-06
1.6389e-07
9.17795e-09
9.01254e-09
9.00264e-09
8.99938e-09
9.00325e-09
8.99893e-09
1.00315e-08
3.14203e-06
5.39293e-05
5.81903e-05
3.88369e-10
2.02858e-10
2.23599e-10
2.23573e-10
2.237e-10
2.1043e-10
1.5607e-10
7.08693e-11
2.58794e-11
8.53824e-12
2.21352e-12
4.53088e-13
7.18061e-14
7.86248e-15
6.05856e-16
4.06546e-17
3.18138e-18
2.86491e-19
2.28825e-20
1.11887e-21
3.85415e-24
1.06985e-16
1.89688e-15
2.40984e-14
2.35106e-13
1.25079e-12
2.33886e-12
2.25919e-10
3.91349e-09
8.11626e-10
8.17853e-10
1.09899e-05
3.22457e-05
3.96669e-05
1.61328e-05
4.59043e-06
2.28268e-06
9.96295e-07
4.06176e-08
3.8169e-08
9.57368e-09
9.00422e-09
9.00244e-09
9.00245e-09
8.99729e-09
8.98852e-09
1.24772e-08
9.37865e-06
0.000104638
4.63528e-05
2.09407e-10
1.79177e-10
2.22973e-10
2.30636e-10
2.1904e-10
1.97567e-10
1.16239e-10
4.47162e-11
1.51504e-11
4.44851e-12
9.99601e-13
1.76768e-13
2.32065e-14
2.06242e-15
1.3435e-16
8.57404e-18
6.81518e-19
5.85638e-20
4.22913e-21
1.69404e-22
7.76538e-25
1.09616e-16
2.03631e-15
2.45605e-14
2.21678e-13
1.22502e-12
3.83468e-12
2.4957e-10
3.62918e-09
7.53707e-10
6.65767e-10
2.53501e-05
5.24888e-05
5.26345e-05
3.85021e-05
1.89002e-06
3.96059e-08
3.562e-08
4.08829e-08
2.93097e-08
9.83968e-09
1.37548e-06
1.55871e-06
2.16555e-07
8.99787e-09
9.25011e-09
1.59085e-08
1.06616e-05
0.000106199
4.85394e-05
1.36507e-10
1.79466e-10
2.6065e-10
2.42454e-10
2.00525e-10
1.73295e-10
7.91483e-11
2.64789e-11
8.33629e-12
2.12883e-12
4.08797e-13
6.14629e-14
6.56574e-15
4.69854e-16
2.66279e-17
1.69493e-18
1.31994e-19
1.02455e-20
6.29794e-22
2.13773e-23
1.64094e-25
1.23472e-16
2.41976e-15
2.58892e-14
2.04295e-13
1.23002e-12
8.88224e-12
2.15825e-10
1.2295e-09
5.608e-10
5.63478e-10
8.72566e-06
5.26345e-05
5.26345e-05
2.42633e-05
1.16888e-07
3.562e-08
3.29526e-08
3.10912e-08
2.99809e-08
2.30727e-07
6.55306e-06
6.53104e-06
1.53727e-06
1.11405e-08
1.2961e-08
5.91252e-07
8.46614e-05
0.000106494
8.57258e-05
4.81019e-11
1.7494e-10
4.3741e-10
2.57179e-10
1.64889e-10
1.41956e-10
5.07342e-11
1.45951e-11
4.21665e-12
9.18912e-13
1.49062e-13
1.86888e-14
1.59697e-15
9.25179e-17
4.8263e-18
3.05964e-19
2.18006e-20
1.56927e-21
8.90097e-23
2.52704e-24
3.33594e-26
1.67014e-16
3.21783e-15
2.88038e-14
1.99251e-13
1.2776e-12
1.30782e-11
1.42826e-10
1.31397e-10
7.97609e-10
4.88075e-06
5.89648e-06
5.22308e-05
4.45314e-05
4.01685e-06
8.7648e-08
7.63674e-08
8.03227e-08
3.70217e-08
3.10659e-08
5.46057e-06
6.65123e-06
6.65123e-06
1.31467e-06
1.43478e-08
2.20137e-08
1.05309e-05
0.000109954
0.000108207
7.54037e-05
2.184e-12
1.89613e-10
4.65581e-10
2.93377e-10
1.21773e-10
1.08873e-10
3.09014e-11
7.35884e-12
1.9138e-12
3.52161e-13
4.76584e-14
4.87216e-15
3.29252e-16
1.60112e-17
8.01973e-19
4.90636e-20
3.4949e-21
2.51718e-22
1.42022e-23
3.8715e-25
6.34463e-27
2.71617e-16
4.65619e-15
3.40735e-14
2.03025e-13
1.38575e-12
1.30537e-11
9.22186e-11
9.35719e-11
1.8644e-10
4.99898e-06
4.52749e-05
5.17336e-05
2.1205e-05
1.12701e-07
8.31944e-08
8.04522e-08
8.03227e-08
1.60125e-06
1.17657e-06
5.4364e-06
4.65635e-06
1.83306e-06
4.1061e-07
2.59474e-08
8.84891e-08
0.000102078
0.000109883
0.000109883
1.34616e-05
3.46162e-12
2.44887e-10
4.65581e-10
2.84997e-10
8.62781e-11
7.8392e-11
1.72823e-11
3.3337e-12
7.63583e-13
1.17957e-13
1.31104e-14
1.07005e-15
5.76931e-17
2.49034e-18
1.2541e-19
8.10671e-21
6.10823e-22
4.47641e-23
2.47499e-24
6.50873e-26
1.1594e-27
4.90738e-16
7.08029e-15
4.3007e-14
2.22128e-13
1.58337e-12
1.25085e-11
5.3261e-11
8.75365e-11
4.11591e-07
2.311e-06
5.07928e-05
4.88149e-05
4.00836e-06
9.56478e-08
8.59749e-08
8.32105e-08
8.15654e-08
5.14981e-06
8.60685e-06
8.08594e-07
4.63074e-07
3.97513e-07
3.39285e-07
8.85112e-08
6.82488e-05
0.000110088
0.000109985
0.000104308
-4.02316e-08
1.07165e-12
3.30571e-10
4.65581e-10
2.09876e-10
6.29628e-11
5.07486e-11
8.38914e-12
1.33957e-12
2.64159e-13
3.39541e-14
3.04938e-15
1.97542e-16
8.89768e-18
3.71487e-19
2.11418e-20
1.46394e-21
1.11592e-22
8.27859e-24
4.59634e-25
1.10263e-26
2.09801e-28
8.956e-16
1.09979e-14
5.76509e-14
2.7073e-13
1.94929e-12
1.42211e-11
6.27711e-11
4.30352e-09
5.05733e-07
4.89428e-07
5.07928e-05
2.40479e-05
2.15198e-07
1.46215e-07
1.30249e-07
8.59906e-08
8.33508e-08
4.29128e-06
1.45328e-05
1.29129e-05
5.20774e-07
4.5816e-07
4.19988e-07
5.61811e-05
0.000110088
0.000110088
0.000110088
3.02004e-05
-2.86387e-09
2.32526e-12
3.29759e-10
4.19229e-10
1.02095e-10
4.58095e-11
2.74233e-11
3.38232e-12
4.73481e-13
7.86521e-14
8.27766e-15
5.97627e-16
3.17466e-17
1.26743e-18
6.26567e-20
3.86007e-21
2.70581e-22
2.14446e-23
1.60801e-24
8.70416e-26
2.05451e-27
3.67748e-29
1.62913e-15
1.7096e-14
7.97818e-14
3.48583e-13
2.74532e-12
1.99845e-11
5.62142e-11
6.29777e-10
5.83447e-08
2.24852e-05
5.07928e-05
1.3365e-05
1.55676e-07
1.54054e-07
3.54055e-07
7.99861e-07
8.35243e-07
4.73439e-06
1.79826e-05
8.76971e-05
6.26379e-05
8.40969e-06
4.59494e-05
0.000108903
0.000109496
0.000110088
7.5688e-05
8.10012e-08
-1.07311e-09
2.42728e-11
2.79086e-10
2.95607e-10
5.10792e-11
3.05988e-11
1.16097e-11
1.1189e-12
1.46202e-13
2.01028e-14
1.70566e-15
1.01787e-16
4.73652e-18
2.06669e-19
1.16478e-20
7.16838e-22
5.30095e-23
4.26017e-24
3.13831e-25
1.6686e-26
4.08004e-28
7.13514e-30
2.81449e-15
2.52961e-14
1.03769e-13
4.61931e-13
3.69929e-12
2.03411e-11
5.67872e-11
2.11103e-10
6.73152e-09
4.73434e-05
4.816e-05
2.47841e-06
1.55045e-07
1.5501e-07
1.71871e-06
7.67241e-06
6.60535e-06
1.08019e-05
8.39632e-05
9.07385e-05
9.09422e-05
8.5677e-05
0.000103989
0.000105739
0.000106141
5.59288e-05
3.70899e-06
1.69427e-08
-2.10491e-10
5.22315e-11
1.80894e-10
1.53351e-10
3.15128e-11
1.67582e-11
3.77438e-12
3.11111e-13
3.92554e-14
4.43023e-15
3.0563e-16
1.62755e-17
7.40873e-19
3.88716e-20
2.14887e-21
1.40364e-22
1.05901e-23
8.44262e-25
6.1311e-26
3.19402e-27
8.08744e-29
1.4358e-30
4.10068e-15
3.29056e-14
1.2958e-13
5.9807e-13
3.04378e-12
1.91065e-11
1.42938e-10
1.93151e-08
1.74349e-05
4.40796e-05
7.29833e-06
1.69401e-07
1.6361e-07
1.55041e-07
5.68243e-06
1.1224e-05
1.08085e-05
3.56224e-05
9.07923e-05
9.08364e-05
9.07382e-05
9.06943e-05
8.46366e-05
3.01563e-05
1.35287e-05
2.49314e-06
1.84679e-07
3.54717e-09
-1.34023e-11
4.93793e-11
1.02107e-10
7.71598e-11
1.83133e-11
6.95648e-12
9.70516e-13
7.60858e-14
9.2083e-15
8.61424e-16
5.11378e-17
2.60469e-18
1.33435e-19
7.23519e-21
4.17853e-22
2.81142e-23
2.11215e-24
1.67374e-25
1.19279e-26
6.1186e-28
1.59819e-29
2.9069e-31
5.03813e-15
3.87754e-14
1.5841e-13
7.68491e-13
3.77668e-12
3.25979e-11
8.05205e-10
2.10723e-06
2.0219e-05
1.00168e-05
1.69402e-07
1.69401e-07
4.49449e-07
1.57011e-06
5.18455e-06
5.99555e-06
3.92723e-06
4.77302e-05
9.08939e-05
9.08304e-05
9.13012e-05
8.70505e-05
9.42138e-06
7.70194e-07
7.5923e-07
3.67186e-07
3.40171e-08
7.80368e-10
3.17274e-11
4.39812e-11
6.84669e-11
4.00465e-11
8.61672e-12
2.1497e-12
2.12295e-13
1.70795e-14
1.93753e-15
1.56329e-16
8.76521e-18
4.64683e-19
2.60358e-20
1.38871e-21
8.40554e-23
5.63433e-24
4.22586e-25
3.31377e-26
2.32116e-27
1.17656e-28
3.17794e-30
5.95131e-32
6.16395e-15
4.85661e-14
2.35069e-13
1.28432e-12
8.01489e-12
8.61834e-11
3.0692e-08
2.7511e-06
9.18494e-06
1.68615e-05
1.89023e-06
8.77357e-07
1.56224e-05
4.09775e-06
5.49406e-08
1.14166e-06
1.04644e-06
3.91065e-05
9.09147e-05
9.08939e-05
8.49064e-05
1.02937e-05
3.87305e-07
1.76627e-07
1.70273e-07
7.77879e-08
7.12714e-09
2.04756e-10
3.37145e-11
3.47669e-11
5.04226e-11
1.87473e-11
3.08305e-12
5.20923e-13
4.31794e-14
3.64931e-15
3.8684e-16
2.86643e-17
1.60753e-18
9.15612e-20
5.14259e-21
2.80777e-22
1.69581e-23
1.13128e-24
8.4668e-26
6.56366e-27
4.52771e-28
2.27643e-29
6.38344e-31
1.23774e-32
8.71036e-15
7.30831e-14
4.36903e-13
2.79746e-12
2.54827e-11
3.83924e-10
4.63031e-08
9.52185e-07
1.46293e-06
3.42238e-05
1.07052e-05
5.24771e-06
1.98641e-05
1.99786e-06
5.3685e-08
5.49404e-08
1.69176e-07
1.49118e-05
7.05155e-05
7.58434e-05
9.47836e-06
2.8073e-07
7.58483e-08
4.21161e-08
3.77764e-08
1.66591e-08
1.51463e-09
6.62639e-11
2.63016e-11
2.88501e-11
3.47753e-11
7.04868e-12
8.42855e-13
1.10435e-13
8.73678e-15
7.75176e-16
7.84471e-17
5.61357e-18
3.15507e-19
1.85806e-20
1.04217e-21
5.78658e-23
3.46148e-24
2.29009e-25
1.7017e-26
1.30332e-27
8.8717e-29
4.443e-30
1.29982e-31
2.625e-33
1.3433e-14
1.12083e-13
7.21314e-13
5.00739e-12
3.83318e-11
3.39038e-10
1.34826e-08
5.67731e-07
2.75816e-05
3.41983e-05
3.42433e-05
3.37838e-05
1.14269e-05
5.27692e-08
5.24353e-08
5.38262e-08
3.05828e-07
1.95855e-06
4.76065e-06
6.58837e-06
2.70461e-07
5.40458e-08
1.70204e-08
9.73209e-09
8.37864e-09
3.57605e-09
3.31006e-10
3.00444e-11
2.31854e-11
2.43897e-11
1.84191e-11
2.02952e-12
1.92084e-13
2.29892e-14
1.82838e-15
1.71027e-16
1.68198e-17
1.18401e-18
6.65758e-20
3.97045e-21
2.19843e-22
1.20769e-23
7.1369e-25
4.67417e-26
3.43454e-27
2.59981e-28
1.75017e-29
8.7712e-31
2.692e-32
5.69179e-34
1.70541e-14
1.36759e-13
8.6554e-13
4.89651e-12
2.73665e-11
2.21213e-10
5.19441e-09
2.78794e-06
3.4174e-05
3.42222e-05
2.48329e-05
3.28955e-05
4.21857e-06
5.24296e-08
1.60765e-07
1.91827e-07
1.07702e-07
2.98822e-07
3.31568e-07
1.65405e-07
4.63204e-08
1.01451e-08
3.6075e-09
2.25403e-09
1.87056e-09
7.70252e-10
9.62002e-11
1.99933e-11
1.7226e-11
1.797e-11
6.46972e-12
4.58908e-13
4.19134e-14
4.99708e-15
4.05843e-16
3.99018e-17
3.82014e-18
2.66672e-19
1.53703e-20
9.13292e-22
4.87913e-23
2.6125e-24
1.49427e-25
9.69108e-27
6.9864e-28
5.22129e-29
3.48457e-30
1.75641e-31
5.68636e-33
1.26315e-34
1.84627e-14
1.48715e-13
8.63373e-13
3.69666e-12
2.61774e-11
5.55395e-10
2.2363e-07
2.39744e-05
3.40087e-05
1.64482e-05
1.68288e-05
3.24763e-05
3.24352e-07
3.09658e-07
6.79808e-07
8.7841e-10
7.5247e-09
4.70877e-08
4.91924e-08
2.46438e-08
7.4597e-09
2.013e-09
8.36556e-10
5.58913e-10
4.30918e-10
2.01556e-10
3.59026e-11
1.42675e-11
1.26754e-11
9.00232e-12
1.57021e-12
9.1728e-14
9.65544e-15
1.14622e-15
9.66422e-17
9.76367e-18
9.11343e-19
6.42917e-20
3.92462e-21
2.28941e-22
1.19053e-23
5.88703e-25
3.28594e-26
2.05084e-27
1.44025e-28
1.05909e-29
7.0193e-31
3.57763e-32
1.22761e-33
2.86669e-35
2.14286e-14
1.79628e-13
1.02439e-12
4.80242e-12
5.30843e-11
1.45643e-09
9.17333e-07
1.7381e-05
1.85588e-05
1.65328e-05
2.31043e-05
5.76398e-06
1.13608e-06
1.16274e-06
6.41295e-07
1.83712e-10
1.79334e-09
7.81888e-09
7.02547e-09
3.92508e-09
1.38261e-09
4.69304e-10
2.81943e-10
2.24589e-10
1.53111e-10
6.03859e-11
1.58892e-11
9.9952e-12
7.47101e-12
3.05008e-12
3.0504e-13
1.92007e-14
2.39169e-15
2.77171e-16
2.4522e-17
2.48396e-18
2.28433e-19
1.66488e-20
1.09517e-21
6.62577e-23
3.39707e-24
1.54939e-25
7.74589e-27
4.51185e-28
3.03906e-29
2.17568e-30
1.43443e-31
7.4328e-33
2.71303e-34
6.65733e-36
3.05221e-14
2.76822e-13
1.71879e-12
1.1169e-11
1.4177e-10
2.71244e-08
7.96225e-07
1.00197e-06
2.37625e-06
4.42153e-05
5.97155e-05
1.35923e-06
1.35371e-06
1.27278e-06
2.72295e-07
1.29987e-10
5.00103e-10
1.3693e-09
1.04166e-09
7.44107e-10
3.23829e-10
2.01323e-10
1.54925e-10