/*--------------------------------*- C++ -*----------------------------------*\
  =========                 |
  \\      /  F ield         | OpenFOAM: The Open Source CFD Toolbox
   \\    /   O peration     | Website:  https://openfoam.org
    \\  /    A nd           | Version:  9
     \\/     M anipulation  |
\*---------------------------------------------------------------------------*/
FoamFile
{
    format      ascii;
    class       surfaceScalarField;
    location    "0.11";
    object      alphaPhi0.water;
}
// * * * * * * * * * * * * * * * * * * * * * * * * * * * * * * * * * * * * * //

dimensions      [0 3 -1 0 0 0 0];

internalField   nonuniform List<scalar> 
9850
(
-1.4644e-20
5.82965e-20
-1.80489e-19
8.92935e-19
-1.9954e-18
8.38246e-18
-1.24286e-17
7.48732e-17
-1.47951e-17
5.25314e-16
0
5.54829e-15
0
6.47831e-14
0
7.48709e-13
0
8.26227e-12
-1.56229e-12
9.00444e-11
0
3.73661e-10
0
7.04275e-10
-1.39069e-07
8.39319e-08
-5.31791e-07
1.49621e-07
-6.24094e-07
-3.64798e-07
-6.79383e-07
-4.80327e-07
-6.91722e-07
-5.15149e-07
-6.72291e-07
-5.76022e-07
-6.39105e-07
-6.372e-07
-6.02142e-07
-6.82478e-07
-5.70185e-07
-5.87133e-07
-5.37157e-07
-5.84012e-07
-5.0378e-07
-5.69633e-07
-4.73271e-07
-5.30743e-07
-4.50378e-07
-4.60116e-07
-4.40769e-07
-3.62802e-07
-4.49913e-07
-2.53353e-07
-4.81723e-07
-1.37482e-07
-5.35663e-07
7.4764e-09
-2.75652e-07
1.58589e-07
-1.63283e-09
4.20531e-08
-2.9543e-10
2.83371e-10
-6.88317e-11
4.40299e-10
0
2.02882e-10
0
8.08385e-11
0
2.39645e-11
0
6.23516e-12
0
1.54511e-12
0
3.83237e-13
0
9.67992e-14
0
2.52726e-14
2.1242e-17
6.7666e-15
1.1432e-16
1.58106e-15
1.18402e-16
7.60306e-16
8.47393e-17
4.6356e-16
4.8949e-17
2.6714e-16
2.59675e-17
1.42601e-16
1.29864e-17
7.21601e-17
5.35229e-18
3.24524e-17
1.04659e-17
-1.97684e-20
7.56269e-20
-2.29769e-19
1.10691e-18
-2.22805e-18
9.95987e-18
-1.34766e-17
8.08724e-17
-9.53557e-18
5.86982e-16
0
6.10246e-15
0
6.83634e-14
0
7.61264e-13
-1.80155e-12
8.65499e-12
-1.43145e-12
8.63507e-11
-1.42433e-12
3.18326e-10
3.60149e-10
1.54905e-10
-7.62139e-08
2.28321e-08
-4.93698e-07
2.45244e-07
-6.29439e-07
-2.29891e-07
-6.85983e-07
-4.23813e-07
-6.91404e-07
-5.09733e-07
-6.70606e-07
-5.96821e-07
-6.41582e-07
-6.66223e-07
-6.11719e-07
-7.12341e-07
-5.86921e-07
-6.11931e-07
-5.61317e-07
-6.09616e-07
-5.3537e-07
-5.9558e-07
-5.12162e-07
-5.5395e-07
-4.94816e-07
-4.77462e-07
-4.86815e-07
-3.70803e-07
-4.95296e-07
-2.4487e-07
-5.29981e-07
-1.02798e-07
-5.92286e-07
7.20632e-08
-2.02449e-07
1.61675e-07
-1.15344e-09
1.66304e-08
-3.29177e-10
2.28973e-10
-1.00224e-10
3.57198e-10
-9.80921e-12
1.11927e-10
0
5.46718e-11
0
1.97817e-11
0
5.69506e-12
0
1.45942e-12
0
3.65904e-13
0
9.30612e-14
0
2.44314e-14
1.95452e-17
6.57841e-15
8.64458e-17
1.62311e-15
8.59274e-17
7.74664e-16
6.07038e-17
4.64273e-16
3.63535e-17
2.70982e-16
2.01598e-17
1.49392e-16
1.03557e-17
7.78065e-17
4.29985e-18
3.55515e-17
1.18542e-17
-2.22605e-20
8.1698e-20
-2.59892e-19
1.17381e-18
-2.24433e-18
1.04624e-17
-1.33672e-17
8.14105e-17
-9.33471e-18
5.95634e-16
0
6.07905e-15
0
6.70921e-14
0
7.42729e-13
0
7.9892e-12
-2.71863e-11
9.76704e-11
0
7.09696e-10
-1.20712e-10
2.15915e-10
-1.93514e-08
6.3214e-09
-4.45823e-07
2.83282e-07
-6.16969e-07
-6.91933e-08
-6.66336e-07
-3.74453e-07
-6.64961e-07
-5.1111e-07
-6.48788e-07
-6.12995e-07
-6.3045e-07
-6.84561e-07
-6.12959e-07
-7.29832e-07
-5.99517e-07
-6.25372e-07
-5.855e-07
-6.23634e-07
-5.71165e-07
-6.09915e-07
-5.62097e-07
-5.63018e-07
-5.63394e-07
-4.76165e-07
-5.74356e-07
-3.59841e-07
-5.94648e-07
-2.24571e-07
-6.2705e-07
-7.03778e-08
-6.17041e-07
1.21044e-07
-4.29369e-08
8.72843e-08
-4.21782e-10
1.05979e-09
-2.86539e-10
2.15923e-10
-9.04837e-11
2.22047e-10
-1.30533e-11
6.80285e-11
-1.30428e-12
2.87866e-11
0
1.21042e-11
0
4.29615e-12
0
1.19264e-12
0
3.05798e-13
0
7.8307e-14
0
2.06226e-14
2.10659e-17
5.49535e-15
5.7639e-17
1.55538e-15
5.39955e-17
7.72742e-16
3.79513e-17
4.6109e-16
2.35583e-17
2.75665e-16
1.35377e-17
1.57243e-16
7.09852e-18
8.37127e-17
3.02573e-18
3.97103e-17
1.31997e-17
-2.19776e-20
8.21654e-20
-2.5657e-19
1.17844e-18
-2.13179e-18
1.04938e-17
-1.273e-17
7.88921e-17
-9.29701e-18
5.8373e-16
0
5.78357e-15
0
6.21871e-14
0
6.70514e-13
0
7.1978e-12
-5.41349e-11
1.13764e-10
-4.16582e-12
7.22773e-10
0
3.62917e-10
5.07411e-09
5.78521e-10
-2.78354e-07
2.12516e-07
-5.37712e-07
1.04548e-07
-5.8427e-07
-3.27967e-07
-5.92407e-07
-5.02975e-07
-5.96756e-07
-6.08646e-07
-5.99283e-07
-6.82034e-07
-6.00107e-07
-7.29008e-07
-6.02463e-07
-6.23015e-07
-6.04176e-07
-6.21921e-07
-6.03433e-07
-6.10658e-07
-6.09748e-07
-5.56703e-07
-6.37685e-07
-4.48229e-07
-6.85578e-07
-3.11946e-07
-7.32605e-07
-1.77547e-07
-7.60058e-07
-4.16811e-08
-4.15733e-07
6.6615e-08
-2.12211e-09
1.70829e-08
-3.52023e-10
9.87606e-11
-1.9361e-10
1.98997e-10
-5.03677e-11
1.63688e-10
-1.0368e-11
3.62044e-11
-2.06705e-12
1.96149e-11
-2.79256e-13
6.479e-12
0
2.1986e-12
0
7.4931e-13
0
1.98521e-13
0
5.13579e-14
0
1.36307e-14
1.81747e-17
3.60448e-15
2.80545e-17
1.35951e-15
2.36196e-17
7.41023e-16
1.66077e-17
4.549e-16
1.07191e-17
2.83923e-16
6.29954e-18
1.67257e-16
3.34002e-18
9.08384e-17
1.46511e-18
4.52434e-17
1.45955e-17
-2.06339e-20
7.87604e-20
-2.45679e-19
1.11558e-18
-1.92698e-18
9.9908e-18
-1.1797e-17
7.09931e-17
-1.63377e-17
5.38097e-16
0
4.92695e-15
0
5.05284e-14
0
5.32458e-13
0
5.15932e-12
-7.51269e-11
1.17326e-10
-3.7011e-11
7.51134e-10
0
3.88927e-10
1.62481e-10
1.60798e-10
-9.16613e-08
8.0684e-08
-3.24548e-07
2.08835e-07
-4.11178e-07
-2.41884e-07
-4.67171e-07
-4.4699e-07
-5.14576e-07
-5.61243e-07
-5.46658e-07
-6.49953e-07
-5.68817e-07
-7.06849e-07
-5.89394e-07
-6.02438e-07
-6.09899e-07
-6.01416e-07
-6.21918e-07
-5.98639e-07
-6.33242e-07
-5.45379e-07
-6.70839e-07
-4.10632e-07
-7.37755e-07
-2.45032e-07
-7.95222e-07
-1.20087e-07
-7.11841e-07
-6.52608e-08
-1.1652e-07
-7.55913e-09
-1.23414e-09
0
-4.38099e-10
1.41454e-10
-8.23135e-11
2.9832e-10
-3.52391e-11
1.9993e-10
-6.97645e-12
2.23322e-11
-2.45524e-12
1.53708e-11
-4.26351e-13
4.86712e-12
-8.75579e-14
1.02497e-12
-1.74327e-14
3.7445e-13
-3.11169e-15
1.0894e-13
-6.04052e-16
2.88421e-14
-1.18199e-16
7.76499e-15
-2.89637e-17
2.18303e-15
-1.17182e-17
1.08261e-15
-6.82963e-18
6.74843e-16
-4.47803e-18
4.50597e-16
-2.89314e-18
2.94711e-16
-1.76455e-18
1.78052e-16
-1.06155e-18
9.87761e-17
-5.41084e-19
5.10318e-17
1.57807e-17
-1.81278e-20
6.96969e-20
-2.21369e-19
9.7186e-19
-1.63193e-18
8.75918e-18
-1.0367e-17
5.93647e-17
-2.75896e-17
4.542e-16
0
3.81168e-15
0
3.69344e-14
0
3.78099e-13
0
4.58991e-12
-1.7731e-11
1.04525e-10
-1.74489e-11
1.45633e-10
0
2.05954e-10
-1.13201e-10
1.67782e-10
-3.21235e-08
2.3064e-09
-1.00239e-07
9.44352e-08
-2.19231e-07
-1.25207e-07
-3.32015e-07
-3.34238e-07
-4.22533e-07
-4.70726e-07
-4.79647e-07
-5.92839e-07
-5.19126e-07
-6.6737e-07
-5.56898e-07
-5.64666e-07
-5.98028e-07
-5.60286e-07
-6.25051e-07
-5.71617e-07
-6.31676e-07
-5.38755e-07
-6.47148e-07
-3.95161e-07
-6.87772e-07
-2.04408e-07
-7.03615e-07
-1.00001e-07
-2.1625e-07
-4.07529e-08
-1.2424e-09
-1.22955e-10
-1.59538e-10
6.16513e-11
-1.5883e-10
1.73676e-10
-2.7408e-10
1.49736e-10
-1.49646e-11
2.3507e-10
-6.6062e-12
1.50204e-11
-2.60447e-12
1.01375e-11
-4.47392e-13
3.65475e-12
-9.57702e-14
9.18767e-13
-2.52616e-14
1.94052e-13
-6.11897e-15
6.55732e-14
-1.43905e-15
1.65884e-14
-3.18096e-16
4.41718e-15
-1.03403e-16
1.41746e-15
-5.6016e-17
8.67024e-16
-3.89156e-17
6.22681e-16
-2.76441e-17
4.50274e-16
-1.82999e-17
3.05398e-16
-1.11238e-17
1.87715e-16
-6.55504e-18
1.06456e-16
-3.08889e-18
5.54437e-17
1.62951e-17
-1.47658e-20
5.75218e-20
-1.8301e-19
7.87953e-19
-1.32195e-18
7.19416e-18
-8.6827e-18
4.86916e-17
-3.30481e-17
3.64276e-16
0
2.8346e-15
0
2.59098e-14
0
2.92752e-13
-2.99868e-12
5.31782e-12
-1.34163e-12
6.34388e-11
-1.75213e-11
9.47008e-11
-1.32151e-14
1.92332e-10
-1.15064e-11
1.82178e-10
0
4.05555e-10
-7.64989e-08
1.17908e-09
-1.61021e-07
-6.59652e-08
-2.64742e-07
-2.31251e-07
-3.5145e-07
-3.84044e-07
-4.08512e-07
-5.35779e-07
-4.56046e-07
-6.19834e-07
-5.05902e-07
-5.14808e-07
-5.64841e-07
-5.01345e-07
-6.15585e-07
-5.20865e-07
-6.37619e-07
-5.167e-07
-6.39848e-07
-3.9259e-07
-6.69855e-07
-1.62577e-07
-2.45189e-07
-3.15399e-08
-1.89603e-10
-5.91104e-11
-1.23187e-10
-5.22805e-12
-9.17154e-11
1.07828e-11
-1.11625e-10
2.06899e-11
-1.41782e-10
1.16096e-10
-4.83571e-11
1.06234e-10
-6.36208e-12
2.2159e-11
-1.98722e-12
6.16525e-12
-5.04251e-13
2.02611e-12
-1.009e-13
1.01051e-12
-2.39485e-14
1.29371e-13
-6.42489e-15
4.76959e-14
-1.43721e-15
1.13133e-14
-3.1607e-16
2.90484e-15
-1.27774e-16
1.03411e-15
-8.67435e-17
7.40191e-16
-6.78807e-17
6.01176e-16
-5.08184e-17
4.55992e-16
-3.43497e-17
3.14722e-16
-2.13445e-17
1.95537e-16
-1.26236e-17
1.13129e-16
-5.69914e-18
5.87461e-17
1.63064e-17
-1.13698e-20
4.58487e-20
-1.41652e-19
6.1644e-19
-1.06868e-18
5.7869e-18
-7.11832e-18
4.06119e-17
-3.2554e-17
2.86326e-16
0
2.08524e-15
0
1.84e-14
0
2.52458e-13
0
4.09559e-12
0
3.84412e-11
-1.70313e-11
3.37448e-10
0
1.5556e-10
-3.68129e-11
1.84231e-10
0
8.43931e-11
-1.97562e-08
0
-1.647e-07
-2.61876e-08
-2.56854e-07
-1.36686e-07
-3.00408e-07
-3.40621e-07
-3.39067e-07
-4.96939e-07
-3.89377e-07
-5.69392e-07
-4.40712e-07
-4.63354e-07
-4.96282e-07
-4.45531e-07
-5.62781e-07
-4.53772e-07
-6.28854e-07
-4.48783e-07
-6.42412e-07
-2.12656e-07
-2.05598e-07
-3.57684e-08
-1.69377e-10
5.87969e-10
-8.57541e-12
-3.83133e-12
-1.20282e-12
-2.29165e-12
-1.46556e-11
2.31545e-13
-4.96101e-11
2.66443e-11
-8.63712e-11
2.67831e-10
-3.00348e-11
2.94409e-11
-7.48678e-12
3.80818e-11
-9.41064e-13
2.80471e-12
-4.41526e-13
1.22567e-12
-1.19009e-13
8.72361e-13
-2.32158e-14
1.2799e-13
-6.29327e-15
3.53227e-14
-1.33701e-15
9.33278e-15
-2.84679e-16
2.18269e-15
-1.40777e-16
8.22881e-16
-1.13559e-16
6.79579e-16
-9.64887e-17
5.98394e-16
-7.41005e-17
4.66088e-16
-5.0514e-17
3.21892e-16
-3.19862e-17
2.02046e-16
-1.92951e-17
1.19239e-16
-8.04088e-18
6.07266e-17
1.50176e-17
-8.47371e-21
3.59296e-20
-1.07167e-19
4.76576e-19
-8.77509e-19
4.67161e-18
-5.76154e-18
3.39201e-17
-2.7358e-17
2.19509e-16
0
1.50028e-15
0
1.36239e-14
0
2.08531e-13
0
2.17127e-12
-2.03137e-11
4.76851e-11
0
4.08392e-10
0
1.7741e-10
-2.78081e-10
2.97452e-10
-8.94268e-13
2.2798e-10
0
0
-2.49566e-08
-5.66922e-11
-1.21487e-07
-1.44993e-09
-2.14312e-07
-1.25533e-07
-2.71057e-07
-2.98851e-07
-3.27554e-07
-3.95394e-07
-3.64171e-07
-3.19543e-07
-3.69231e-07
-2.77374e-07
-3.4866e-07
-1.9983e-07
-2.69962e-07
-9.25273e-08
-6.42231e-08
-2.01681e-09
-1.03277e-09
-2.63515e-10
-7.52518e-12
-1.15743e-11
-2.74752e-12
-1.21464e-12
0
-1.18579e-12
0
6.60894e-13
-8.42495e-11
5.40146e-11
-6.61091e-11
2.95763e-10
-2.45495e-11
5.51557e-11
-6.19152e-12
2.44829e-11
-7.82692e-13
2.80768e-12
-3.83962e-13
2.02329e-12
-1.20576e-13
4.59356e-13
-2.40455e-14
1.61703e-13
-5.91737e-15
2.2068e-14
-1.27965e-15
8.17177e-15
-2.61803e-16
1.77162e-15
-1.5597e-16
7.46511e-16
-1.3949e-16
6.54862e-16
-1.25388e-16
5.99644e-16
-9.71531e-17
4.71675e-16
-6.72303e-17
3.26993e-16
-4.39002e-17
2.08862e-16
-2.52871e-17
1.22956e-16
-9.54597e-18
5.96422e-17
1.29203e-17
-6.19427e-21
2.76121e-20
-8.18563e-20
3.67924e-19
-7.21739e-19
3.7899e-18
-4.48448e-18
2.75699e-17
-2.0659e-17
1.63483e-16
0
1.10729e-15
0
1.0205e-14
0
1.17355e-13
0
1.33296e-12
-3.54967e-11
8.12069e-11
0
3.17351e-10
-4.9304e-11
2.14285e-10
-2.5931e-10
4.12475e-10
-1.00511e-10
2.35896e-10
-6.45815e-11
3.59843e-13
-2.24617e-11
-2.88723e-11
-1.08067e-09
-1.58568e-10
-2.65347e-08
-2.28127e-10
-7.99513e-08
-1.34747e-09
-1.03666e-07
-2.1133e-09
-9.72408e-08
-1.42942e-09
-5.18953e-08
-8.78225e-10
-1.46906e-08
-3.29292e-10
-1.15909e-10
-8.46863e-11
-2.40388e-11
-4.23258e-11
-1.59823e-11
-1.09497e-11
-6.69497e-12
-3.09402e-12
-1.98867e-12
-3.13945e-13
0
-2.15838e-13
-8.93287e-12
1.89689e-12
-1.00127e-10
1.12858e-10
-7.52058e-11
2.87056e-10
-2.09675e-11
2.46809e-10
-3.09008e-12
9.19044e-12
-1.8481e-12
4.133e-12
-4.25465e-13
4.71143e-12
-1.07278e-13
2.22971e-13
-2.61302e-14
1.58787e-13
-5.03737e-15
1.6776e-14
-1.15505e-15
6.46208e-15
-2.44022e-16
1.48106e-15
-1.78222e-16
7.07044e-16
-1.65609e-16
6.45904e-16
-1.525e-16
5.99478e-16
-1.19101e-16
4.71284e-16
-8.34293e-17
3.27906e-16
-5.39259e-17
2.09798e-16
-2.99658e-17
1.22007e-16
-1.00679e-17
5.537e-17
1.02541e-17
-4.51415e-21
2.08238e-20
-6.35081e-20
2.88222e-19
-5.77112e-19
3.05346e-18
-3.27862e-18
2.15677e-17
-1.66963e-17
1.22149e-16
-5.71145e-17
8.78706e-16
-1.51554e-16
7.31778e-15
0
8.59533e-14
-7.9705e-13
3.29635e-12
-9.02472e-12
1.76029e-10
0
2.10717e-10
-2.4774e-10
2.76096e-10
-1.0888e-10
4.49232e-10
-1.77749e-11
0
-4.38031e-12
-8.50392e-14
-3.83862e-11
-5.40148e-12
-1.59619e-11
-4.37839e-11
-1.8116e-11
-2.49813e-11
-2.92991e-11
-5.73729e-11
-2.44823e-11
-9.2769e-11
-1.56686e-11
-7.62195e-11
-9.82351e-12
-5.73034e-11
-7.67414e-12
-2.96984e-11
-2.53221e-11
-1.09107e-11
-2.9928e-11
-1.19836e-11
-7.64667e-12
-3.68735e-12
-7.72196e-13
-5.08845e-13
0
-1.66797e-13
-5.74115e-13
-1.26251e-13
-7.40311e-11
3.0601e-11
-1.17757e-10
1.529e-10
-1.36353e-10
3.11395e-10
-1.98834e-11
4.89298e-10
-2.57553e-12
5.27625e-12
-2.23613e-12
2.42263e-12
-3.17373e-13
3.51249e-12
-7.23338e-14
1.2905e-13
-2.43425e-14
5.77407e-14
-4.62166e-15
1.85956e-14
-9.68778e-16
3.53596e-15
-2.28084e-16
1.2125e-15
-2.02142e-16
6.87415e-16
-1.92848e-16
6.44778e-16
-1.78157e-16
5.97769e-16
-1.38789e-16
4.65424e-16
-9.70417e-17
3.2277e-16
-6.20653e-17
2.04856e-16
-3.24142e-17
1.15524e-16
-9.07558e-18
4.76814e-17
6.91449e-18
-3.41814e-21
1.61735e-20
-5.01084e-20
2.37815e-19
-4.36288e-19
2.48459e-18
-2.40905e-18
1.68162e-17
-1.371e-17
9.89652e-17
-6.57043e-17
7.30611e-16
0
5.90496e-15
-5.8549e-14
1.47104e-13
-1.01967e-11
1.54126e-11
-1.58697e-12
1.30604e-10
-2.04947e-11
1.26537e-10
-2.21572e-10
4.37831e-10
-3.29488e-11
4.38985e-10
-8.09463e-12
1.24526e-11
-7.8083e-13
-1.13914e-14
-9.02425e-13
-4.66676e-13
-5.17894e-12
-3.26191e-12
-8.81955e-12
-9.5079e-12
-2.67021e-11
-2.16707e-11
-3.83739e-11
-3.20195e-11
-3.99612e-11
-2.59095e-11
-2.80485e-11
-1.78481e-11
-1.63787e-11
-9.08151e-12
-5.55524e-12
-3.81517e-12
-1.75272e-12
-1.65798e-12
-3.73329e-13
-1.47202e-13
-1.96691e-13
-1.45717e-13
-5.27313e-13
-1.21832e-13
-1.60112e-11
-3.47e-14
-9.31529e-11
8.37921e-11
-1.24335e-10
1.8523e-10
-1.56801e-10
3.45895e-10
-2.26475e-11
3.91758e-10
-1.81144e-12
4.81008e-12
-1.57655e-12
4.12445e-13
-3.28217e-13
1.74392e-12
-3.31441e-14
8.23022e-14
-1.69906e-14
3.31966e-14
-3.40392e-15
2.10651e-14
-6.83743e-16
1.47379e-15
-2.39175e-16
9.60186e-16
-2.2637e-16
6.85324e-16
-2.21283e-16
6.47202e-16
-2.02094e-16
5.95801e-16
-1.55747e-16
4.55122e-16
-1.07723e-16
3.11026e-16
-6.67852e-17
1.93041e-16
-3.16175e-17
1.02803e-16
-6.77072e-18
3.71378e-17
3.84109e-18
-2.81111e-21
1.41566e-20
-4.20445e-20
2.17175e-19
-3.41407e-19
2.27023e-18
-1.96031e-18
1.51768e-17
-1.84037e-17
9.25056e-17
-1.95744e-17
6.97208e-16
-1.30617e-15
8.495e-15
-1.71154e-13
3.7076e-13
-6.85554e-12
3.17313e-11
0
6.64033e-11
-9.32804e-11
1.03305e-10
-2.18482e-10
8.83757e-10
-4.34502e-11
4.4378e-10
-2.87454e-12
2.21458e-11
-1.62346e-13
-1.08355e-14
-8.53422e-14
-9.68007e-14
-9.08075e-13
-3.8017e-13
-2.31097e-12
-1.15402e-12
-2.78812e-12
-2.09305e-12
-2.38643e-12
-2.69589e-12
-1.70809e-12
-1.98162e-12
-1.10258e-12
-1.34746e-12
-9.9406e-13
-9.02895e-13
-6.8591e-13
-8.42949e-13
-1.93573e-13
-3.45031e-13
-1.8092e-13
-1.54878e-13
-1.83298e-13
-1.39457e-13
-2.43174e-13
-9.71831e-14
-3.45707e-11
1.57457e-13
-1.05023e-10
8.85765e-11
-1.32283e-10
2.14243e-10
-1.4285e-10
3.57555e-10
-9.20305e-12
1.35113e-10
-1.21902e-12
1.76776e-12
-6.85113e-13
6.15125e-13
-2.9888e-13
1.53654e-13
-2.39018e-14
2.97915e-13
-1.13905e-14
1.44616e-14
-2.41917e-15
1.2286e-14
-5.08964e-16
1.32047e-15
-2.57859e-16
7.86504e-16
-2.52409e-16
6.89052e-16
-2.51331e-16
6.56737e-16
-2.24607e-16
5.95392e-16
-1.68869e-16
4.39848e-16
-1.13698e-16
2.91501e-16
-6.64982e-17
1.73425e-16
-2.74366e-17
8.46345e-17
-4.20842e-18
2.58808e-17
1.8378e-18
-2.55851e-21
1.39207e-20
-3.9153e-20
2.14998e-19
-3.18904e-19
2.25793e-18
-1.77082e-18
1.51029e-17
-1.4296e-17
9.19386e-17
-1.0954e-18
7.84145e-16
-4.42393e-16
1.12691e-14
-5.26202e-13
7.17804e-13
-4.19274e-13
1.60452e-11
0
2.30342e-11
-1.78513e-11
2.09596e-10
-1.99943e-10
5.81391e-10
-4.99806e-11
4.73645e-10
-8.37084e-13
1.58566e-11
-8.82119e-14
-1.15904e-14
-3.61903e-14
-2.45489e-14
-8.01698e-14
-3.45597e-14
-1.91081e-13
-1.35484e-13
-3.09546e-13
-2.80627e-13
-2.60863e-13
-3.78758e-13
-1.55997e-13
-2.38102e-13
-1.18393e-13
-1.50409e-13
-2.90486e-13
-1.08884e-13
-2.04758e-13
-3.98631e-13
-2.19557e-13
-3.2299e-13
-2.12231e-13
-1.65779e-13
-2.36396e-13
-1.2664e-13
-2.69269e-13
-6.19657e-14
-3.27454e-11
4.39536e-13
-1.16637e-10
8.76993e-11
-1.4747e-10
2.42827e-10
-1.0875e-10
2.30998e-10
-9.12461e-12
3.32779e-11
-1.04379e-12
2.86238e-12
-2.37807e-13
7.66272e-13
-2.19547e-13
4.36706e-14
-1.10404e-14
3.63627e-13
-5.50833e-15
9.30739e-15
-1.33437e-15
3.36435e-15
-4.22825e-16
1.60695e-15
-2.93289e-16
7.72438e-16
-2.84766e-16
6.93923e-16
-2.83616e-16
6.69864e-16
-2.44068e-16
5.89824e-16
-1.76205e-16
4.16951e-16
-1.13132e-16
2.63014e-16
-6.05428e-17
1.46685e-16
-2.10195e-17
6.37093e-17
-2.25132e-18
1.61229e-17
7.92184e-19
-2.46879e-21
1.42463e-20
-3.86206e-20
2.19605e-19
-3.29679e-19
2.41857e-18
-1.69245e-18
1.67063e-17
-7.80268e-18
9.58768e-17
0
9.09021e-16
0
1.44245e-14
-3.21039e-13
6.38872e-13
0
1.93882e-12
-7.65401e-12
1.72227e-11
-3.85916e-13
2.47875e-10
-1.97355e-10
1.73706e-10
-2.79138e-11
4.88368e-10
-6.09792e-14
4.24294e-12
-2.79141e-14
-1.49132e-14
-2.46864e-14
-2.6872e-14
-2.89942e-14
-3.03784e-14
-3.21442e-14
-3.4588e-14
-7.92623e-14
-8.48305e-14
-6.96818e-14
0
-4.71567e-14
0
-1.26985e-15
-6.71465e-14
0
-2.06337e-14
-5.34081e-13
-5.41859e-13
-5.27554e-13
-6.34661e-13
-2.54704e-13
-1.29975e-13
-2.80974e-13
-1.09337e-13
-3.52566e-13
-1.99338e-14
-2.65306e-11
7.28232e-13
-1.13123e-10
1.02761e-10
-1.41537e-10
2.76654e-10
-3.11213e-11
1.91319e-10
-5.81672e-12
7.64207e-12
-1.62815e-12
6.28894e-12
-1.19464e-13
5.38599e-13
-1.94317e-13
6.34742e-14
-2.07715e-14
2.07557e-13
-2.13235e-15
5.46393e-15
-8.88906e-16
2.15851e-15
-3.90166e-16
1.32229e-15
-3.2531e-16
7.93545e-16
-3.20145e-16
7.12154e-16
-3.0676e-16
6.81329e-16
-2.57695e-16
5.7807e-16
-1.75286e-16
3.82623e-16
-1.04814e-16
2.25673e-16
-4.97459e-17
1.15173e-16
-1.41827e-17
4.33344e-17
-1.06204e-18
8.97489e-18
3.10751e-19
-2.40107e-21
1.47028e-20
-3.8557e-20
2.22991e-19
-3.58751e-19
2.54027e-18
-1.73239e-18
1.81329e-17
-6.92873e-18
9.84173e-17
0
9.39011e-16
-8.92448e-15
1.36537e-14
-2.75596e-15
2.48923e-13
-2.1456e-13
1.65251e-12
0
4.76718e-11
-7.87196e-12
9.64809e-11
-7.55011e-11
4.38118e-11
-2.27977e-11
0
-4.06185e-14
6.71199e-13
-2.57668e-14
-1.74929e-14
-2.33837e-14
-2.92587e-14
-2.17167e-14
-3.21123e-14
-2.71981e-14
-2.923e-14
-8.57505e-14
0
-7.32597e-14
-9.27021e-13
-4.67448e-14
-1.62055e-13
0
-1.47333e-14
-2.27097e-13
-1.31733e-14
-8.81075e-13
-6.95341e-13
-9.31103e-13
-7.98892e-13
-3.32275e-13
-3.80746e-13
-3.20674e-13
-1.21093e-13
-4.19967e-13
2.9881e-14
-2.36817e-11
1.07316e-12
-1.37616e-10
1.23215e-10
-1.38277e-10
3.18011e-10
-9.64981e-12
2.18267e-10
-3.74322e-12
1.52902e-12
-1.79811e-12
2.03156e-12
-9.9452e-14
9.14702e-13
-6.35713e-14
3.80163e-14
-2.75561e-14
1.03824e-14
-1.67118e-15
2.67678e-14
-7.47774e-16
1.25216e-15
-3.87138e-16
9.6606e-16
-3.55557e-16
8.02789e-16
-3.52239e-16
7.35835e-16
-3.28737e-16
6.8324e-16
-2.60535e-16
5.50271e-16
-1.63898e-16
3.34182e-16
-8.90372e-17
1.81328e-16
-3.63993e-17
8.25931e-17
-8.40639e-18
2.63059e-17
-4.4421e-19
4.44346e-18
1.10299e-19
-2.30265e-21
1.46527e-20
-3.70401e-20
2.20649e-19
-3.54735e-19
2.53933e-18
-1.6802e-18
1.81711e-17
-7.75592e-18
9.63349e-17
0
8.6823e-16
0
9.72336e-15
0
7.86688e-14
-2.5653e-12
2.82897e-12
-3.10598e-13
7.6857e-11
-1.54845e-11
7.02754e-11
-1.78226e-11
3.5904e-10
-7.22106e-13
2.57046e-12
-2.56104e-14
2.19753e-14
-2.35487e-14
-1.91682e-14
-2.14462e-14
-3.14282e-14
-1.87409e-14
-3.4895e-14
-1.98375e-14
-3.08225e-14
-6.71903e-13
-6.50718e-13
-6.56424e-13
-1.24297e-12
-3.04726e-13
-7.86233e-13
-1.97938e-14
-2.73259e-13
0
-6.73233e-15
-1.1462e-12
-1.78889e-13
-1.17607e-12
-7.43705e-13
-1.1071e-12
-5.03096e-13
-3.14721e-13
-3.126e-14
-8.54002e-13
1.16755e-13
-2.24544e-11
1.66686e-12
-1.48884e-10
1.46798e-10
-1.51156e-10
3.5742e-10
-2.35483e-12
1.69184e-10
-1.27769e-12
3.6757e-13
-8.89307e-13
0
-4.2102e-14
1.59135e-12
-1.84691e-14
1.59302e-14
-1.59673e-14
3.38398e-15
-4.5268e-16
3.12761e-14
-5.10673e-16
9.93101e-16
-4.09387e-16
8.74921e-16
-3.94321e-16
8.01313e-16
-3.88656e-16
7.47482e-16
-3.56916e-16
6.77103e-16
-2.46663e-16
4.89582e-16
-1.41337e-16
2.72808e-16
-6.81003e-17
1.34105e-16
-2.342e-17
5.32611e-17
-4.3713e-18
1.41426e-17
-1.66241e-19
1.96051e-18
3.59338e-20
-2.13398e-21
1.38413e-20
-3.42973e-20
2.05504e-19
-3.33927e-19
2.38346e-18
-1.56305e-18
1.71622e-17
-8.75232e-18
8.79336e-17
-1.19876e-16
7.43897e-16
0
5.40363e-15
0
6.30642e-14
-2.06659e-12
5.8191e-12
0
2.47704e-11
-3.75096e-11
9.78095e-11
-1.28975e-11
3.47642e-10
-5.11456e-14
3.46521e-11
-2.32899e-14
1.16793e-14
-2.14051e-14
-2.0945e-14
-1.88869e-14
-3.38261e-14
-8.89061e-15
-4.56496e-14
-4.36649e-13
-9.04781e-13
-6.70264e-13
-1.31422e-12
-6.76228e-13
-1.22096e-12
-4.58345e-13
-1.01106e-12
-9.20399e-14
-2.08379e-13
-2.10143e-14
-4.75107e-15
-6.68989e-13
-1.36108e-14
-1.20906e-12
-4.47308e-13
-9.18704e-13
-4.05342e-13
-1.80868e-13
-5.70991e-15
0
4.10548e-13
-2.81796e-11
4.33186e-12
-1.582e-10
1.74991e-10
-1.17422e-10
3.78837e-10
-5.37573e-13
8.36096e-11
-3.016e-13
1.02249e-13
-7.27509e-13
5.05927e-14
-3.37788e-15
1.71141e-12
-6.51641e-15
7.76967e-15
-8.08717e-15
4.63432e-15
-5.6627e-16
6.22866e-15
-4.69469e-16
8.99889e-16
-4.28917e-16
8.45227e-16
-4.22769e-16
7.98075e-16
-4.17181e-16
7.46134e-16
-3.50064e-16
6.43509e-16
-2.14698e-16
4.07153e-16
-1.10328e-16
2.04236e-16
-4.61627e-17
8.97717e-17
-1.31663e-17
3.05013e-17
-2.00415e-18
6.71245e-18
-5.67044e-20
7.74602e-19
1.08873e-20
-1.86625e-21
1.22283e-20
-2.99338e-20
1.79541e-19
-2.9656e-19
2.09461e-18
-1.37407e-18
1.51498e-17
-8.54263e-18
7.56955e-17
-2.68837e-17
5.89992e-16
0
3.75583e-15
-1.82467e-14
7.37442e-14
0
5.02022e-12
0
7.29419e-12
-3.87366e-11
3.88862e-10
-1.96941e-11
3.32459e-10
-6.77855e-12
1.29818e-10
-3.04009e-14
4.04876e-13
-2.08633e-14
-2.76144e-14
-1.97052e-14
-3.53525e-14
-2.17143e-13
-4.69114e-14
-5.11864e-13
-1.20291e-12
-5.38564e-13
-9.93246e-13
-7.18522e-13
-1.02687e-12
-4.19182e-13
-4.62885e-13
-7.90894e-15
-8.60914e-15
-7.18263e-15
-4.25306e-15
-1.82144e-14
-4.47619e-15
-4.55331e-13
-3.28548e-14
-1.882e-13
-2.35208e-13
-1.06131e-13
4.2357e-13
0
9.55082e-13
-2.81848e-11
7.90249e-12
-2.06374e-10
1.84702e-10
-6.91684e-11
3.37292e-10
-1.66429e-13
1.34972e-11
-1.04668e-13
3.63233e-14
-2.77929e-13
3.19024e-14
-6.88147e-14
0
-3.7438e-15
1.33806e-14
-2.32353e-15
2.96384e-15
-5.04707e-16
1.98747e-15
-4.74819e-16
8.94977e-16
-4.50185e-16
8.40554e-16
-4.47138e-16
7.90416e-16
-4.3074e-16
7.34753e-16
-3.14782e-16
5.69518e-16
-1.6867e-16
3.089e-16
-7.68396e-17
1.38301e-16
-2.74544e-17
5.36859e-17
-6.46377e-18
1.53725e-17
-8.1576e-19
2.80891e-18
-1.77499e-20
2.74915e-19
3.05864e-21
-1.56848e-21
1.05272e-20
-2.48932e-20
1.52717e-19
-2.50976e-19
1.79008e-18
-1.18481e-18
1.32474e-17
-7.23888e-18
6.69101e-17
-4.26478e-18
4.81007e-16
0
3.29894e-15
-7.11686e-14
9.38137e-14
0
1.12758e-12
-4.84582e-12
7.05612e-12
-3.6257e-11
2.91578e-10
-3.9018e-11
3.38738e-10
-2.17564e-11
1.16416e-10
-3.19799e-13
1.40478e-12
-2.59474e-14
-2.9147e-13
-9.54052e-15
-5.2034e-14
-2.43067e-14
-2.74377e-14
-2.09321e-13
0
-2.70876e-13
0
-9.36582e-14
-1.85396e-14
-5.09732e-15
-1.6226e-14
-4.73595e-15
-7.69603e-15
-5.51911e-15
-3.68568e-15
-7.13588e-15
-3.10082e-15
-1.09101e-13
-3.14907e-15
-5.02941e-13
6.13663e-15
0
2.98383e-13
0
1.73899e-12
-1.15305e-10
3.19547e-11
-2.18658e-10
1.61227e-10
-1.17373e-11
1.14818e-10
-5.88797e-14
1.77809e-12
-3.54056e-14
1.52339e-14
-5.33346e-14
4.20716e-15
-5.67491e-14
0
-2.69993e-15
5.93117e-14
-1.23917e-15
1.57729e-15
-5.49102e-16
1.31295e-15
-4.98414e-16
9.35533e-16
-4.74902e-16
8.572e-16
-4.65898e-16
7.75084e-16
-4.13768e-16
6.91214e-16
-2.52577e-16
4.52328e-16
-1.18282e-16
2.10419e-16
-4.73871e-17
8.44051e-17
-1.42687e-17
2.85126e-17
-2.78329e-18
6.81161e-18
-2.97694e-19
1.04364e-18
-5.14168e-21
8.88034e-20
8.12141e-22
-1.30486e-21
9.07626e-21
-2.02236e-20
1.29505e-19
-2.08965e-19
1.52448e-18
-1.03995e-18
1.17537e-17
-5.51669e-18
6.15342e-17
0
4.16983e-16
0
3.3517e-15
0
7.4744e-14
0
2.05108e-13
0
1.04098e-11
-3.25668e-11
7.7519e-11
-3.30607e-11
3.42749e-10
-1.62806e-11
6.33239e-11
-9.68565e-13
3.4914e-13
-9.3954e-14
-8.0217e-13
-2.81915e-14
-5.44487e-14
-2.24659e-14
0
-8.90114e-14
0
-1.33475e-14
-5.76239e-13
-4.18145e-15
-3.38251e-14
-6.22761e-15
-2.01886e-14
-4.96608e-15
-1.12717e-14
-4.20491e-15
-4.7138e-15
-5.38651e-15
-2.18336e-15
-9.69152e-15
-7.47391e-16
-5.78797e-13
2.83221e-15
-3.2024e-15
4.66383e-13
-1.62784e-12
2.89013e-12
-7.26879e-11
6.28445e-11
-1.09969e-10
9.61841e-11
-1.52914e-12
2.78929e-11
-2.2545e-14
2.39903e-13
-1.36478e-14
9.12378e-15
-1.12986e-14
5.08251e-15
-4.13379e-14
4.50673e-15
-6.27187e-16
6.82738e-14
-8.58753e-16
1.1951e-15
-5.735e-16
1.10358e-15
-5.30046e-16
9.74198e-16
-4.96628e-16
8.55406e-16
-4.67149e-16
7.40564e-16
-3.5229e-16
5.92242e-16
-1.78629e-16
3.16639e-16
-7.41127e-17
1.29129e-16
-2.58757e-17
4.66545e-17
-6.50978e-18
1.3488e-17
-1.06518e-18
2.68383e-18
-9.938e-20
3.51528e-19
-1.4285e-21
2.68806e-20
2.14631e-22
-1.07964e-21
7.75391e-21
-1.61869e-20
1.08727e-19
-1.71547e-19
1.28373e-18
-9.11493e-19
1.03914e-17
-4.37572e-18
5.74278e-17
-9.31008e-19
3.86442e-16
-7.23017e-16
3.57273e-15
0
3.11762e-14
-7.36252e-14
1.44666e-13
0
1.48729e-11
-2.66547e-11
8.83964e-11
-6.64567e-12
3.20896e-10
-3.22026e-12
2.34967e-11
-1.15252e-12
1.39739e-12
-3.22072e-13
-6.91263e-13
-1.0993e-14
-3.1309e-14
-1.88946e-13
-6.09369e-14
-1.03956e-11
-4.12782e-11
-2.02171e-12
-1.98901e-10
-9.65864e-14
-2.08251e-11
-3.8762e-14
-8.85882e-14
-2.76728e-14
-5.29428e-15
-5.78768e-15
-4.32422e-15
-6.74512e-15
-1.52912e-15
-7.90456e-15
2.98415e-16
-1.69519e-14
4.15953e-15
0
2.79293e-13
-5.47185e-11
1.75837e-11
-1.62191e-10
1.49115e-10
-2.24201e-11
5.06571e-11
-2.09242e-13
5.76112e-12
-1.00119e-14
3.93187e-14
-7.27753e-15
8.05838e-15
-3.43608e-15
4.56794e-15
-1.73197e-14
2.59681e-15
-8.2275e-16
7.59944e-15
-6.77788e-16
1.06511e-15
-5.82893e-16
1.02556e-15
-5.51475e-16
9.75866e-16
-5.03196e-16
8.33942e-16
-4.28637e-16
6.68134e-16
-2.59761e-16
4.45674e-16
-1.12558e-16
1.97431e-16
-4.19052e-17
7.27528e-17
-1.2587e-17
2.35201e-17
-2.64335e-18
5.73787e-18
-3.70533e-19
9.59505e-19
-3.12203e-20
1.10395e-19
-3.98152e-22
7.86914e-21
5.83135e-23
-8.78077e-22
6.45394e-21
-1.27369e-20
8.94497e-20
-1.38026e-19
1.0631e-18
-7.83659e-19
9.05735e-18
-3.83046e-18
5.34803e-17
-2.07241e-17
3.66993e-16
-1.47832e-16
3.35003e-15
0
1.08242e-14
0
8.01233e-14
-1.12675e-12
1.16974e-11
-7.75126e-12
3.67815e-10
-1.23288e-11
2.8748e-10
-7.38421e-12
1.10005e-10
-1.74199e-12
7.20336e-12
-9.19741e-15
-6.73485e-13
-1.10605e-14
-1.30678e-14
-2.30612e-11
-9.74308e-11
-8.85706e-11
-2.97977e-10
-9.05515e-11
-1.98401e-10
-4.08757e-11
-9.59092e-11
-2.47092e-13
-2.39633e-11
-2.01185e-14
-7.94863e-14
-7.58818e-15
-3.00303e-15
-5.98972e-15
-9.53383e-16
-7.15836e-15
1.48212e-15
0
9.86113e-15
-4.15132e-13
3.31222e-13
-9.15676e-11
4.30715e-11
-8.00672e-11
1.71082e-10
-4.98931e-12
1.18172e-10
-3.4208e-14
8.23758e-13
-3.34379e-15
1.06294e-14
-3.90274e-15
1.03225e-14
-2.46015e-15
4.82153e-15
-2.38306e-15
2.29577e-15
-6.27718e-16
1.80354e-15
-6.11638e-16
1.04965e-15
-5.86844e-16
1.00675e-15
-5.42786e-16
9.59599e-16
-4.80847e-16
7.79351e-16
-3.43773e-16
5.49207e-16
-1.68073e-16
2.93738e-16
-6.47611e-17
1.13042e-16
-2.1599e-17
3.82979e-17
-5.50595e-18
1.08607e-17
-9.73617e-19
2.22147e-18
-1.20159e-19
3.17748e-19
-9.46699e-21
3.31134e-20
-1.12628e-22
2.27152e-21
1.61174e-23
-6.98202e-22
5.22665e-21
-9.90884e-21
7.24192e-20
-1.09988e-19
8.7432e-19
-6.72425e-19
7.81924e-18
-3.37624e-18
4.89744e-17
-3.39861e-17
3.33254e-16
-8.92713e-17
2.94401e-15
0
8.22232e-15
0
3.94272e-14
-7.22822e-12
5.95534e-12
-7.32059e-12
3.56822e-10
-1.39779e-11
2.85131e-10
-2.27542e-11
1.25362e-10
-5.42083e-12
7.3555e-12
-2.47199e-14
-1.08849e-12
-2.9188e-11
-1.87164e-11
-7.84324e-11
-3.67685e-10
-9.90331e-11
-2.78591e-10
-1.36966e-10
-1.63086e-10
-1.43294e-10
-8.90127e-11
-1.1623e-11
-4.27406e-11
-3.5388e-14
-1.08301e-13
-1.04336e-14
-2.60098e-15
-3.27131e-15
-6.1544e-17
-2.63672e-16
2.74368e-15
0
1.87824e-14
-4.49999e-13
5.91319e-13
-9.96561e-11
4.87249e-11
-1.01696e-10
1.90084e-10
-7.77906e-13
2.34323e-10
-5.21056e-14
1.28613e-13
-2.43008e-14
2.34528e-14
-3.45105e-15
1.13507e-13
-1.47667e-15
2.49062e-15
-1.06083e-15
1.83012e-15
-6.16057e-16
1.42305e-15
-6.09034e-16
1.04383e-15
-5.90983e-16
9.97868e-16
-5.42858e-16
9.11457e-16
-4.15252e-16
6.65046e-16
-2.38691e-16
4.02989e-16
-9.87588e-17
1.74508e-16
-3.4726e-17
6.11407e-17
-1.02007e-17
1.89369e-17
-2.18876e-18
4.60356e-18
-3.31323e-19
7.91785e-19
-3.70952e-20
9.90354e-20
-2.81404e-21
9.63244e-21
-3.16145e-23
6.50377e-22
4.58142e-24
-5.47123e-22
4.17537e-21
-7.75225e-21
5.85763e-20
-8.86689e-20
7.24979e-19
-5.79637e-19
6.72118e-18
-2.86173e-18
4.32336e-17
-3.1046e-17
2.78166e-16
-1.34202e-16
2.35871e-15
0
6.32562e-15
-1.41664e-15
2.86621e-14
-6.91338e-13
1.00053e-11
-4.63491e-12
6.66603e-11
-6.82181e-12
2.90952e-10
-5.47227e-12
1.24785e-10
0
4.11637e-12
-2.52593e-12
-1.13517e-12
-4.62254e-11
-1.46516e-10
-3.01875e-11
-3.9068e-10
-4.24539e-11
-2.74136e-10
-7.36111e-11
-1.33742e-10
-8.84569e-11
-7.54266e-11
-1.40477e-11
-3.29801e-11
-8.07141e-14
-4.38815e-14
-1.23936e-14
-3.28983e-15
-4.11302e-15
1.16955e-15
0
3.49041e-15
0
2.4613e-14
-2.22306e-13
7.35892e-13
-1.18004e-10
4.71226e-11
-1.34164e-10
2.18948e-10
-1.33518e-11
3.26538e-10
-6.82812e-14
1.54406e-12
-7.87834e-14
2.6394e-14
-2.81557e-14
1.31554e-13
-1.27786e-15
1.42758e-14
-8.05234e-16
1.3533e-15
-6.06164e-16
1.23274e-15
-6.00718e-16
1.0423e-15
-5.86673e-16
9.87721e-16
-4.879e-16
8.00929e-16
-3.18477e-16
5.25826e-16
-1.47664e-16
2.64428e-16
-5.44223e-17
9.7225e-17
-1.74729e-17
3.16234e-17
-4.42265e-18
8.7545e-18
-7.99368e-19
1.79641e-18
-1.05797e-19
2.62586e-19