/*--------------------------------*- C++ -*----------------------------------*\
  =========                 |
  \\      /  F ield         | OpenFOAM: The Open Source CFD Toolbox
   \\    /   O peration     | Website:  https://openfoam.org
    \\  /    A nd           | Version:  9
     \\/     M anipulation  |
\*---------------------------------------------------------------------------*/
FoamFile
{
    format      ascii;
    class       volScalarField;
    location    "0.11";
    object      p;
}
// * * * * * * * * * * * * * * * * * * * * * * * * * * * * * * * * * * * * * //

dimensions      [1 -1 -2 0 0 0 0];

internalField   nonuniform List<scalar> 
5000
(
1.51902
1.47897
1.43172
1.37551
1.30802
1.22618
1.12585
1.00186
0.847814
0.62876
0.322429
0.267002
0.573897
22.9683
28.7067
28.5426
28.0366
27.9606
28.0607
28.1854
28.2091
28.076
27.7218
27.1481
26.4664
25.8796
25.5603
25.3965
25.2154
21.7055
1.67312
0.741863
0.786357
0.839387
0.906553
0.990998
1.08352
1.17481
1.25969
1.33665
1.40614
1.46921
1.52689
1.57998
1.62906
1.67459
1.71692
1.75636
1.79312
1.82735
1.50243
1.46183
1.41435
1.35835
1.29199
1.21342
1.11984
1.00676
0.872462
0.701758
0.471785
0.47659
0.849546
20.1193
28.3414
28.0061
27.4737
27.5098
27.7122
27.9085
27.9779
27.87
27.5016
26.8406
25.9816
25.1556
24.6756
24.6369
25.1026
16.0216
0.883235
0.878778
0.915909
0.949594
0.998474
1.06291
1.13825
1.21653
1.29201
1.36208
1.42627
1.48507
1.53922
1.58936
1.63595
1.67937
1.7199
1.75778
1.79319
1.82628
1.48798
1.44718
1.39999
1.345
1.28083
1.20657
1.12091
1.02017
0.905704
0.778484
0.610572
0.568307
0.405196
12.7917
27.4275
26.9655
26.6939
26.9568
27.3234
27.6376
27.7926
27.7671
27.4736
26.8574
25.9793
25.023
24.4143
24.884
26.2471
6.19716
1.10625
1.05306
1.0556
1.06183
1.0897
1.13494
1.19383
1.25938
1.32547
1.38858
1.44742
1.50194
1.55252
1.59962
1.6436
1.68475
1.7233
1.75945
1.79334
1.82518
1.4756
1.43488
1.38831
1.33488
1.27363
1.20428
1.12678
1.03844
0.941588
0.846937
0.731228
0.604376
0.435751
4.38525
25.7434
25.7559
26.0443
26.5679
27.0513
27.4649
27.7146
27.8205
27.7407
27.4356
26.8797
26.13
25.7294
27.1937
22.2526
2.21723
1.19907
1.16495
1.15566
1.1525
1.16494
1.1962
1.24264
1.29797
1.35613
1.41316
1.46721
1.51781
1.56508
1.60931
1.65077
1.68971
1.72632
1.76082
1.79338
1.82409
1.46516
1.42483
1.37921
1.32762
1.26953
1.20515
1.13543
1.05877
0.976969
0.90658
0.833348
0.72382
0.703358
0.771217
21.1033
26.0705
26.2521
26.6885
27.0549
27.4516
27.7589
27.9932
28.186
28.3182
28.123
27.4254
27.1666
29.0312
9.94709
1.3312
1.28014
1.25914
1.21011
1.20403
1.21285
1.23858
1.27882
1.32811
1.38098
1.43356
1.48389
1.53132
1.57579
1.61751
1.65664
1.69335
1.72774
1.75989
1.78981
1.81707
1.45652
1.4168
1.37233
1.32269
1.26774
1.20802
1.14517
1.07884
1.01041
0.959152
0.920295
0.868792
0.884734
1.12421
12.6613
28.5719
27.1309
27.1699
27.2646
27.5272
27.8673
28.2149
28.619
28.9996
28.7388
27.6279
26.2695
18.1199
2.16287
1.40378
1.35332
1.29362
1.23897
1.22765
1.2389
1.26464
1.30303
1.34954
1.39938
1.44911
1.49689
1.54203
1.58447
1.62433
1.66182
1.69709
1.73027
1.76152
1.79102
1.81886
1.44951
1.41053
1.36728
1.31957
1.26755
1.21199
1.15477
1.09675
1.03956
1.00224
0.990376
0.977448
0.982384
1.20261
5.81959
23.7813
27.5241
27.6227
27.5083
27.5526
27.8928
28.4005
29.2157
30.4276
30.6843
27.9315
19.3384
3.5531
1.02216
1.22826
1.25461
1.23908
1.242
1.23915
1.2554
1.28262
1.32031
1.36515
1.41296
1.46069
1.50663
1.55012
1.59107
1.62962
1.66595
1.70023
1.73261
1.76322
1.7922
1.81965
1.44398
1.4058
1.36377
1.31786
1.26844
1.21638
1.16351
1.11128
1.06168
1.0296
1.02263
1.02367
1.00546
1.08892
0.851879
8.86914
25.2777
28.3188
28.0937
27.6054
27.6439
28.2298
29.8735
33.5358
31.9763
14.3382
2.71312
1.17823
1.16911
1.22029
1.22491
1.24743
1.24013
1.25284
1.27002
1.29729
1.33399
1.3772
1.42327
1.46935
1.51379
1.55593
1.59566
1.63311
1.66844
1.70182
1.73339
1.76327
1.7916
1.81853
1.43981
1.40243
1.36156
1.31728
1.27007
1.22079
1.17103
1.12216
1.07591
1.0441
1.03154
1.03039
1.01256
1.12896
0.916464
1.00522
7.13552
19.2395
27.0155
27.2106
26.4857
26.3997
24.8378
14.236
4.35186
1.55263
1.24915
1.2077
1.21761
1.23999
1.24423
1.31978
1.24939
1.26225
1.28078
1.30809
1.34407
1.38607
1.43075
1.47545
1.51861
1.55959
1.59826
1.63472
1.66913
1.70165
1.73242
1.76158
1.78923
1.81562
1.43689
1.40031
1.36049
1.31761
1.27218
1.225
1.17731
1.13007
1.08435
1.05083
1.03878
1.03165
1.03449
1.10457
0.980819
1.02322
0.980987
2.01753
3.8317
6.55099
6.60412
4.26151
1.8792
1.3552
1.24379
1.24355
1.23937
1.23033
1.23797
1.25169
1.25906
1.31636
1.25936
1.27131
1.28891
1.31553
1.35079
1.3919
1.43556
1.4792
1.52132
1.56132
1.59906
1.63465
1.66825
1.70002
1.73009
1.7586
1.78566
1.81139
1.43513
1.3993
1.36043
1.31871
1.27469
1.22901
1.18259
1.13597
1.08964
1.05439
1.0383
1.02933
1.05581
1.03419
1.02508
1.048
1.04559
1.12843
1.14638
1.17349
1.18578
1.19458
1.20957
1.23088
1.23986
1.23754
1.23667
1.23781
1.24393
1.2537
1.26864
1.28663
1.27428
1.27343
1.29165
1.31882
1.35414
1.39497
1.43804
1.48091
1.52219
1.56134
1.59825
1.63304
1.66586
1.69689
1.72624
1.75404
1.7805
1.80575
1.43446
1.39934
1.36132
1.32056
1.27758
1.23293
1.18715
1.14043
1.09287
1.05576
1.03578
1.01973
1.0698
1.04343
1.0421
1.06176
1.06889
1.12059
1.14389
1.17354
1.18845
1.19807
1.20979
1.22255
1.22913
1.23284
1.23436
1.23627
1.23913
1.25321
1.2624
1.26846
1.27495
1.26758
1.28804
1.31752
1.35411
1.39554
1.43855
1.48095
1.52157
1.55996
1.59609
1.63009
1.66213
1.6924
1.72102
1.74811
1.77383
1.79844
1.43483
1.40039
1.36312
1.32316
1.28095
1.23695
1.19137
1.14399
1.09506
1.05307
1.02666
1.01849
1.07176
1.04163
1.05093
1.06939
1.08328
1.12292
1.1441
1.16603
1.1839
1.19793
1.21014
1.22069
1.22681
1.23046
1.2323
1.23304
1.23271
1.24584
1.25042
1.25073
1.25371
1.2612
1.28338
1.31469
1.35291
1.395
1.43805
1.48006
1.52006
1.55772
1.59307
1.62628
1.65756
1.68707
1.71496
1.74136
1.76633
1.79007
1.43621
1.4024
1.36584
1.32655
1.28491
1.24126
1.1956
1.14734
1.09705
1.05239
1.02089
1.03619
1.07974
1.03987
1.05453
1.07472
1.09371
1.12534
1.14751
1.16895
1.18632
1.19993
1.2114
1.22052
1.22663
1.23009
1.23174
1.23189
1.23097
1.23463
1.24096
1.22869
1.24191
1.25667
1.28041
1.3133
1.35256
1.39497
1.43777
1.47918
1.51839
1.55518
1.58964
1.62197
1.65237
1.68101
1.70805
1.73362
1.75776
1.78062
1.43859
1.40539
1.36947
1.33076
1.28955
1.24607
1.20014
1.15103
1.09903
1.05355
1.02346
1.03125
1.07746
1.04056
1.05771
1.07939
1.10125
1.12916
1.15168
1.17286
1.19
1.2033
1.21424
1.22254
1.22845
1.23162
1.23308
1.23299
1.23217
1.23143
1.2536
1.21367
1.23215
1.25056
1.27776
1.31301
1.35348
1.39609
1.43841
1.47895
1.51711
1.5528
1.58616
1.61741
1.64675
1.67436
1.70038
1.72498
1.74821
1.77014
1.44197
1.40937
1.37404
1.33585
1.29499
1.25154
1.20521
1.15523
1.10213
1.05533
1.02726
1.01742
1.03517
1.03875
1.06057
1.08386
1.10768
1.13352
1.15648
1.17757
1.19468
1.20798
1.2187
1.22683
1.23276
1.23549
1.23652
1.23588
1.2343
1.23256
1.26006
1.21345
1.22705
1.24825
1.27818
1.31538
1.35666
1.39909
1.44053
1.47985
1.51666
1.55098
1.583
1.61295
1.64104
1.66744
1.6923
1.71578
1.73794
1.75875
1.44634
1.41437
1.37961
1.34191
1.30132
1.25784
1.21099
1.15997
1.1055
1.05828
1.02862
1.01663
1.03147
1.04097
1.06427
1.08838
1.11334
1.13862
1.16193
1.18348
1.20077
1.21411
1.225
1.23302
1.23903
1.24188
1.24229
1.241
1.23819
1.23588
1.26651
1.2124
1.22729
1.25157
1.2841
1.32233
1.36352
1.40493
1.44484
1.48243
1.51747
1.55008
1.58048
1.60889
1.63551
1.66051
1.684
1.70616
1.72706
1.74674
1.45174
1.42042
1.38624
1.34904
1.3087
1.26514
1.21769
1.16546
1.10927
1.05866
1.02525
1.02078
1.03125
1.04284
1.0684
1.09283
1.11872
1.14421
1.16821
1.19016
1.20813
1.22179
1.23315
1.24161
1.24774
1.25074
1.25111
1.24941
1.24658
1.24689
1.28213
1.21265
1.23474
1.26222
1.29645
1.33462
1.37461
1.41408
1.45172
1.48699
1.51983
1.55038
1.57886
1.60549
1.63044
1.65386
1.67586
1.69659
1.71614
1.73471
1.45817
1.42755
1.39401
1.35732
1.31727
1.27363
1.22555
1.17207
1.11406
1.06013
1.02325
1.02629
1.02746
1.04405
1.07007
1.09687
1.12403
1.1505
1.17499
1.19766
1.2164
1.23091
1.24307
1.25239
1.25895
1.26246
1.26312
1.26103
1.25645
1.27121
1.30303
1.23792
1.25692
1.28363
1.31659
1.35282
1.39008
1.42651
1.46112
1.49354
1.52377
1.55196
1.5783
1.60297
1.62611
1.64784
1.66828
1.68755
1.7057
1.723
1.46565
1.43581
1.40298
1.36688
1.32718
1.28352
1.23489
1.18019
1.12038
1.06409
1.03399
1.0275
1.03737
1.0447
1.07177
1.10086
1.12945
1.15667
1.18195
1.20579
1.22549
1.2414
1.25469
1.26524
1.273
1.27772
1.27946
1.27789
1.27106
1.30747
1.29388
1.27573
1.2908
1.31435
1.34361
1.37593
1.40909
1.44155
1.47251
1.50166
1.529
1.55461
1.57864
1.60121
1.62242
1.64237
1.66115
1.67887
1.69559
1.71146
1.4742
1.44523
1.41322
1.3778
1.33858
1.29502
1.24598
1.19017
1.12863
1.07057
1.03199
1.02574
1.03207
1.0445
1.07388
1.10505
1.13495
1.16304
1.18963
1.21469
1.23554
1.25303
1.26787
1.28007
1.28959
1.29635
1.30018
1.30191
1.30158
1.33826
1.29989
1.31125
1.32681
1.34793
1.37324
1.40103
1.42959
1.45775
1.48483
1.51056
1.53488
1.55783
1.57947
1.59987
1.6191
1.63722
1.6543
1.67043
1.68565
1.70012
1.48385
1.45587
1.4248
1.39021
1.35162
1.30834
1.25907
1.20229
1.139
1.07826
1.03801
1.02176
1.0259
1.04562
1.07664
1.1097
1.14084
1.1699
1.19874
1.22389
1.24609
1.26565
1.28245
1.29665
1.30817
1.317
1.32318
1.32625
1.3564
1.344
1.34766
1.35239
1.36414
1.38132
1.40224
1.42542
1.44949
1.47349
1.49684
1.51928
1.5407
1.56107
1.58039
1.59869
1.616
1.63235
1.64779
1.66236
1.67612
1.68932
1.4946
1.46775
1.43779
1.40422
1.36647
1.3237
1.27447
1.21693
1.1516
1.08675
1.03882
1.01802
1.02787
1.04418
1.0786
1.11492
1.14863
1.19247
1.23703
1.25319
1.25788
1.27921
1.29848
1.31497
1.32851
1.33914
1.34707
1.35258
1.39298
1.37693
1.38406
1.38917
1.39831
1.41163
1.42834
1.44726
1.46727
1.48754
1.50756
1.52704
1.54582
1.56384
1.58103
1.5974
1.61294
1.62767
1.64162
1.65478
1.66722
1.67929
1.50644
1.48089
1.45223
1.41991
1.38327
1.34134
1.29251
1.2347
1.16762
1.09927
1.0561
1.02471
1.02542
1.04645
1.07992
1.12056
1.16739
1.21228
1.25156
1.28862
1.29459
1.2942
1.31609
1.33492
1.35036
1.36249
1.37147
1.3793
1.41617
1.40547
1.41095
1.4168
1.42488
1.43585
1.44951
1.46512
1.48186
1.49906
1.51629
1.53324
1.54976
1.56571
1.58105
1.59572
1.6097
1.62301
1.63564
1.64759
1.6589
1.66996
1.51937
1.49529
1.46814
1.43732
1.40215
1.36143
1.31355
1.25627
1.18872
1.11872
1.06352
1.03386
1.02715
1.04463
1.07962
1.12578
1.18463
1.22745
1.26419
1.303
1.30726
1.31061
1.33486
1.35584
1.37294
1.3862
1.39558
1.40267
1.43458
1.43276
1.43255
1.43764
1.44452
1.45376
1.46526
1.47846
1.49274
1.50758
1.52258
1.53749
1.55213
1.56637
1.58013
1.59336
1.60602
1.61812
1.62964
1.64058
1.65095
1.66111
1.53336
1.51094
1.48553
1.45646
1.42318
1.38414
1.33785
1.2819
1.21515
1.14427
1.08412
1.0427
1.03257
1.04823
1.07972
1.15385
1.20029
1.23782
1.26977
1.29451
1.30057
1.32618
1.35291
1.37601
1.39459
1.40867
1.41813
1.42298
1.45584
1.45533
1.44997
1.45286
1.45834
1.46613
1.47601
1.48745
1.49992
1.51297
1.52628
1.53959
1.55274
1.5656
1.57809
1.59013
1.60171
1.6128
1.6234
1.6335
1.64311
1.65247
1.54838
1.5278
1.50439
1.47748
1.44628
1.40953
1.36549
1.31163
1.24641
1.17448
1.10966
1.06093
1.0434
1.05818
1.08275
1.1807
1.21045
1.24001
1.26514
1.28762
1.30978
1.33854
1.3676
1.39287
1.41302
1.42797
1.43784
1.44244
1.4744
1.47487
1.45887
1.46138
1.46628
1.47326
1.48209
1.49232
1.50352
1.5153
1.52735
1.53946
1.55147
1.56325
1.57473
1.58585
1.59656
1.60685
1.61672
1.62618
1.6352
1.64386
1.56435
1.54582
1.52467
1.5002
1.47158
1.43762
1.39653
1.34564
1.28284
1.21088
1.14045
1.09149
1.07453
1.07734
1.11147
1.15562
1.1931
1.22985
1.2593
1.28613
1.31405
1.34497
1.37628
1.40372
1.42559
1.4416
1.45203
1.45714
1.46643
1.48685
1.46033
1.46372
1.46875
1.47548
1.48378
1.49331
1.5037
1.51461
1.5258
1.53705
1.54824
1.55923
1.56997
1.58038
1.59044
1.60011
1.60941
1.6184
1.62698
1.63494
1.58121
1.56492
1.54627
1.52458
1.49899
1.46837
1.431
1.38416
1.32501
1.2548
1.18307
1.13285
1.1013
1.10647
1.12492
1.16004
1.19318
1.22452
1.25241
1.28049
1.31126
1.34398
1.37705
1.40637
1.42986
1.44701
1.45806
1.46474
1.466
1.46315
1.4602
1.46257
1.46712
1.47352
1.48151
1.49066
1.5006
1.51102
1.52167
1.53238
1.54302
1.55348
1.56369
1.5736
1.58318
1.59238
1.60122
1.60981
1.61802
1.62538
1.59886
1.585
1.56909
1.5505
1.52839
1.50168
1.46881
1.4272
1.37327
1.30734
1.24935
1.18454
1.1511
1.1414
1.14495
1.16946
1.19293
1.21707
1.24149
1.2689
1.30065
1.33432
1.3685
1.39916
1.42383
1.4416
1.45224
1.45855
1.46177
1.45754
1.4563
1.45713
1.46114
1.46741
1.47537
1.48449
1.49434
1.50459
1.51502
1.52547
1.53582
1.54597
1.55587
1.56547
1.57475
1.58367
1.59222
1.6005
1.60842
1.61556
1.61717
1.60592
1.59299
1.5778
1.55957
1.53732
1.50969
1.47441
1.42722
1.36731
1.30472
1.24132
1.19759
1.17596
1.16681
1.17659
1.18926
1.20501
1.22435
1.24932
1.28061
1.31444
1.34912
1.38071
1.40645
1.42507
1.43651
1.45403
1.46065
1.44232
1.44206
1.44428
1.44935
1.4565
1.46516
1.47478
1.48495
1.49541
1.50594
1.51641
1.52672
1.53681
1.54662
1.55614
1.56533
1.57417
1.58267
1.59088
1.59871
1.60586
1.63601
1.62752
1.61777
1.60625
1.59226
1.57495
1.55322
1.52504
1.48561
1.43176
1.36539
1.29893
1.24433
1.20822
1.18837
1.18182
1.18189
1.18725
1.19884
1.21945
1.24901
1.28237
1.3172
1.34956
1.3766
1.39685
1.41086
1.4206
1.43471
1.41464
1.41873
1.42429
1.43183
1.44089
1.45099
1.46168
1.47264
1.48366
1.49459
1.50535
1.51587
1.5261
1.53602
1.54563
1.5549
1.56381
1.57241
1.58078
1.58876
1.59588
1.65522
1.64962
1.64323
1.63559
1.62612
1.61417
1.59884
1.57825
1.54704
1.49908
1.43443
1.36819
1.30581
1.24909
1.20984
1.18484
1.16902
1.16129
1.1628
1.17702
1.20379
1.23623
1.27111
1.30427
1.3326
1.35436
1.36839
1.38568
1.39349
1.38714
1.39179
1.40003
1.41021
1.4216
1.43357
1.44571
1.45779
1.46966
1.48125
1.4925
1.50339
1.51392
1.52408
1.53389
1.54333
1.55237
1.5611
1.56971
1.57794
1.58485
1.67463
1.67201
1.66909
1.66551
1.6608
1.65452
1.64601
1.63337
1.6105
1.5686
1.50277
1.42699
1.3514
1.28301
1.22771
1.18328
1.14879
1.1249
1.11427
1.12036
1.14359
1.17497
1.21006
1.24439
1.27436
1.29838
1.31419
1.36098
1.34571
1.35165
1.35998
1.37185
1.38526
1.39941
1.41359
1.42748
1.44092
1.45385
1.46625
1.47813
1.48951
1.50041
1.51087
1.52091
1.53053
1.53969
1.54854
1.55737
1.56581
1.57236
1.69405
1.69446
1.6951
1.69569
1.69591
1.69553
1.69418
1.68991
1.6757
1.64106
1.58044
1.50158
1.41188
1.32398
1.24336
1.17764
1.12138
1.0779
1.05226
1.04894
1.06843
1.09894
1.13466
1.17091
1.20341
1.23055
1.25039
1.29881
1.29186
1.30552
1.32135
1.33907
1.35707
1.37475
1.39162
1.40757
1.42258
1.43672
1.45004
1.46264
1.47456
1.48587
1.49663
1.5069
1.51667
1.5259
1.53475
1.54367
1.55216
1.55797
1.71329
1.71673
1.72095
1.72578
1.73104
1.73673
1.74272
1.74707
1.74193
1.71403
1.65534
1.56889
1.46571
1.35506
1.25694
1.16651
1.08521
1.01942
0.977239
0.963907
0.980832
1.01134
1.04729
1.08628
1.12282
1.1546
1.18251
1.2185
1.23487
1.25345
1.27856
1.3035
1.32696
1.34868
1.36855
1.38675
1.40346
1.41887
1.43317
1.4465
1.45896
1.47067
1.48169
1.49211
1.50194
1.51114
1.51986
1.52855
1.5368
1.54227
1.73213
1.73859
1.74636
1.75542
1.76573
1.77755
1.79094
1.80375
1.80747
1.78506
1.72827
1.63382
1.51426
1.38909
1.2678
1.14945
1.04031
0.950684
0.891581
0.868589
0.881854
0.912541
0.95088
0.993727
1.03521
1.07304
1.10799
1.1444
1.16914
1.20161
1.23614
1.26834
1.2972
1.32287
1.34568
1.36606
1.38441
1.40105
1.41627
1.43027
1.44323
1.45527
1.46651
1.47705
1.48692
1.49614
1.50483
1.51332
1.52131
1.52704
1.75038
1.75976
1.77101
1.78423
1.79952
1.81738
1.8381
1.85904
1.87115
1.85364
1.79841
1.69663
1.56312
1.42243
1.27482
1.12639
0.988091
0.87451
0.799133
0.766847
0.776524
0.808116
0.850094
0.896744
0.942957
0.98488
1.02798
1.07183
1.11255
1.15672
1.19845
1.23662
1.27
1.29904
1.32436
1.34662
1.36637
1.38407
1.40006
1.41463
1.42799
1.44031
1.45175
1.46241
1.47236
1.48162
1.49036
1.49889
1.50685
1.51266
1.76781
1.78
1.79461
1.81182
1.83194
1.85562
1.88344
1.91202
1.93229
1.91996
1.86654
1.75596
1.61206
1.45221
1.27742
1.09857
0.931928
0.796346
0.705381
0.665787
0.674555
0.706976
0.750243
0.800308
0.850188
0.899816
0.952322
1.00744
1.06236
1.11739
1.16667
1.20988
1.24684
1.27848
1.30572
1.3294
1.35019
1.36865
1.38518
1.40012
1.41372
1.42617
1.43765
1.44831
1.45819
1.46732
1.47594
1.48448
1.49245
1.49778
1.78421
1.79906
1.81682
1.83782
1.8625
1.89172
1.92629
1.9629
1.98854
1.98145
1.92694
1.80708
1.65684
1.47747
1.27594
1.0687
0.876894
0.720981
0.617478
0.57134
0.578011
0.614107
0.656549
0.708038
0.764473
0.822423
0.887174
0.954173
1.02298
1.08649
1.14198
1.18913
1.22871
1.26213
1.29061
1.31516
1.33655
1.35538
1.37213
1.38715
1.40072
1.41305
1.42433
1.43473
1.44431
1.45308
1.46131
1.46954
1.47722
1.48178
1.7994
1.81668
1.83734
1.86181
1.8907
1.92505
1.96575
2.00932
2.0402
2.03516
1.98072
1.85631
1.6965
1.49805
1.27208
1.04062
0.828365
0.656647
0.541402
0.494965
0.49638
0.53176
0.570071
0.635074
0.693288
0.762748
0.840212
0.920545
0.99881
1.06787
1.12679
1.17587
1.21667
1.25084
1.27977
1.30455
1.32601
1.3448
1.36139
1.37617
1.38941
1.40135
1.41219
1.42209
1.43114
1.43933
1.44694
1.45457
1.46161
1.46537
1.81316
1.83261
1.85586
1.88342
1.91607
1.95502
2.00109
2.05036
2.08593
2.09168
2.0268
1.90086
1.73083
1.51467
1.2688
1.0194
0.792045
0.609109
0.486947
0.428713
0.430059
0.459906
0.514984
0.578359
0.648172
0.727753
0.817169
0.908176
0.991212
1.06254
1.122
1.17097
1.21146
1.24525
1.27376
1.29809
1.31909
1.33736
1.35341
1.36761
1.38024
1.39153
1.40168
1.41088
1.41919
1.42663
1.43348
1.44029
1.44652
1.44952
1.82534
1.84665
1.87209
1.90231
1.93816
1.98106
2.03179
2.08572
2.12686
2.13101
2.06224
1.94002
1.75975
1.52859
1.26991
1.00999
0.773586
0.583045
0.455204
0.391741
0.392631
0.425413
0.476082
0.546148
0.633715
0.726984
0.82417
0.917677
1.00039
1.07001
1.12735
1.17438
1.2132
1.24557
1.27286
1.2961
1.31609
1.33341
1.34854
1.36183
1.37355
1.38394
1.3932
1.4015
1.40891
1.41547
1.42142
1.42731
1.43261
1.43491
1.83578
1.85858
1.88579
1.91812
1.95657
2.00263
2.0572
2.11506
2.16245
2.16057
2.09901
1.97409
1.78361
1.54073
1.27706
1.01108
0.774612
0.583225
0.453337
0.389448
0.39078
0.425391
0.485771
0.563916
0.656484
0.755948
0.854842
0.945759
1.02389
1.08874
1.14191
1.18553
1.2216
1.2517
1.27708
1.29866
1.31716
1.33313
1.34699
1.35907
1.36964
1.37891
1.38708
1.39431
1.40069
1.40625
1.41121
1.41607
1.42038
1.42202
1.84435
1.86824
1.89673
1.93059
1.9709
2.01925
2.07663
2.13843
2.18516
2.1855
2.12642
2.00067
1.80429
1.5521
1.28964
1.03207
0.799805
0.611103
0.486156
0.424276
0.426216
0.464966
0.531078
0.614706
0.710463
0.809838
0.90433
0.988016
1.05855
1.1167
1.16436
1.20358
1.23609
1.26328
1.2862
1.30567
1.32229
1.33656
1.34886
1.35948
1.36868
1.37666
1.38359
1.38962
1.39486
1.39933
1.40323
1.40698
1.41022
1.41123
1.85096
1.87551
1.90474
1.93947
1.98078
2.03031
2.0891
2.1524
2.20094
2.20318
2.14243
2.01507
1.81907
1.56704
1.31374
1.06824
0.846306
0.666702
0.54971
0.493754
0.498155
0.54138
0.610111
0.69563
0.789202
0.881928
0.966824
1.04019
1.10141
1.15182
1.19326
1.22749
1.25595
1.27978
1.29987
1.31687
1.33132
1.34363
1.35414
1.36312
1.37079
1.37733
1.3829
1.38764
1.39165
1.39496
1.39774
1.40032
1.40246
1.40286
1.85553
1.88029
1.9097
1.94456
1.98591
2.03524
2.09366
2.15642
2.2026
2.2088
2.15747
2.0245
1.82294
1.58585
1.34706
1.11855
0.912527
0.74653
0.636704
0.590759
0.603136
0.647766
0.71599
0.797588
0.88295
0.96431
1.03677
1.09849
1.14983
1.19219
1.22717
1.25617
1.28034
1.30057
1.31758
1.3319
1.34398
1.35416
1.36273
1.36993
1.37596
1.38096
1.38509
1.38847
1.3912
1.39332
1.39495
1.39633
1.39733
1.39717
1.85804
1.88254
1.91154
1.94579
1.98616
2.0339
2.09029
2.15074
2.19894
2.20282
2.15021
2.02373
1.82778
1.60678
1.38722
1.18011
0.994943
0.846959
0.751005
0.714425
0.73064
0.774389
0.837639
0.909977
0.982909
1.05053
1.10974
1.15985
1.20156
1.23611
1.26476
1.28856
1.3084
1.32496
1.33879
1.35032
1.35992
1.36788
1.37443
1.37978
1.38409
1.38751
1.39017
1.39216
1.39359
1.3945
1.39498
1.39515
1.39501
1.39433
1.8585
1.88228
1.91029
1.94316
1.98156
2.02652
2.07975
2.14103
2.18544
2.19201
2.14134
2.01656
1.83226
1.62895
1.4313
1.24837
1.08726
0.960051
0.879349
0.851743
0.86939
0.908979
0.963463
1.0235
1.08241
1.13604
1.18261
1.22197
1.25483
1.28215
1.30484
1.32367
1.3393
1.35224
1.3629
1.37164
1.37875
1.38445
1.38897
1.39245
1.39505
1.39688
1.39805
1.39866
1.39879
1.39851
1.39785
1.39682
1.39555
1.3944
1.85695
1.87956
1.90601
1.93677
1.97225
2.01342
2.06275
2.12051
2.16181
2.16917
2.12073
2.00558
1.83551
1.65035
1.47556
1.31817
1.18218
1.07653
1.01112
0.991163
1.0078
1.04078
1.08466
1.13174
1.17711
1.21798
1.25335
1.28329
1.30833
1.32915
1.34639
1.3606
1.37225
1.38172
1.38934
1.39536
1.40003
1.40353
1.40604
1.40769
1.4086
1.40887
1.40859
1.40785
1.40672
1.40528
1.4035
1.40131
1.39896
1.39737
1.8535
1.87451
1.89884
1.92679
1.9584
1.99462
2.03923
2.09179
2.13674
2.14303
2.10358
1.99181
1.83518
1.66868
1.51677
1.38451
1.27308
1.18813
1.13676
1.12268
1.13686
1.16255
1.19598
1.23116
1.26472
1.29478
1.32076
1.34272
1.36105
1.37618
1.38856
1.39857
1.40656
1.41279
1.41753
1.42098
1.42333
1.42472
1.42531
1.42519
1.42448
1.42325
1.42158
1.41953
1.41719
1.41464
1.41181
1.40851
1.40513
1.40314
1.84827
1.86729
1.88897
1.91341
1.9402
1.97002
2.00779
2.0546
2.09331
2.11823
2.08253
1.97193
1.82994
1.68205
1.55202
1.44344
1.35496
1.289
1.25003
1.24039
1.25167
1.27073
1.29514
1.32046
1.34444
1.3658
1.38417
1.39957
1.41226
1.42252
1.43065
1.43692
1.4416
1.44488
1.44697
1.44803
1.44821
1.44763
1.44641
1.44464
1.4424
1.43976
1.43678
1.4335
1.43002
1.42642
1.4226
1.41825
1.4139
1.41156
1.84146
1.85811
1.87668
1.89696
1.91804
1.94017
1.96955
2.00931
2.05043
2.07259
2.04642
1.94643
1.81887
1.68945
1.57966
1.49264
1.42489
1.37589
1.34783
1.34187
1.3507
1.36454
1.38192
1.39967
1.4163
1.43093
1.44331
1.45344
1.46147
1.46762
1.4721
1.47511
1.47686
1.4775
1.4772
1.47608
1.47428
1.47188
1.46899
1.46568
1.46202
1.45806
1.45386
1.44944
1.4449
1.44034
1.4356
1.4303
1.42505
1.42239
1.83326
1.84725
1.86231
1.87792
1.89263
1.90632
1.92629
1.95875
1.99819
2.01779
1.99742
1.91217
1.80248
1.6904
1.59941
1.53118
1.48182
1.44782
1.42949
1.42707
1.43449
1.44478
1.45719
1.46951
1.48076
1.49036
1.49814
1.5041
1.50838
1.51112
1.51251
1.51272
1.51192
1.51023
1.5078
1.50474
1.50114
1.4971
1.49269
1.48798
1.48302
1.47788
1.47256
1.46711
1.4616
1.45615
1.45057
1.44437
1.43827
1.43532
1.82393
1.83502
1.84629
1.85685
1.86473
1.86948
1.87905
1.90355
1.93774
1.95566
1.93934
1.87274
1.78004
1.68535
1.61032
1.55924
1.52602
1.50539
1.49599
1.49739
1.50461
1.51297
1.52225
1.53095
1.53848
1.54445
1.54878
1.55152
1.55279
1.55276
1.55159
1.54943
1.54643
1.54273
1.53843
1.53365
1.52846
1.52294
1.51717
1.51119
1.50506
1.49882
1.4925
1.48611
1.47973
1.47351
1.46722
1.46024
1.45342
1.45047
1.81374
1.82178
1.82906
1.83435
1.83514
1.8305
1.82892
1.84584
1.87382
1.88638
1.87632
1.82718
1.75136
1.67246
1.61307
1.57731
1.55845
1.54999
1.54909
1.55479
1.56302
1.57084
1.57849
1.58503
1.59013
1.59359
1.59541
1.59572
1.59466
1.5924
1.58912
1.58498
1.58013
1.5747
1.56879
1.56249
1.5559
1.54908
1.54208
1.53496
1.52778
1.52057
1.51335
1.50613
1.499
1.4921
1.48523
1.47774
1.47042
1.46715
1.80296
1.80787
1.8111
1.81107
1.80473
1.79065
1.7778
1.78513
1.80924
1.81452
1.80831
1.77429
1.71537
1.65252
1.60808
1.58587
1.58033
1.58331
1.59077
1.60136
1.61162
1.62001
1.62722
1.63272
1.6364
1.63823
1.63831
1.63682
1.63397
1.62996
1.62498
1.61922
1.61282
1.60591
1.59862
1.59102
1.5832
1.57522
1.56714
1.55901
1.55087
1.54277
1.53472
1.52673
1.51888
1.51129
1.50378
1.49576
1.48795
1.48394
1.79187
1.79369
1.79289
1.78766
1.77445
1.7512
1.72728
1.7244
1.73981
1.7424
1.73629
1.71428
1.67154
1.6248
1.59477
1.58582
1.59295
1.607
1.62291
1.63896
1.65212
1.66194
1.66959
1.6749
1.67793
1.67881
1.67775
1.67499
1.6708
1.66543
1.6591
1.65201
1.64433
1.63619
1.62771
1.61899
1.6101
1.60111
1.59207
1.58303
1.57403
1.5651
1.55626
1.54751
1.53892
1.53062
1.5224
1.51368
1.50519
1.5005
1.78075
1.77958
1.77491
1.76475
1.74516
1.71316
1.67813
1.66512
1.65932
1.66125
1.66033
1.64688
1.61903
1.58956
1.57447
1.57833
1.59744
1.62248
1.64714
1.6692
1.68595
1.69786
1.70661
1.71235
1.71531
1.71576
1.71401
1.71039
1.70523
1.69883
1.69144
1.68328
1.67454
1.66537
1.6559
1.64621
1.63641
1.62654
1.61666
1.60681
1.59704
1.58738
1.57784
1.56841
1.55917
1.55026
1.54142
1.53198
1.52277
1.51785
1.76987
1.76588
1.75762
1.74287
1.71756
1.67745
1.63164
1.60797
1.58767
1.58692
1.58185
1.57309
1.55803
1.54469
1.54435
1.56235
1.59382
1.6307
1.66474
1.6934
1.71431
1.72879
1.73913
1.74575
1.74905
1.74946
1.74737
1.74322
1.73737
1.73019
1.72197
1.71296
1.70335
1.69333
1.68302
1.67252
1.66193
1.65131
1.64071
1.63018
1.61976
1.60949
1.59936
1.58939
1.57963
1.57023
1.56098
1.55108
1.54139
1.53641
1.75945
1.7529
1.74141
1.72257
1.69233
1.64532
1.59957
1.55097
1.52352
1.51406
1.50259
1.49519
1.48985
1.49075
1.50529
1.53741
1.58316
1.63206
1.67666
1.71261
1.73817
1.75561
1.76788
1.77568
1.77963
1.78026
1.77809
1.77363
1.76732
1.75957
1.7507
1.741
1.73069
1.71995
1.70894
1.69776
1.6865
1.67524
1.66402
1.65291
1.64193
1.63113
1.62052
1.61008
1.59989
1.59008
1.58048
1.57035
1.56042
1.55513
1.74973
1.74092
1.72662
1.70434
1.67026
1.61881
1.5612
1.50348
1.46427
1.43869
1.42025
1.41623
1.41695
1.43028
1.45838
1.50399
1.56408
1.62722
1.68335
1.72758
1.75828
1.77903
1.79347
1.80267
1.80744
1.80847
1.8064
1.80179
1.79518
1.78699
1.77762
1.76736
1.75647
1.74514
1.73353
1.72176
1.70994
1.69812
1.68638
1.67475
1.66328
1.65201
1.64094
1.63008
1.61948
1.60927
1.5993
1.58888
1.57871
1.57294
1.74087
1.73018
1.71364
1.68873
1.65141
1.59697
1.52785
1.46123
1.4056
1.36594
1.36222
1.34243
1.34367
1.36564
1.4054
1.46375
1.53644
1.61489
1.68409
1.73872
1.77517
1.79962
1.81642
1.82714
1.83282
1.83436
1.83248
1.82784
1.82101
1.8125
1.80272
1.792
1.78062
1.76879
1.75667
1.7444
1.73208
1.71979
1.70759
1.69552
1.68363
1.67194
1.66048
1.64924
1.63826
1.6277
1.61737
1.60658
1.59605
1.58994
1.733
1.7208
1.70248
1.67557
1.63606
1.57916
1.50439
1.42616
1.35445
1.32516
1.30546
1.27161
1.27481
1.30077
1.34814
1.41737
1.5033
1.5943
1.68058
1.746
1.78915
1.81781
1.83715
1.84944
1.85607
1.85814
1.85649
1.85186
1.84489
1.83611
1.82599
1.81488
1.80307
1.7908
1.77824
1.76554
1.7528
1.7401
1.72751
1.71507
1.70283
1.69081
1.67904
1.66749
1.65623
1.64538
1.63479
1.62371
1.61286
1.60662
1.72622
1.71288
1.69329
1.66503
1.62426
1.5663
1.48868
1.40183
1.31807
1.28953
1.23891
1.20041
1.20724
1.23676
1.28956
1.36692
1.46461
1.56943
1.66807
1.74972
1.80021
1.83388
1.85597
1.86985
1.87741
1.87999
1.87856
1.87395
1.86685
1.85783
1.8474
1.83593
1.82374
1.81108
1.79813
1.78504
1.77193
1.75888
1.74596
1.73322
1.72069
1.70842
1.69641
1.68466
1.67318
1.66215
1.65141
1.64022
1.62922
1.6229
1.72058
1.70649
1.68613
1.6572
1.61616
1.55867
1.48092
1.38966
1.29854
1.25496
1.19013
1.14741
1.14785
1.18021
1.2339
1.31685
1.42256
1.53901
1.65048
1.74664
1.80847
1.84782
1.873
1.88852
1.89699
1.90002
1.89877
1.89415
1.8869
1.87765
1.86692
1.85511
1.84257
1.82954
1.81623
1.80279
1.78935
1.77599
1.76278
1.74977
1.737
1.72451
1.7123
1.70038
1.68877
1.6776
1.66679
1.65564
1.64469
1.63825
1.71611
1.70164
1.681
1.65205
1.61165
1.55576
1.48007
1.38848
1.29339
1.21863
1.15429
1.10365
1.09015
1.12283
1.19141
1.27209
1.38173
1.50649
1.62907
1.73569
1.81282
1.85888
1.88792
1.90541
1.91486
1.91831
1.91717
1.91248
1.90505
1.89554
1.8845
1.87237
1.85947
1.84609
1.83244
1.81868
1.80493
1.79129
1.77781
1.76456
1.75157
1.73889
1.72652
1.71446
1.70274
1.69148
1.68063
1.66958
1.65875
1.65195
1.7128
1.69827
1.6778
1.64942
1.61035
1.55695
1.48486
1.39548
1.29814
1.21267
1.13624
1.08007
1.05923
1.08341
1.15985
1.23489
1.34625
1.47583
1.60592
1.72396
1.80898
1.86565
1.89992
1.92028
1.931
1.93487
1.93377
1.92894
1.92127
1.91148
1.90011
1.88763
1.8744
1.86068
1.84671
1.83265
1.81861
1.8047
1.79099
1.77752
1.76435
1.75149
1.73897
1.72679
1.71496
1.70357
1.69261
1.68156
1.67074
1.66345
1.71059
1.69631
1.67638
1.64905
1.61186
1.56166
1.4943
1.40938
1.31279
1.22182
1.14083
1.07962
1.05144
1.06899
1.14167
1.2118
1.32043
1.45097
1.58472
1.7098
1.80398
1.86711
1.91065
1.9328
1.94536
1.94966
1.94854
1.94349
1.93553
1.9254
1.91369
1.90086
1.88729
1.87325
1.85897
1.84463
1.83034
1.81619
1.80227
1.78861
1.77527
1.76226
1.74959
1.73728
1.72532
1.71379
1.70267
1.69151
1.6806
1.67297
1.7094
1.69563
1.67657
1.65066
1.6158
1.56931
1.50751
1.42897
1.33697
1.24445
1.16189
1.09132
1.06633
1.07815
1.13832
1.20365
1.30628
1.43488
1.56884
1.69634
1.79592
1.86451
1.91619
1.94388
1.95757
1.96248
1.96138
1.95607
1.94776
1.93725
1.92517
1.912
1.89809
1.88374
1.86919
1.85458
1.84007
1.82572
1.81162
1.79781
1.78432
1.77118
1.75841
1.74599
1.73393
1.7223
1.71109
1.69985
1.68884
1.68101
1.70915
1.69609
1.67814
1.65395
1.62173
1.57927
1.52353
1.45258
1.36803
1.27854
1.19621
1.12477
1.08908
1.09697
1.13356
1.20637
1.30511
1.42943
1.56059
1.68662
1.7874
1.8608
1.91468
1.95015
1.967
1.97295
1.9721
1.96658
1.95789
1.94698
1.93452
1.92099
1.90676
1.89213
1.87732
1.86249
1.84778
1.83327
1.81903
1.8051
1.79152
1.7783
1.76546
1.75299
1.74089
1.72922
1.71797
1.70674
1.69571
1.68774
1.70972
1.69754
1.6809
1.65861
1.62922
1.59094
1.54136
1.47856
1.40306
1.32048
1.24147
1.17221
1.13204
1.12581
1.15836
1.22465
1.31852
1.43553
1.56099
1.68247
1.78081
1.855
1.91187
1.95162
1.97399
1.98043
1.98051
1.97487
1.96581
1.95449
1.94165
1.92778
1.91326
1.89838
1.88335
1.86834
1.85348
1.83884
1.8245
1.8105
1.79686
1.7836
1.77073
1.75826
1.74616
1.7345
1.72327
1.71213
1.70119
1.6931
1.71099
1.6998
1.68459
1.66434
1.63786
1.60373
1.56017
1.50551
1.43975
1.36644
1.29418
1.22966
1.18817
1.17698
1.20227
1.25996
1.34512
1.45269
1.56974
1.68445
1.77773
1.84961
1.90718
1.94776
1.97674
1.98652
1.9863
1.98074
1.97142
1.95974
1.94654
1.93237
1.91759
1.90249
1.88728
1.87213
1.85716
1.84245
1.82805
1.81401
1.80035
1.78709
1.77423
1.76177
1.74971
1.73807
1.72689
1.71587
1.70515
1.69711
1.71284
1.70273
1.68902
1.67085
1.64726
1.61716
1.57926
1.53233
1.47619
1.41309
1.34964
1.29215
1.25273
1.23942
1.25792
1.30668
1.38219
1.47898
1.58594
1.69163
1.7785
1.84606
1.90178
1.94457
1.97265
1.98827
1.98914
1.98403
1.97459
1.96266
1.94917
1.93473
1.91974
1.90447
1.88914
1.8739
1.85887
1.84413
1.82973
1.81571
1.80209
1.78888
1.7761
1.76373