/*--------------------------------*- C++ -*----------------------------------*\
  =========                 |
  \\      /  F ield         | OpenFOAM: The Open Source CFD Toolbox
   \\    /   O peration     | Website:  https://openfoam.org
    \\  /    A nd           | Version:  9
     \\/     M anipulation  |
\*---------------------------------------------------------------------------*/
FoamFile
{
    format      ascii;
    class       volScalarField;
    location    "0.11";
    object      p_rgh;
}
// * * * * * * * * * * * * * * * * * * * * * * * * * * * * * * * * * * * * * //

dimensions      [1 -1 -2 0 0 0 0];

internalField   nonuniform List<scalar> 
5000
(
-0.326341
-0.366391
-0.413642
-0.469843
-0.537333
-0.619176
-0.719518
-0.843562
-0.998218
-1.2271
-1.61594
-1.68881
-75.4267
-1380.58
-1816.63
-1816.79
-1817.32
-1817.4
-1817.3
-1817.17
-1817.15
-1817.28
-1817.64
-1818.21
-1818.89
-1819.48
-1819.78
-1819.81
-1819.92
-1494.18
-201.505
-1.53322
-1.49372
-1.14777
-0.976236
-0.863625
-0.764031
-0.671078
-0.585806
-0.508746
-0.43923
-0.37615
-0.318469
-0.265383
-0.216298
-0.17077
-0.128436
-0.0889963
-0.0522424
-0.0180069
-0.340969
-0.381568
-0.429042
-0.485044
-0.551408
-0.629981
-0.723559
-0.836716
-0.971996
-1.15219
-1.38448
-1.39415
-33.8432
-1277.2
-1815.04
-1815.36
-1815.92
-1815.89
-1815.68
-1815.49
-1815.42
-1815.53
-1815.89
-1816.56
-1817.41
-1818.24
-1818.7
-1818.53
-1817.92
-1295.22
-61.4281
-1.36384
-1.37708
-0.985098
-0.87785
-0.789482
-0.70738
-0.62742
-0.551532
-0.481358
-0.41714
-0.358326
-0.304173
-0.254041
-0.207446
-0.164028
-0.123497
-0.085612
-0.0502086
-0.017114
-0.353449
-0.394253
-0.441445
-0.496433
-0.560609
-0.634869
-0.720533
-0.82135
-0.936686
-1.07505
-1.29659
-1.3186
-3.06901
-1057.55
-1814
-1814.47
-1814.74
-1814.48
-1814.11
-1813.8
-1813.64
-1813.67
-1813.96
-1814.58
-1815.45
-1816.41
-1816.96
-1816.31
-1809.83
-854.919
-1.13398
-1.1794
-1.17532
-0.839563
-0.773874
-0.71375
-0.64967
-0.58257
-0.516102
-0.452895
-0.394026
-0.3395
-0.288911
-0.241813
-0.197834
-0.156686
-0.118135
-0.0819839
-0.0480944
-0.0162573
-0.363877
-0.404591
-0.451158
-0.504594
-0.565842
-0.635193
-0.712699
-0.801114
-0.89875
-1.00737
-1.26197
-1.3686
-1.53499
-692.516
-1790.62
-1813.71
-1813.42
-1812.9
-1812.42
-1812.01
-1811.76
-1811.65
-1811.73
-1812.04
-1812.59
-1813.33
-1813.62
-1812.06
-1615.86
-337.075
-1.03933
-1.07034
-0.862331
-0.725951
-0.687246
-0.647545
-0.598298
-0.541922
-0.483447
-0.426343
-0.372272
-0.321666
-0.274391
-0.230162
-0.188699
-0.149766
-0.113151
-0.0786505
-0.0460916
-0.0153811
-0.372354
-0.412675
-0.458296
-0.50989
-0.567976
-0.632364
-0.702085
-0.778809
-0.861158
-0.947914
-1.15778
-1.26726
-1.27156
-315.54
-1641.34
-1811.43
-1811.25
-1810.82
-1810.45
-1810.06
-1809.75
-1809.52
-1809.32
-1809.19
-1809.38
-1810.03
-1810.2
-1803.69
-942.476
-5.89385
-1.12142
-1.21405
-0.813413
-0.645133
-0.636624
-0.601626
-0.559382
-0.509662
-0.456599
-0.40397
-0.353624
-0.306196
-0.261716
-0.220005
-0.180869
-0.144159
-0.109771
-0.0776243
-0.0477027
-0.0204371
-0.379032
-0.418748
-0.46322
-0.512857
-0.567809
-0.62753
-0.690385
-0.756759
-0.825534
-0.894247
-1.02806
-1.1069
-1.08147
-47.0131
-1227.63
-1806.97
-1808.41
-1808.37
-1808.28
-1808.02
-1807.68
-1807.33
-1806.92
-1806.54
-1806.79
-1807.85
-1808.9
-1257.8
-130.618
-0.7234
-1.1171
-1.08295
-0.894813
-0.617938
-0.606688
-0.572988
-0.532876
-0.486147
-0.436204
-0.386448
-0.338665
-0.293518
-0.251083
-0.211214
-0.173726
-0.138458
-0.105275
-0.0740302
-0.0445305
-0.0166872
-0.384078
-0.42306
-0.466304
-0.514017
-0.566035
-0.621598
-0.678817
-0.736871
-0.794675
-0.848628
-0.861026
-0.980669
-0.976802
-0.83976
-469.453
-1608.42
-1806.05
-1805.96
-1806.07
-1806.02
-1805.68
-1805.17
-1804.36
-1803.14
-1802.87
-1804.83
-1307.57
-171.879
-0.822149
-0.851109
-1.06044
-0.829157
-0.830533
-0.605301
-0.584001
-0.552419
-0.513665
-0.468499
-0.420651
-0.372902
-0.326958
-0.283466
-0.242514
-0.203966
-0.167635
-0.133352
-0.100974
-0.0703663
-0.0413879
-0.0139375
-0.387641
-0.425828
-0.467852
-0.513762
-0.56318
-0.61524
-0.668117
-0.720368
-0.770463
-0.810375
-0.834518
-0.934597
-0.952139
-1.26296
-2.40135
-682.455
-1685.26
-1803.28
-1803.52
-1804
-1803.96
-1803.37
-1801.71
-1797.96
-1735.19
-1049.97
-130.544
-0.661142
-0.672099
-0.656993
-0.775711
-0.865773
-0.640338
-0.607381
-0.563433
-0.534985
-0.498088
-0.454471
-0.408369
-0.362279
-0.317839
-0.275697
-0.235962
-0.198515
-0.163184
-0.129804
-0.0982347
-0.0683494
-0.0400243
-0.01309
-0.389849
-0.427227
-0.4681
-0.512379
-0.559595
-0.608872
-0.658638
-0.70753
-0.754117
-0.791489
-0.88328
-0.881767
-0.963999
-1.86371
-1.34157
-2.5588
-537.053
-1361.39
-1694.24
-1769.36
-1762.74
-1703.37
-1542.31
-1155.81
-493.984
-42.3111
-0.588251
-0.62932
-0.621136
-0.609178
-0.709714
-0.929485
-0.612302
-0.591634
-0.550014
-0.522066
-0.485901
-0.443645
-0.398924
-0.354216
-0.31105
-0.27007
-0.231402
-0.194946
-0.160537
-0.128017
-0.0972415
-0.0680846
-0.0404295
-0.0140406
-0.390807
-0.427391
-0.467214
-0.510092
-0.555516
-0.602702
-0.650388
-0.697654
-0.743441
-0.783547
-0.880072
-0.880821
-1.25269
-1.88535
-1.07682
-1.06625
-1.06097
-138.157
-409.893
-587.338
-565.045
-420.704
-205.165
-38.9226
-0.655458
-0.646936
-0.651042
-0.602326
-0.593821
-0.581214
-0.82204
-0.935698
-0.649035
-0.560871
-0.540977
-0.51355
-0.47698
-0.435875
-0.392143
-0.348505
-0.306377
-0.266382
-0.228639
-0.193049
-0.15945
-0.127684
-0.0976113
-0.0691023
-0.0420444
-0.0163149
-0.390608
-0.426435
-0.465312
-0.507024
-0.551049
-0.596731
-0.643153
-0.689778
-0.736151
-0.793667
-0.866551
-0.89166
-1.29633
-1.05157
-0.807292
-0.824327
-0.993205
-0.765822
-0.752533
-0.755821
-0.717826
-0.681992
-0.657073
-0.633331
-0.749668
-0.668898
-0.597045
-0.589602
-0.583526
-0.673084
-0.982788
-0.964406
-0.90308
-0.554015
-0.536389
-0.508919
-0.471631
-0.430828
-0.387702
-0.344832
-0.303545
-0.264399
-0.227488
-0.192701
-0.159873
-0.12885
-0.0995023
-0.0716971
-0.0452421
-0.0199836
-0.389319
-0.424432
-0.46246
-0.503214
-0.546192
-0.590844
-0.63663
-0.68335
-0.73176
-0.798239
-0.812471
-0.907193
-1.28003
-0.846423
-0.781842
-0.764978
-0.767061
-0.771277
-0.827174
-0.840087
-0.802646
-0.741865
-0.682254
-0.63935
-0.612701
-0.59748
-0.591041
-0.588845
-0.587191
-0.903001
-0.986637
-0.980545
-0.970717
-0.557204
-0.53695
-0.50806
-0.469681
-0.428246
-0.385238
-0.342826
-0.302207
-0.263817
-0.22769
-0.193691
-0.161642
-0.131376
-0.102758
-0.0756673
-0.0499416
-0.0253394
-0.386987
-0.421428
-0.45869
-0.498653
-0.540862
-0.584861
-0.630446
-0.677827
-0.730314
-0.796054
-0.819752
-1.02159
-1.27554
-0.882619
-0.77098
-0.752664
-0.739939
-0.70471
-0.688715
-0.66869
-0.648439
-0.631071
-0.616683
-0.605741
-0.597836
-0.592663
-0.590825
-0.590087
-0.593077
-0.988533
-0.996203
-0.995893
-0.836495
-0.561289
-0.539056
-0.507572
-0.468997
-0.426815
-0.383776
-0.341751
-0.301755
-0.264098
-0.228747
-0.195532
-0.164258
-0.134747
-0.106851
-0.0804557
-0.0554805
-0.031739
-0.383642
-0.417448
-0.45401
-0.493305
-0.534945
-0.578587
-0.624251
-0.672578
-0.727688
-0.772881
-0.831577
-1.14505
-1.26504
-0.885947
-0.765395
-0.74526
-0.726325
-0.694987
-0.673324
-0.652285
-0.634603
-0.620601
-0.609072
-0.601041
-0.594535
-0.591076
-0.589426
-0.589272
-0.592706
-0.961035
-1.00324
-0.958308
-0.596457
-0.564163
-0.5399
-0.506585
-0.46744
-0.424889
-0.382088
-0.340673
-0.301465
-0.264675
-0.230213
-0.197885
-0.167487
-0.138844
-0.111803
-0.0862359
-0.0620875
-0.0392296
-0.3793
-0.412496
-0.448416
-0.487133
-0.528338
-0.571824
-0.617753
-0.666946
-0.720416
-0.765978
-0.86057
-1.05332
-1.2646
-0.837649
-0.760253
-0.738578
-0.716718
-0.688822
-0.666428
-0.645392
-0.628141
-0.614745
-0.603744
-0.597137
-0.593728
-0.587601
-0.586117
-0.586216
-0.589046
-0.922831
-0.987001
-0.808485
-0.586305
-0.570492
-0.540299
-0.5049
-0.464562
-0.4218
-0.379484
-0.338941
-0.300778
-0.265088
-0.231727
-0.200481
-0.17114
-0.143533
-0.117506
-0.0929063
-0.0696768
-0.0477533
-0.373962
-0.406555
-0.441884
-0.480076
-0.520942
-0.564392
-0.610718
-0.66077
-0.713865
-0.762779
-0.84266
-0.916341
-1.00039
-0.786681
-0.755435
-0.732144
-0.708325
-0.682487
-0.659562
-0.638755
-0.621515
-0.608094
-0.597286
-0.59254
-0.588359
-0.584056
-0.580718
-0.581358
-0.584723
-0.898677
-0.974057
-0.806131
-0.589007
-0.570959
-0.537956
-0.500558
-0.459299
-0.416843
-0.375395
-0.336074
-0.299265
-0.264947
-0.232929
-0.202978
-0.174884
-0.148484
-0.123629
-0.100148
-0.0779847
-0.0571741
-0.367622
-0.399597
-0.434357
-0.472054
-0.512643
-0.556129
-0.602972
-0.654016
-0.708697
-0.773287
-0.80291
-0.895092
-0.794395
-0.773068
-0.749769
-0.725661
-0.7007
-0.675425
-0.652646
-0.634099
-0.615791
-0.600106
-0.588996
-0.583024
-0.580122
-0.577275
-0.57355
-0.574347
-0.578973
-0.877067
-0.961167
-0.778779
-0.586711
-0.563112
-0.530518
-0.491636
-0.450449
-0.409047
-0.369126
-0.331541
-0.296494
-0.263882
-0.233487
-0.205076
-0.178451
-0.153461
-0.129968
-0.107811
-0.0869035
-0.0672221
-0.360266
-0.391587
-0.425765
-0.462968
-0.503301
-0.546867
-0.594318
-0.646548
-0.703283
-0.765385
-0.798192
-0.937262
-0.792143
-0.769244
-0.743677
-0.719248
-0.693364
-0.668307
-0.647301
-0.625456
-0.607486
-0.591532
-0.578877
-0.570605
-0.569415
-0.566421
-0.563422
-0.564487
-0.572927
-0.863517
-0.938796
-0.667466
-0.577281
-0.549931
-0.51624
-0.477387
-0.437391
-0.397935
-0.360286
-0.325012
-0.292175
-0.261624
-0.233141
-0.206513
-0.181562
-0.158147
-0.136141
-0.115414
-0.0958673
-0.0772898
-0.351876
-0.382491
-0.416035
-0.452718
-0.492769
-0.536412
-0.584488
-0.637979
-0.697069
-0.751786
-0.82532
-0.930305
-0.840347
-0.767006
-0.740046
-0.713252
-0.6861
-0.662761
-0.638648
-0.615982
-0.596991
-0.579561
-0.566999
-0.557678
-0.551806
-0.552079
-0.552324
-0.552752
-0.562841
-0.823637
-0.906082
-0.572465
-0.553127
-0.52647
-0.493796
-0.457225
-0.419965
-0.383534
-0.348925
-0.316503
-0.286273
-0.258082
-0.231741
-0.207073
-0.183934
-0.162203
-0.141759
-0.122493
-0.104343
-0.0870428
-0.342433
-0.372272
-0.405103
-0.441204
-0.4809
-0.524559
-0.57319
-0.627902
-0.68833
-0.744683
-0.881021
-0.926986
-0.9171
-0.77659
-0.736387
-0.7073
-0.678728
-0.65236
-0.628254
-0.603678
-0.582797
-0.566699
-0.553408
-0.542866
-0.535107
-0.533482
-0.534018
-0.534785
-0.586552
-0.781961
-0.780058
-0.532355
-0.517279
-0.493747
-0.464493
-0.432166
-0.398994
-0.366529
-0.33557
-0.306417
-0.279085
-0.25347
-0.22944
-0.206871
-0.185659
-0.165714
-0.146932
-0.129205
-0.112494
-0.0966201
-0.331915
-0.360886
-0.3929
-0.428319
-0.467541
-0.511101
-0.560141
-0.615955
-0.677545
-0.736618
-0.833533
-0.926633
-0.909072
-0.765623
-0.733154
-0.701177
-0.671282
-0.643233
-0.616571
-0.591449
-0.570602
-0.553107
-0.538268
-0.526073
-0.516554
-0.510634
-0.510017
-0.508355
-0.546514
-0.726202
-0.519811
-0.494866
-0.479311
-0.458188
-0.432887
-0.405112
-0.376525
-0.348371
-0.321293
-0.295562
-0.271239
-0.248289
-0.226647
-0.206244
-0.187014
-0.168897
-0.15182
-0.135691
-0.120465
-0.105995
-0.320306
-0.348289
-0.379355
-0.413944
-0.452535
-0.495821
-0.545083
-0.601875
-0.665171
-0.728495
-0.770135
-0.928488
-0.802179
-0.762248
-0.730914
-0.69458
-0.663441
-0.644497
-0.69486
-0.584207
-0.558086
-0.53862
-0.521749
-0.507524
-0.496005
-0.487177
-0.482208
-0.495042
-0.618562
-0.536489
-0.456506
-0.451767
-0.440021
-0.422835
-0.401919
-0.378747
-0.354662
-0.33067
-0.307317
-0.284878
-0.263459
-0.243089
-0.223764
-0.205465
-0.188157
-0.171806
-0.156369
-0.141795
-0.128031
-0.114836
-0.307596
-0.334447
-0.364403
-0.397972
-0.435722
-0.478491
-0.527724
-0.585264
-0.650604
-0.717703
-0.804832
-0.873291
-0.807145
-0.78472
-0.72513
-0.687426
-0.681909
-1.0277
-1.18469
-0.962888
-0.572446
-0.523014
-0.503747
-0.487251
-0.473706
-0.463082
-0.455174
-0.501927
-0.58395
-0.490487
-0.418134
-0.413022
-0.403889
-0.390564
-0.373859
-0.354931
-0.33492
-0.31465
-0.294632
-0.275155
-0.25637
-0.238358
-0.22116
-0.204793
-0.189252
-0.17452
-0.160578
-0.147414
-0.134975
-0.122909
-0.293789
-0.319344
-0.348001
-0.380322
-0.416958
-0.458893
-0.507723
-0.565533
-0.632619
-0.70186
-0.863291
-0.89617
-0.895525
-0.829469
-0.721907
-0.68224
-1.11939
-1.20694
-1.16759
-1.13053
-0.845584
-0.506061
-0.484165
-0.465335
-0.449898
-0.437775
-0.428853
-0.490325
-0.560602
-0.485528
-0.389287
-0.383439
-0.375362
-0.364385
-0.350723
-0.335109
-0.318373
-0.301169
-0.283946
-0.26699
-0.250476
-0.234518
-0.219184
-0.204516
-0.190531
-0.177226
-0.164593
-0.152641
-0.14133
-0.13027
-0.278897
-0.302981
-0.330127
-0.36095
-0.396119
-0.436839
-0.484716
-0.542
-0.609551
-0.680627
-0.808262
-0.885078
-0.891938
-0.81648
-0.721399
-0.947265
-1.2324
-1.18932
-1.15238
-1.11346
-0.829664
-0.487702
-0.463458
-0.442455
-0.425352
-0.412103
-0.402788
-0.462199
-0.540495
-0.517849
-0.365732
-0.36064
-0.353797
-0.344516
-0.333011
-0.319809
-0.30553
-0.290695
-0.27569
-0.260778
-0.246139
-0.231898
-0.218136
-0.204909
-0.192245
-0.180154
-0.168633
-0.157694
-0.147317
-0.137162
-0.262945
-0.285372
-0.310775
-0.339848
-0.373124
-0.412164
-0.45846
-0.514404
-0.581167
-0.657232
-0.717054
-0.870156
-0.884423
-0.796479
-0.72028
-1.21215
-1.21402
-1.17612
-1.14404
-0.987722
-0.560871
-0.470335
-0.443463
-0.420317
-0.401731
-0.387664
-0.378286
-0.426264
-0.517093
-0.517884
-0.35502
-0.343451
-0.338018
-0.330191
-0.320299
-0.308862
-0.296393
-0.283336
-0.27003
-0.256715
-0.243566
-0.230706
-0.218222
-0.206174
-0.194597
-0.183509
-0.172911
-0.162804
-0.153194
-0.143842
-0.245971
-0.266546
-0.289951
-0.316868
-0.348068
-0.384817
-0.428859
-0.482719
-0.547947
-0.624118
-0.685418
-0.809559
-0.871499
-0.782261
-0.776123
-1.22542
-1.20179
-1.15325
-0.841796
-0.533999
-0.484616
-0.455919
-0.426787
-0.401489
-0.381344
-0.366396
-0.356612
-0.38012
-0.496377
-0.495908
-0.34734
-0.332964
-0.328116
-0.321101
-0.312259
-0.302021
-0.290823
-0.279051
-0.266999
-0.254888
-0.242879
-0.231092
-0.219611
-0.208494
-0.197781
-0.187494
-0.177629
-0.168168
-0.15915
-0.150482
-0.228033
-0.246562
-0.267719
-0.292183
-0.320806
-0.354768
-0.395854
-0.446743
-0.509653
-0.581742
-0.652377
-0.825894
-0.769498
-0.761084
-0.857398
-0.9702
-0.819338
-0.586881
-0.533138
-0.506308
-0.478383
-0.447431
-0.416123
-0.388682
-0.366812
-0.350803
-0.340426
-0.337479
-0.432436
-0.471941
-0.332041
-0.328663
-0.323649
-0.316907
-0.308605
-0.299072
-0.288684
-0.27777
-0.266586
-0.255329
-0.244148
-0.233152
-0.222418
-0.212001
-0.201941
-0.192272
-0.182975
-0.173985
-0.165401
-0.157447
-0.209212
-0.225498
-0.244155
-0.265843
-0.291427
-0.322049
-0.359422
-0.40626
-0.465551
-0.535643
-0.643561
-0.78601
-0.765916
-0.802414
-0.732637
-0.630463
-0.597306
-0.565964
-0.538068
-0.509983
-0.479183
-0.446462
-0.413387
-0.384067
-0.360576
-0.343427
-0.332457
-0.325811
-0.327071
-0.368986
-0.330198
-0.32785
-0.323305
-0.316898
-0.308916
-0.29976
-0.289819
-0.279403
-0.268749
-0.258038
-0.247403
-0.236944
-0.226734
-0.216819
-0.207239
-0.198037
-0.189198
-0.180615
-0.172402
-0.165037
-0.189604
-0.203462
-0.21937
-0.237958
-0.260065
-0.286778
-0.319654
-0.361256
-0.415213
-0.481133
-0.667257
-0.732437
-0.766131
-0.775758
-0.73496
-0.621859
-0.595602
-0.57145
-0.54703
-0.519578
-0.487831
-0.454154
-0.419978
-0.389317
-0.36465
-0.346876
-0.337331
-0.352836
-0.365667
-0.330969
-0.33216
-0.331335
-0.327317
-0.321053
-0.313087
-0.303966
-0.294124
-0.283872
-0.273438
-0.262989
-0.252644
-0.242491
-0.232592
-0.222988
-0.21371
-0.204793
-0.196238
-0.187961
-0.180043
-0.1729
-0.169329
-0.180583
-0.193511
-0.208698
-0.226925
-0.249178
-0.276809
-0.312087
-0.359281
-0.419194
-0.566882
-0.673335
-0.717001
-0.736839
-0.644575
-0.610809
-0.598108
-0.582043
-0.562467
-0.537194
-0.505908
-0.472074
-0.437392
-0.405805
-0.380066
-0.361447
-0.352415
-0.419279
-0.429674
-0.344192
-0.344439
-0.342221
-0.337147
-0.329998
-0.321339
-0.311721
-0.301544
-0.291091
-0.280559
-0.270088
-0.259776
-0.249689
-0.239873
-0.230358
-0.221169
-0.212328
-0.20383
-0.195621
-0.187789
-0.180637
-0.148526
-0.15702
-0.166763
-0.178284
-0.19228
-0.209582
-0.23132
-0.259499
-0.298926
-0.352853
-0.421301
-0.518042
-0.594579
-0.591989
-0.600891
-0.607703
-0.608203
-0.600912
-0.585821
-0.565103
-0.535538
-0.502187
-0.467355
-0.43499
-0.407951
-0.387706
-0.374415
-0.430895
-0.454384
-0.370268
-0.365802
-0.360243
-0.352708
-0.343644
-0.333544
-0.322859
-0.311901
-0.30088
-0.289943
-0.279185
-0.26867
-0.258439
-0.248512
-0.238905
-0.229635
-0.220724
-0.21213
-0.203759
-0.195772
-0.188653
-0.127352
-0.132958
-0.139348
-0.146983
-0.156455
-0.168406
-0.183732
-0.204335
-0.23554
-0.283722
-0.348364
-0.415326
-0.479311
-0.537808
-0.577376
-0.603273
-0.619115
-0.625695
-0.620065
-0.605566
-0.578797
-0.546356
-0.511481
-0.478321
-0.44999
-0.42823
-0.419779
-0.492931
-0.492706
-0.395439
-0.390782
-0.382543
-0.372361
-0.360973
-0.349006
-0.336864
-0.324786
-0.312912
-0.301326
-0.290075
-0.27918
-0.268654
-0.258491
-0.248683
-0.239246
-0.230203
-0.221474
-0.212866
-0.204637
-0.19772
-0.10598
-0.108606
-0.111521
-0.115098
-0.119812
-0.126096
-0.134599
-0.147245
-0.170114
-0.212011
-0.297389
-0.410985
-0.499775
-0.526299
-0.56107
-0.601396
-0.633599
-0.655782
-0.666408
-0.660269
-0.637041
-0.605659
-0.570564
-0.536242
-0.506269
-0.482257
-0.483103
-0.605769
-0.517352
-0.428959
-0.420635
-0.408765
-0.395353
-0.381207
-0.367023
-0.353132
-0.339691
-0.326762
-0.314362
-0.302482
-0.291103
-0.280201
-0.269746
-0.259706
-0.250086
-0.240917
-0.232074
-0.223246
-0.214803
-0.208252
-0.084597
-0.0841918
-0.0835546
-0.0829581
-0.082738
-0.0831158
-0.0844747
-0.0887506
-0.10295
-0.13759
-0.243252
-0.37034
-0.460296
-0.523084
-0.53865
-0.601081
-0.657332
-0.700825
-0.72644
-0.729725
-0.712669
-0.682483
-0.644373
-0.60776
-0.575256
-0.548129
-0.547201
-0.668538
-0.573033
-0.473132
-0.457298
-0.439578
-0.42158
-0.403904
-0.387032
-0.371085
-0.356069
-0.341933
-0.328606
-0.316014
-0.30409
-0.292777
-0.282015
-0.271751
-0.261982
-0.252752
-0.243899
-0.234983
-0.226494
-0.220679
-0.0633996
-0.0599538
-0.0557379
-0.0509086
-0.0456508
-0.0399616
-0.0339659
-0.0296208
-0.0347546
-0.0626555
-0.136835
-0.301224
-0.404396
-0.464697
-0.519957
-0.610238
-0.691536
-0.757322
-0.799502
-0.81319
-0.807487
-0.776944
-0.73213
-0.690425
-0.653887
-0.62314
-0.744447
-0.747205
-0.693978
-0.523242
-0.49813
-0.473187
-0.449727
-0.42801
-0.408138
-0.389943
-0.373232
-0.357813
-0.343514
-0.33019
-0.317723
-0.30602
-0.294998
-0.284582
-0.274753
-0.26555
-0.256832
-0.248138
-0.239892
-0.234418
-0.0425928
-0.03614
-0.028368
-0.0193104
-0.00899652
0.0028226
0.016216
0.0290247
0.0327431
0.00167718
-0.0569065
-0.23351
-0.339415
-0.392753
-0.507085
-0.625408
-0.734555
-0.824107
-0.8832
-0.915818
-0.904665
-0.873977
-0.826176
-0.781025
-0.73955
-0.720355
-0.861676
-0.822175
-0.73927
-0.573117
-0.538587
-0.506382
-0.477526
-0.451851
-0.429046
-0.408665
-0.390318
-0.373672
-0.358456
-0.344454
-0.331499
-0.319456
-0.308215
-0.297679
-0.287801
-0.278582
-0.269899
-0.261406
-0.253419
-0.247683
-0.0223871
-0.0130028
-0.00175032
0.0114617
0.0267566
0.0446122
0.0653392
0.0862774
0.0983818
0.0720186
-0.0545384
-0.167749
-0.247198
-0.35053
-0.498091
-0.646514
-0.784815
-0.90109
-0.975715
-1.01555
-1.00449
-0.967895
-0.923397
-0.876066
-0.829964
-0.968664
-0.939386
-0.895536
-0.684055
-0.616048
-0.574318
-0.536149
-0.502768
-0.473725
-0.448404
-0.426144
-0.406392
-0.388699
-0.372707
-0.358138
-0.344776
-0.332451
-0.321017
-0.310354
-0.300406
-0.291146
-0.282408
-0.273869
-0.265909
-0.260108
-0.00299471
0.00920262
0.0238037
0.0410217
0.0611379
0.0848185
0.112643
0.141222
0.160762
0.14507
0.00588669
-0.101194
-0.165833
-0.318765
-0.493538
-0.672376
-0.839019
-0.983566
-1.08065
-1.10645
-1.09707
-1.06453
-1.02116
-0.970651
-1.04135
-1.06574
-1.01305
-0.947886
-0.708373
-0.653411
-0.604136
-0.560925
-0.523965
-0.492322
-0.465083
-0.441406
-0.420611
-0.402157
-0.385623
-0.370683
-0.357086
-0.344633
-0.33315
-0.322497
-0.312613
-0.303479
-0.294862
-0.28632
-0.278355
-0.273024
0.0153744
0.0302204
0.0479783
0.0689761
0.093659
0.122879
0.157453
0.194053
0.218802
0.21175
0.0683421
-0.00425275
-0.11238
-0.291627
-0.493129
-0.700293
-0.892093
-1.05544
-1.17704
-1.22032
-1.19175
-1.15554
-1.11303
-1.16008
-1.1989
-1.14095
-1.0762
-0.868034
-0.74585
-0.682353
-0.626858
-0.579714
-0.540135
-0.506708
-0.478226
-0.453683
-0.432295
-0.413458
-0.396708
-0.381687
-0.36812
-0.35579
-0.344506
-0.334108
-0.324529
-0.315759
-0.307534
-0.299298
-0.291622
-0.287057
0.032518
0.0497987
0.0704587
0.0949315
0.123822
0.158173
0.198871
0.242441
0.273215
0.228595
0.124191
0.0658418
-0.0706548
-0.269103
-0.495426
-0.727666
-0.939987
-1.11859
-1.25722
-1.42671
-1.38106
-1.24996
-1.27791
-1.32403
-1.26686
-1.19845
-1.06026
-0.846476
-0.768066
-0.699005
-0.640092
-0.591007
-0.550211
-0.516036
-0.487107
-0.462329
-0.440865
-0.422079
-0.405486
-0.390711
-0.377467
-0.365527
-0.35469
-0.344786
-0.335742
-0.327548
-0.319934
-0.312312
-0.305263
-0.301507
0.0482463
0.0676966
0.0909399
0.118508
0.151152
0.190102
0.236178
0.285444
0.320998
0.243295
0.17697
0.131577
-0.0343589
-0.25052
-0.499142
-0.759047
-0.984517
-1.17485
-1.42601
-1.49619
-1.4952
-1.45607
-1.43328
-1.37299
-1.30389
-1.13577
-0.954286
-0.85677
-0.773703
-0.702372
-0.642913
-0.593948
-0.553459
-0.51967
-0.491158
-0.466822
-0.445831
-0.427552
-0.411501
-0.397306
-0.384679
-0.373389
-0.363233
-0.354038
-0.345727
-0.338282
-0.331438
-0.324624
-0.318399
-0.315396
0.0623869
0.0836918
0.109138
0.139351
0.175209
0.218105
0.268841
0.322735
0.333197
0.290419
0.286433
0.176766
-0.00349552
-0.234636
-0.503057
-0.77273
-1.0084
-1.24265
-1.46765
-1.53119
-1.53013
-1.49727
-1.43593
-1.26992
-1.15307
-1.04036
-0.93911
-0.845283
-0.762569
-0.69294
-0.635603
-0.588579
-0.549753
-0.517381
-0.490093
-0.46685
-0.446866
-0.429541
-0.414414
-0.401127
-0.389401
-0.379009
-0.369752
-0.361458
-0.354045
-0.347488
-0.341534
-0.335648
-0.330344
-0.328039
0.0747884
0.0975867
0.124798
0.157133
0.195578
0.241642
0.296207
0.350361
0.365887
0.381961
0.33772
0.212805
0.0218245
-0.223024
-0.493048
-0.760458
-0.993288
-1.26174
-1.46756
-1.53134
-1.53083
-1.48874
-1.2918
-1.19843
-1.10584
-1.00569
-0.90621
-0.815234
-0.737104
-0.672249
-0.619082
-0.575458
-0.539392
-0.509289
-0.483913
-0.462331
-0.443829
-0.427863
-0.414007
-0.401925
-0.391356
-0.382082
-0.373912
-0.36668
-0.360301
-0.354744
-0.349777
-0.344918
-0.34061
-0.33897
0.0853234
0.109214
0.137703
0.171563
0.21187
0.260224
0.317548
0.374564
0.409987
0.396837
0.364073
0.240096
0.0178093
-0.214132
-0.469486
-0.728963
-0.961064
-1.21665
-1.43264
-1.49448
-1.48202
-1.31215
-1.22863
-1.14463
-1.04887
-0.949329
-0.854712
-0.771015
-0.700478
-0.642331
-0.594666
-0.55545
-0.522937
-0.495749
-0.472827
-0.453364
-0.436739
-0.42247
-0.410174
-0.399547
-0.390346
-0.382372
-0.375443
-0.369406
-0.364171
-0.359704
-0.355802
-0.352051
-0.348806
-0.347802
0.0938923
0.118444
0.147676
0.182399
0.223714
0.273241
0.331952
0.393664
0.441299
0.386037
0.366576
0.248786
0.0271303
-0.193534
-0.44342
-0.688921
-0.911059
-1.11654
-1.33113
-1.39644
-1.27555
-1.21618
-1.14709
-1.06151
-0.967932
-0.875169
-0.790247
-0.71688
-0.655655
-0.605247
-0.563808
-0.529583
-0.50112
-0.477284
-0.457202
-0.440199
-0.42575
-0.413437
-0.402925
-0.393944
-0.386277
-0.379741
-0.374173
-0.369428
-0.365421
-0.362109
-0.359327
-0.356745
-0.35461
-0.354208
0.100428
0.125186
0.154594
0.189455
0.230806
0.280133
0.338528
0.400319
0.399132
0.393734
0.34232
0.210164
0.0478033
-0.169344
-0.408142
-0.63665
-0.843115
-1.01201
-1.12675
-1.1759
-1.15244
-1.10743
-1.03915
-0.957535
-0.87217
-0.790802
-0.718335
-0.656615
-0.605278
-0.562914
-0.527938
-0.498939
-0.474769
-0.454531
-0.437525
-0.423203
-0.411128
-0.400947
-0.392373
-0.385171
-0.37915
-0.374147
-0.370017
-0.366632
-0.363904
-0.361784
-0.360153
-0.358774
-0.357776
-0.357935
0.104899
0.1294
0.158399
0.192642
0.233012
0.280752
0.337137
0.39271
0.38594
0.389742
0.353578
0.212971
0.0672447
-0.146452
-0.366206
-0.573371
-0.758389
-0.906709
-1.00272
-1.03901
-1.02259
-0.978772
-0.915512
-0.843171
-0.770239
-0.702611
-0.643403
-0.593299
-0.551587
-0.517032
-0.488388
-0.464582
-0.444744
-0.428184
-0.414355
-0.40282
-0.393222
-0.385268
-0.378716
-0.373365
-0.36905
-0.365629
-0.362977
-0.36098
-0.359553
-0.358639
-0.358164
-0.357998
-0.358139
-0.358817
0.107316
0.131098
0.159104
0.191975
0.230374
0.275339
0.328181
0.347909
0.374765
0.412052
0.360721
0.208565
0.0805104
-0.12277
-0.321072
-0.502818
-0.663936
-0.791214
-0.871919
-0.899482
-0.881806
-0.842206
-0.78772
-0.72768
-0.668772
-0.615143
-0.568577
-0.529213
-0.496349
-0.46903
-0.446344
-0.427509
-0.411883
-0.398947
-0.38828
-0.379538
-0.372434
-0.366727
-0.362216
-0.358733
-0.356136
-0.354304
-0.353131
-0.352522
-0.352389
-0.352668
-0.353335
-0.354367
-0.355628
-0.356783
0.107731
0.130344
0.156785
0.187552
0.223029
0.264199
0.311928
0.340913
0.380156
0.391063
0.331135
0.246286
0.0843071
-0.100898
-0.274778
-0.431046
-0.567041
-0.672703
-0.738112
-0.758063
-0.741418
-0.708443
-0.664557
-0.617484
-0.572111
-0.531237
-0.495865
-0.465932
-0.440891
-0.420068
-0.402828
-0.388616
-0.376968
-0.367498
-0.359885
-0.353859
-0.349192
-0.345688
-0.343181
-0.341533
-0.340624
-0.34035
-0.340626
-0.341373
-0.342503
-0.343943
-0.345718
-0.347912
-0.350259
-0.351848
0.10624
0.127253
0.151578
0.179529
0.211146
0.24731
0.290582
0.342787
0.385335
0.318596
0.252093
0.242183
0.0855562
-0.0807953
-0.230966
-0.362753
-0.474177
-0.559128
-0.610503
-0.624584
-0.610402
-0.584711
-0.55128
-0.516095
-0.482538
-0.452474
-0.426499
-0.404535
-0.38621
-0.371076
-0.358696
-0.348684
-0.340703
-0.334465
-0.329727
-0.326277
-0.323933
-0.322536
-0.321953
-0.322068
-0.322781
-0.324006
-0.325676
-0.327725
-0.330066
-0.332617
-0.335447
-0.33875
-0.342131
-0.344114
0.102978
0.121991
0.143675
0.168114
0.194902
0.224698
0.262281
0.308973
0.321739
0.187689
0.174271
0.224242
0.0822376
-0.0653962
-0.194224
-0.301856
-0.390333
-0.456296
-0.495265
-0.504911
-0.49363
-0.474565
-0.450155
-0.424832
-0.40086
-0.379497
-0.36113
-0.345721
-0.333036
-0.322778
-0.314649
-0.308373
-0.3037
-0.300414
-0.298323
-0.297262
-0.297084
-0.297662
-0.298884
-0.300658
-0.3029
-0.305538
-0.308519
-0.311795
-0.315276
-0.318873
-0.322697
-0.327043
-0.331399
-0.333738
0.0981219
0.114774
0.133345
0.153627
0.174704
0.196826
0.226182
0.257417
0.125122
0.143426
0.11782
0.166055
0.0731398
-0.0565617
-0.166258
-0.250698
-0.31844
-0.367445
-0.395505
-0.401468
-0.392634
-0.378796
-0.361412
-0.34366
-0.327037
-0.312404
-0.300028
-0.289898
-0.28186
-0.275711
-0.271233
-0.26822
-0.266477
-0.265833
-0.266136
-0.26725
-0.269057
-0.271451
-0.274344
-0.277656
-0.281318
-0.28527
-0.289472
-0.29389
-0.29843
-0.302995
-0.307733
-0.313037
-0.318287
-0.320948
0.0918878
0.105877
0.120941
0.136545
0.151256
0.164945
0.184861
0.177249
0.0702716
0.0902399
0.0701138
0.14355
0.0586805
-0.0569986
-0.147939
-0.210188
-0.259552
-0.293549
-0.311881
-0.314299
-0.306885
-0.296596
-0.284183
-0.271862
-0.260608
-0.251007
-0.243232
-0.237268
-0.232995
-0.23025
-0.228858
-0.228648
-0.229457
-0.23114
-0.23357
-0.236633
-0.240228
-0.244269
-0.248679
-0.253392
-0.258348
-0.263497
-0.268811
-0.274267
-0.279773
-0.285221
-0.2908
-0.297003
-0.3031
-0.306048
0.084521
0.0956129
0.10688
0.117437
0.125323
0.130063
0.139106
0.0678815
0.0125721
0.0306829
0.0533305
0.132157
0.0362385
-0.0618967
-0.135642
-0.180165
-0.213394
-0.234025
-0.243423
-0.242024
-0.234798
-0.226439
-0.21716
-0.208456
-0.200933
-0.194965
-0.190633
-0.187892
-0.186616
-0.186647
-0.187822
-0.189982
-0.192979
-0.196683
-0.200977
-0.205763
-0.210951
-0.216467
-0.222243
-0.228222
-0.234351
-0.240587
-0.246909
-0.253303
-0.259677
-0.2659
-0.272193
-0.27917
-0.285988
-0.28894
0.0762887
0.0843287
0.0916113
0.0969058
0.0976919
0.0930443
0.089558
-0.034568
-0.0495489
-0.0294287
0.123239
0.0888184
0.00832887
-0.0728117
-0.126489
-0.160135
-0.178994
-0.187463
-0.188362
-0.182653
-0.174426
-0.16661
-0.158956
-0.152414
-0.147319
-0.143863
-0.142033
-0.141729
-0.142792
-0.145049
-0.148327
-0.152464
-0.157315
-0.16275
-0.168661
-0.174953
-0.181547
-0.188372
-0.195368
-0.202484
-0.209668
-0.216879
-0.224099
-0.231316
-0.238444
-0.245344
-0.252215
-0.259706
-0.267028
-0.270299
0.0674696
0.0723882
0.0756091
0.0755871
0.0692469
0.0551508
0.0388951
-0.0958033
-0.111421
0.054863
0.072026
0.0380795
-0.0230853
-0.0874791
-0.127933
-0.149615
-0.155154
-0.15218
-0.144719
-0.134127
-0.123862
-0.115472
-0.108265
-0.102764
-0.0990844
-0.0972587
-0.0971745
-0.0986617
-0.101515
-0.105527
-0.110503
-0.116268
-0.122668
-0.129572
-0.136869
-0.144468
-0.152289
-0.160268
-0.168347
-0.176478
-0.184613
-0.192714
-0.200763
-0.208753
-0.216606
-0.224199
-0.23171
-0.239723
-0.247531
-0.251548
0.0583449
0.0601628
0.0593629
0.0541406
0.0409274
0.0176629
-0.0115782
-0.144651
-0.169042
0.0080632
0.00213146
-0.0199347
-0.0627101
-0.114803
-0.153476
-0.150378
-0.140573
-0.126525
-0.110616
-0.0945671
-0.0814047
-0.0715822
-0.06393
-0.0586233
-0.0555903
-0.0547125
-0.0557762
-0.0585341
-0.0627238
-0.068095
-0.0744227
-0.081512
-0.0891962
-0.0973349
-0.105812
-0.114534
-0.123422
-0.132413
-0.141453
-0.150496
-0.159498
-0.168424
-0.177265
-0.186016
-0.1946
-0.202901
-0.211124
-0.219848
-0.228329
-0.23302
0.0491903
0.0480141
0.0433523
0.0331833
0.0135957
-0.0184427
-0.0559927
-0.19791
-0.168189
-0.103435
-0.0718239
-0.0853158
-0.113231
-0.155128
-0.178934
-0.172382
-0.134222
-0.109082
-0.0844265
-0.062364
-0.0456119
-0.033706
-0.0249487
-0.0192135
-0.0162522
-0.0158037
-0.017552
-0.0211685
-0.0263284
-0.032734
-0.0401255
-0.048283
-0.0570225
-0.0661916
-0.0756665
-0.0853473
-0.0951545
-0.105024
-0.114904
-0.12475
-0.134519
-0.144177
-0.153721
-0.163151
-0.172389
-0.181306
-0.190141
-0.199584
-0.20879
-0.213709
0.0402673
0.0362789
0.028024
0.0132705
-0.0120364
-0.0522088
-0.120007
-0.246692
-0.190747
-0.213962
-0.148341
-0.157102
-0.172247
-0.198077
-0.20695
-0.189095
-0.150744
-0.0989003
-0.0648596
-0.0361988
-0.0152881
-0.000808118
0.00953348
0.0161464
0.0194536
0.0198564
0.0177737
0.0136163
0.00777337
0.000592658
-0.00762852
-0.0166424
-0.0262452
-0.0362702
-0.0465831
-0.0570771
-0.067668
-0.0782897
-0.0888887
-0.0994194
-0.109839
-0.120114
-0.130236
-0.140213