/*--------------------------------*- C++ -*----------------------------------*\
  =========                 |
  \\      /  F ield         | OpenFOAM: The Open Source CFD Toolbox
   \\    /   O peration     | Website:  https://openfoam.org
    \\  /    A nd           | Version:  9
     \\/     M anipulation  |
\*---------------------------------------------------------------------------*/
FoamFile
{
    format      ascii;
    class       surfaceScalarField;
    location    "0.11";
    object      phi;
}
// * * * * * * * * * * * * * * * * * * * * * * * * * * * * * * * * * * * * * //

dimensions      [0 3 -1 0 0 0 0];

internalField   nonuniform List<scalar> 
9850
(
-1.45338e-06
1.18484e-05
-1.50807e-06
1.1974e-05
-1.56415e-06
1.21309e-05
-1.61892e-06
1.23137e-05
-1.6673e-06
1.25109e-05
-1.70381e-06
1.27106e-05
-1.73218e-06
1.29448e-05
-1.75714e-06
1.33309e-05
-1.70796e-06
1.38321e-05
-1.3935e-06
1.36216e-05
-7.44743e-07
1.11882e-05
-1.79443e-07
6.06666e-06
-4.12379e-07
2.13556e-06
-5.33672e-07
2.00708e-07
-6.25233e-07
-3.68333e-07
-6.7988e-07
-4.81628e-07
-6.9163e-07
-5.1719e-07
-6.71924e-07
-5.78709e-07
-6.38715e-07
-6.3989e-07
-6.01802e-07
-6.85114e-07
-5.69863e-07
-5.89356e-07
-5.36825e-07
-5.86125e-07
-5.03459e-07
-5.71345e-07
-4.73025e-07
-5.31732e-07
-4.50284e-07
-4.60239e-07
-4.40926e-07
-3.62167e-07
-4.50461e-07
-2.52173e-07
-4.82822e-07
-1.35612e-07
-5.38263e-07
1.04758e-08
-6.01816e-07
2.15558e-07
-6.35789e-07
5.37243e-07
-5.3372e-07
9.78626e-07
-2.44745e-07
2.2006e-06
9.38451e-08
3.36013e-06
4.02856e-07
4.2693e-06
6.29291e-07
4.80144e-06
7.63918e-07
4.96781e-06
8.26743e-07
4.87373e-06
8.4677e-07
4.64112e-06
8.47289e-07
4.36157e-06
8.4151e-07
4.08518e-06
8.34718e-07
3.8307e-06
8.28025e-07
3.60038e-06
8.21092e-07
3.39068e-06
8.13453e-07
3.19752e-06
8.04891e-07
3.01792e-06
7.95411e-07
2.85002e-06
7.8506e-07
2.69279e-06
7.73654e-07
2.54618e-06
2.41206e-06
-1.4116e-06
1.18939e-05
-1.45867e-06
1.20211e-05
-1.50535e-06
1.21776e-05
-1.54821e-06
1.23566e-05
-1.58154e-06
1.25442e-05
-1.60045e-06
1.27295e-05
-1.60862e-06
1.2953e-05
-1.60345e-06
1.33258e-05
-1.50433e-06
1.37329e-05
-1.14187e-06
1.32592e-05
-4.59739e-07
1.05061e-05
-5.47612e-08
5.66168e-06
-2.86674e-07
2.36748e-06
-4.96423e-07
4.10456e-07
-6.30471e-07
-2.34286e-07
-6.86198e-07
-4.259e-07
-6.91043e-07
-5.12345e-07
-6.70087e-07
-5.99665e-07
-6.41148e-07
-6.68829e-07
-6.11421e-07
-7.14841e-07
-5.86702e-07
-6.14075e-07
-5.61137e-07
-6.1169e-07
-5.35253e-07
-5.97229e-07
-5.12188e-07
-5.54797e-07
-4.9506e-07
-4.77367e-07
-4.87369e-07
-3.69857e-07
-4.96354e-07
-2.43188e-07
-5.31778e-07
-1.00189e-07
-5.97402e-07
7.60998e-08
-6.78373e-07
2.96529e-07
-7.04345e-07
5.63216e-07
-6.55722e-07
9.30002e-07
-4.42227e-07
1.9871e-06
-1.57949e-07
3.07585e-06
1.1738e-07
3.99397e-06
3.33755e-07
4.58507e-06
4.74767e-07
4.8268e-06
5.50949e-07
4.79755e-06
5.84174e-07
4.60789e-06
5.94771e-07
4.35097e-06
5.95965e-07
4.08398e-06
5.9416e-07
3.8325e-06
5.91491e-07
3.60305e-06
5.88205e-07
3.39397e-06
5.84055e-07
3.20167e-06
5.7887e-07
3.0231e-06
5.72646e-07
2.85625e-06
5.65416e-07
2.70002e-06
5.57041e-07
2.55456e-06
2.42184e-06
-1.36977e-06
1.19337e-05
-1.40976e-06
1.20611e-05
-1.44791e-06
1.22157e-05
-1.48047e-06
1.23891e-05
-1.50177e-06
1.25655e-05
-1.50808e-06
1.27358e-05
-1.50319e-06
1.29481e-05
-1.47912e-06
1.33017e-05
-1.35492e-06
1.36087e-05
-9.87293e-07
1.28915e-05
-4.06784e-07
9.92557e-06
-7.19505e-08
5.32685e-06
-1.40952e-07
2.43648e-06
-4.58856e-07
7.28361e-07
-6.17509e-07
-7.56334e-08
-6.65931e-07
-3.77479e-07
-6.64174e-07
-5.14101e-07
-6.48059e-07
-6.1578e-07
-6.2994e-07
-6.86948e-07
-6.12691e-07
-7.3209e-07
-5.99419e-07
-6.27347e-07
-5.85509e-07
-6.256e-07
-5.71309e-07
-6.1143e-07
-5.62541e-07
-5.63565e-07
-5.64309e-07
-4.75598e-07
-5.75771e-07
-3.58396e-07
-5.96516e-07
-2.22443e-07
-6.29249e-07
-6.74564e-08
-6.82511e-07
1.29361e-07
-7.31714e-07
3.45732e-07
-6.67975e-07
4.99476e-07
-6.60644e-07
9.22671e-07
-5.2685e-07
1.85331e-06
-3.13879e-07
2.86288e-06
-9.19559e-08
3.77204e-06
9.46649e-08
4.39845e-06
2.25782e-07
4.69568e-06
3.04036e-07
4.7193e-06
3.43766e-07
4.56816e-06
3.60838e-07
4.3339e-06
3.66964e-07
4.07786e-06
3.6868e-07
3.83079e-06
3.68726e-07
3.60301e-06
3.67841e-07
3.39485e-06
3.66033e-07
3.20347e-06
3.63203e-07
3.02593e-06
3.59329e-07
2.86012e-06
3.544e-07
2.70495e-06
3.48296e-07
2.56066e-06
2.42918e-06
-1.32821e-06
1.1968e-05
-1.36183e-06
1.20947e-05
-1.39262e-06
1.22465e-05
-1.41675e-06
1.24132e-05
-1.42899e-06
1.25778e-05
-1.4272e-06
1.2734e-05
-1.41581e-06
1.29367e-05
-1.38292e-06
1.32688e-05
-1.2514e-06
1.34772e-05
-9.03994e-07
1.25441e-05
-3.85338e-07
9.40691e-06
-2.94106e-08
4.97092e-06
1.29073e-07
2.27799e-06
-3.60169e-07
1.2176e-06
-5.3751e-07
1.01707e-07
-5.83032e-07
-3.31957e-07
-5.91201e-07
-5.05931e-07
-5.95877e-07
-6.11105e-07
-5.98708e-07
-6.84117e-07
-5.99848e-07
-7.30949e-07
-6.02473e-07
-6.24723e-07
-6.04352e-07
-6.23721e-07
-6.03746e-07
-6.12036e-07
-6.10469e-07
-5.56842e-07
-6.39194e-07
-4.46873e-07
-6.8785e-07
-3.0974e-07
-7.3494e-07
-1.75353e-07
-7.62645e-07
-3.97513e-08
-7.32718e-07
9.94345e-08
-7.73135e-07
3.8615e-07
-6.57963e-07
3.84304e-07
-6.16964e-07
8.81673e-07
-5.30111e-07
1.76646e-06
-4.00454e-07
2.73322e-06
-2.43552e-07
3.61514e-06
-9.85432e-08
4.25344e-06
1.18447e-08
4.58529e-06
8.3559e-08
4.64758e-06
1.24002e-07
4.52772e-06
1.4412e-07
4.31378e-06
1.53237e-07
4.06874e-06
1.57249e-07
3.82678e-06
1.59039e-07
3.60122e-06
1.59639e-07
3.39425e-06
1.59244e-07
3.20387e-06
1.57793e-07
3.02738e-06
1.55184e-07
2.86273e-06
1.51285e-07
2.70885e-06
1.46048e-07
2.5659e-06
2.43473e-06
-1.28731e-06
1.19972e-05
-1.31533e-06
1.21227e-05
-1.33989e-06
1.22711e-05
-1.35734e-06
1.24307e-05
-1.36324e-06
1.25836e-05
-1.35717e-06
1.2728e-05
-1.34438e-06
1.29239e-05
-1.31044e-06
1.32349e-05
-1.18287e-06
1.33496e-05
-8.70481e-07
1.22318e-05
-4.06349e-07
8.94278e-06
-1.07915e-08
4.57537e-06
3.30382e-07
1.93683e-06
-1.55214e-07
1.7032e-06
-3.24407e-07
2.709e-07
-4.0963e-07
-2.46734e-07
-4.66039e-07
-4.49523e-07
-5.13808e-07
-5.63335e-07
-5.46081e-07
-6.51845e-07
-5.68542e-07
-7.08487e-07
-5.89485e-07
-6.0378e-07
-6.10204e-07
-6.03003e-07
-6.22228e-07
-6.00013e-07
-6.33761e-07
-5.45308e-07
-6.72079e-07
-4.08555e-07
-7.39451e-07
-2.42368e-07
-7.96075e-07
-1.18729e-07
-7.67628e-07
-6.8198e-08
-6.37183e-07
-3.10108e-08
-5.74125e-07
3.23092e-07
-5.98122e-07
4.08301e-07
-5.92339e-07
8.75891e-07
-5.47556e-07
1.72168e-06
-4.73034e-07
2.6587e-06
-3.71277e-07
3.51338e-06
-2.66083e-07
4.14825e-06
-1.78511e-07
4.49772e-06
-1.16821e-07
4.58589e-06
-7.88542e-08
4.48975e-06
-5.79164e-08
4.29284e-06
-4.71581e-08
4.05798e-06
-4.16587e-08
3.82128e-06
-3.86683e-08
3.59822e-06
-3.69822e-08
3.39256e-06
-3.6208e-08
3.20309e-06
-3.62649e-08
3.02744e-06
-3.71531e-08
2.86362e-06
-3.88504e-08
2.71055e-06
-4.0964e-08
2.56801e-06
2.43517e-06
-1.24735e-06
1.2022e-05
-1.27046e-06
1.21458e-05
-1.28982e-06
1.22904e-05
-1.30214e-06
1.2443e-05
-1.30396e-06
1.25855e-05
-1.29656e-06
1.27206e-05
-1.28589e-06
1.29132e-05
-1.25667e-06
1.32056e-05
-1.14245e-06
1.32354e-05
-8.75212e-07
1.19645e-05
-4.93027e-07
8.56059e-06
-1.60725e-07
4.24306e-06
-6.63819e-08
1.84248e-06
-1.26835e-07
1.76365e-06
-1.06081e-07
2.50147e-07
-2.18454e-07
-1.3436e-07
-3.31747e-07
-3.3623e-07
-4.2218e-07
-4.72902e-07
-4.79113e-07
-5.94912e-07
-5.18829e-07
-6.68771e-07
-5.57066e-07
-5.65543e-07
-5.985e-07
-5.61568e-07
-6.25389e-07
-5.73124e-07
-6.31765e-07
-5.38932e-07
-6.47394e-07
-3.92926e-07
-6.87992e-07
-2.0177e-07
-7.06263e-07
-1.00458e-07
-6.43593e-07
-1.30868e-07
3.68198e-08
-7.11423e-07
-1.80752e-07
5.40664e-07
-4.324e-07
6.59948e-07
-5.94266e-07
1.03776e-06
-6.02661e-07
1.73007e-06
-5.60127e-07
2.61616e-06
-4.95357e-07
3.44861e-06
-4.21673e-07
4.07456e-06
-3.54535e-07
4.43058e-06
-3.03165e-07
4.53452e-06
-2.68899e-07
4.45549e-06
-2.48312e-07
4.27226e-06
-2.36729e-07
4.0464e-06
-2.30275e-07
3.81482e-06
-2.26502e-07
3.59445e-06
-2.24171e-07
3.39024e-06
-2.22784e-07
3.20171e-06
-2.22202e-07
3.02686e-06
-2.2244e-07
2.86386e-06
-2.23505e-07
2.71161e-06
-2.25072e-07
2.56958e-06
2.43599e-06
-1.20844e-06
1.20428e-05
-1.22728e-06
1.21647e-05
-1.24232e-06
1.23055e-05
-1.25074e-06
1.24514e-05
-1.25021e-06
1.25849e-05
-1.24349e-06
1.27138e-05
-1.23708e-06
1.29068e-05
-1.21613e-06
1.31847e-05
-1.12147e-06
1.31408e-05
-9.052e-07
1.17482e-05
-6.071e-07
8.26249e-06
-4.15398e-07
4.05136e-06
-4.42781e-07
1.86986e-06
-4.0627e-07
1.72715e-06
-1.18958e-07
-3.71659e-08
-1.65906e-07
-8.74124e-08
-2.65244e-07
-2.36892e-07
-3.51288e-07
-3.86858e-07
-4.07951e-07
-5.38249e-07
-4.55748e-07
-6.20974e-07
-5.06113e-07
-5.15178e-07
-5.65476e-07
-5.02205e-07
-6.16283e-07
-5.22317e-07
-6.38273e-07
-5.16942e-07
-6.40504e-07
-3.90696e-07
-6.73139e-07
-1.69135e-07
-6.72321e-07
-1.01276e-07
-5.69144e-07
-2.34044e-07
-8.63519e-07
-4.17048e-07
-6.07832e-07
2.84978e-07
-5.63936e-07
6.16052e-07
-6.03834e-07
1.07766e-06
-6.57109e-07
1.78335e-06
-6.46515e-07
2.60557e-06
-6.12017e-07
3.41412e-06
-5.65437e-07
4.02798e-06
-5.17592e-07
4.38274e-06
-4.77278e-07
4.49421e-06
-4.47962e-07
4.42617e-06
-4.28851e-07
4.25315e-06
-4.17245e-07
4.03479e-06
-4.1038e-07
3.80796e-06
-4.06254e-07
3.59033e-06
-4.03717e-07
3.3877e-06
-4.02234e-07
3.20022e-06
-4.01623e-07
3.02625e-06
-4.01859e-07
2.86409e-06
-4.02844e-07
2.7126e-06
-4.04129e-07
2.57086e-06
2.43655e-06
-1.17064e-06
1.20598e-05
-1.18572e-06
1.21797e-05
-1.19713e-06
1.23169e-05
-1.20256e-06
1.24569e-05
-1.20078e-06
1.25831e-05
-1.19584e-06
1.27089e-05
-1.19443e-06
1.29054e-05
-1.18225e-06
1.31725e-05
-1.10611e-06
1.30646e-05
-9.2577e-07
1.15679e-05
-7.10461e-07
8.04718e-06
-6.90191e-07
4.03109e-06
-7.76966e-07
1.95664e-06
-2.9823e-07
1.24841e-06
-3.38311e-07
2.9137e-09
-2.19917e-07
-2.05806e-07
-2.6124e-07
-1.95569e-07
-3.00276e-07
-3.47822e-07
-3.38438e-07
-5.00087e-07
-3.89154e-07
-5.70258e-07
-4.4091e-07
-4.63422e-07
-4.96945e-07
-4.46169e-07
-5.64122e-07
-4.5514e-07
-6.30537e-07
-4.50526e-07
-7.07743e-07
-3.13491e-07
-7.12613e-07
-1.64264e-07
-8.27128e-07
1.32392e-08
-7.3055e-07
-3.30623e-07
-8.35472e-07
-3.12126e-07
-6.8379e-07
1.33295e-07
-6.39436e-07
5.71698e-07
-6.55377e-07
1.0936e-06
-6.9257e-07
1.82054e-06
-7.18643e-07
2.63164e-06
-7.1584e-07
3.41131e-06
-6.95822e-07
4.00796e-06
-6.67652e-07
4.35457e-06
-6.39573e-07
4.46613e-06
-6.16646e-07
4.40324e-06
-6.00254e-07
4.23675e-06
-5.89517e-07
4.02405e-06
-5.82815e-07
3.80125e-06
-5.787e-07
3.58621e-06
-5.76204e-07
3.3852e-06
-5.74809e-07
3.19883e-06
-5.74295e-07
3.02573e-06
-5.74563e-07
2.86436e-06
-5.75395e-07
2.71343e-06
-5.76317e-07
2.57179e-06
2.43687e-06
-1.13394e-06
1.20735e-05
-1.14564e-06
1.21914e-05
-1.15393e-06
1.23252e-05
-1.15693e-06
1.24599e-05
-1.15443e-06
1.25807e-05
-1.15147e-06
1.27059e-05
-1.15444e-06
1.29084e-05
-1.1486e-06
1.31667e-05
-1.08414e-06
1.30002e-05
-9.24481e-07
1.14083e-05
-7.68476e-07
7.89118e-06
-7.77064e-07
4.03968e-06
-6.02249e-07
1.78182e-06
-3.42417e-07
9.88573e-07
-2.92627e-07
-4.6876e-08
-4.46512e-07
-5.19201e-08
-2.37089e-07
-4.04991e-07
-2.47756e-07
-3.37155e-07
-2.7765e-07
-4.70193e-07
-3.34526e-07
-5.13383e-07
-3.75194e-07
-4.22754e-07
-3.93547e-07
-4.27817e-07
-4.08509e-07
-4.40178e-07
-4.88716e-07
-3.7032e-07
-5.87962e-07
-2.14244e-07
-7.16293e-07
-3.59335e-08
-5.66575e-07
-1.36478e-07
-5.94513e-07
-3.02685e-07
-6.75307e-07
-2.31332e-07
-6.39267e-07
9.72543e-08
-5.99614e-07
5.32045e-07
-6.81397e-07
1.17538e-06
-7.30413e-07
1.86956e-06
-7.8419e-07
2.68542e-06
-8.11995e-07
3.43912e-06
-8.17221e-07
4.01319e-06
-8.08136e-07
4.34548e-06
-7.92647e-07
4.45064e-06
-7.76861e-07
4.38746e-06
-7.6395e-07
4.22384e-06
-7.54669e-07
4.01477e-06
-7.48504e-07
3.79509e-06
-7.44591e-07
3.5823e-06
-7.42201e-07
3.38281e-06
-7.40874e-07
3.1975e-06
-7.40367e-07
3.02523e-06
-7.40509e-07
2.8645e-06
-7.41013e-07
2.71393e-06
-7.41517e-07
2.57229e-06
2.43701e-06
-1.09828e-06
1.20841e-05
-1.1069e-06
1.22001e-05
-1.11235e-06
1.23306e-05
-1.11322e-06
1.24607e-05
-1.11011e-06
1.25775e-05
-1.10869e-06
1.27045e-05
-1.11462e-06
1.29143e-05
-1.11199e-06
1.3164e-05
-1.05309e-06
1.29412e-05
-9.11096e-07
1.12663e-05
-8.02632e-07
7.78272e-06
-8.23331e-07
4.06038e-06
-6.6663e-07
1.62512e-06
-3.59598e-07
6.81541e-07
-3.92495e-07
-1.39788e-08
-2.03623e-07
-2.40792e-07
-1.3334e-09
-6.07281e-07
-1.83448e-07
-1.55041e-07
-2.63827e-07
-3.89813e-07
-3.16411e-07
-4.60799e-07
-3.1445e-07
-4.24715e-07
-2.6281e-07
-4.79457e-07
-2.74549e-07
-4.28439e-07
-4.55629e-07
-1.89239e-07
-4.6928e-07
-2.00594e-07
-3.82747e-07
-1.22466e-07
-3.43809e-07
-1.75416e-07
-4.15245e-07
-2.31249e-07
-5.02762e-07
-1.43815e-07
-5.2461e-07
1.19103e-07
-5.68971e-07
5.76407e-07
-6.68748e-07
1.27516e-06
-7.53034e-07
1.95384e-06
-8.41476e-07
2.77386e-06
-9.02578e-07
3.50022e-06
-9.33998e-07
4.04461e-06
-9.43584e-07
4.35507e-06
-9.40236e-07
4.44729e-06
-9.3148e-07
4.3787e-06
-9.22155e-07
4.21452e-06
-9.14482e-07
4.0071e-06
-9.08962e-07
3.78957e-06
-9.0531e-07
3.57865e-06
-9.03071e-07
3.38057e-06
-9.01891e-07
3.19632e-06
-9.01556e-07
3.02489e-06
-9.01881e-07
2.86483e-06
-9.02574e-07
2.71463e-06
-9.03055e-07
2.57277e-06
2.43657e-06
-1.0636e-06
1.20917e-05
-1.06931e-06
1.22058e-05
-1.07209e-06
1.23334e-05
-1.0709e-06
1.24596e-05
-1.067e-06
1.25736e-05
-1.06633e-06
1.27038e-05
-1.07351e-06
1.29215e-05
-1.07159e-06
1.31621e-05
-1.01622e-06
1.28859e-05
-8.97839e-07
1.11479e-05
-8.31612e-07
7.71649e-06
-8.59426e-07
4.08819e-06
-7.38094e-07
1.50379e-06
-5.94428e-07
5.37876e-07
-5.31843e-07
-7.65623e-08
-4.09046e-07
-3.6359e-07
-4.15422e-07
-6.00906e-07
-2.66339e-07
-3.04123e-07
-2.85622e-07
-3.70529e-07
-3.01998e-07
-4.44424e-07
-2.98624e-07
-4.28089e-07
-3.10439e-07
-4.67642e-07
-3.32475e-07
-4.06403e-07
-2.86145e-07
-2.3557e-07
-3.09917e-07
-1.76823e-07
-2.61827e-07
-1.70555e-07
-2.48748e-07
-1.88495e-07
-2.96086e-07
-1.83911e-07
-3.77182e-07
-6.2719e-08
-4.66952e-07
2.08873e-07
-5.65217e-07
6.74672e-07
-6.54259e-07
1.3642e-06
-7.88779e-07
2.08836e-06
-9.06959e-07
2.89204e-06
-9.97133e-07
3.59039e-06
-1.05219e-06
4.09967e-06
-1.07852e-06
4.38139e-06
-1.08587e-06
4.45465e-06
-1.08324e-06
4.37607e-06
-1.077e-06
4.20828e-06
-1.07065e-06
4.00074e-06
-1.06555e-06
3.78448e-06
-1.06195e-06
3.57505e-06
-1.05963e-06
3.37825e-06
-1.05832e-06
3.19501e-06
-1.05777e-06
3.02435e-06
-1.05771e-06
2.86477e-06
-1.05765e-06
2.71456e-06
-1.05671e-06
2.57183e-06
2.43446e-06
-1.02985e-06
1.20965e-05
-1.03276e-06
1.22087e-05
-1.03289e-06
1.23335e-05
-1.02956e-06
1.24562e-05
-1.02449e-06
1.25686e-05
-1.02366e-06
1.2703e-05
-1.03031e-06
1.29282e-05
-1.02673e-06
1.31585e-05
-9.73349e-07
1.28325e-05
-8.75552e-07
1.10501e-05
-8.24097e-07
7.66503e-06
-7.80892e-07
4.04499e-06
-7.7412e-07
1.49702e-06
-6.52013e-07
4.15769e-07
-6.11078e-07
-1.17496e-07
-5.41961e-07
-4.32708e-07
-5.24897e-07
-6.1797e-07
-4.0684e-07
-4.2218e-07
-3.58323e-07
-4.19046e-07
-3.3617e-07
-4.66577e-07
-3.21479e-07
-4.42779e-07
-3.22861e-07
-4.6626e-07
-3.22187e-07
-4.07076e-07
-2.83768e-07
-2.7399e-07
-2.5498e-07
-2.05611e-07
-2.31381e-07
-1.94153e-07
-2.25351e-07
-1.94525e-07
-2.5375e-07
-1.55513e-07
-3.12476e-07
-3.99379e-09
-4.1571e-07
3.12107e-07
-5.52803e-07
8.11765e-07
-7.02109e-07
1.51351e-06
-8.61156e-07
2.24741e-06
-9.99478e-07
3.03036e-06
-1.10869e-06
3.69961e-06
-1.18033e-06
4.17131e-06
-1.21855e-06
4.41961e-06
-1.23336e-06
4.46946e-06
-1.2348e-06
4.37751e-06
-1.23037e-06
4.20385e-06
-1.22454e-06
3.99491e-06
-1.21934e-06
3.77927e-06
-1.21537e-06
3.57107e-06
-1.21259e-06
3.37547e-06
-1.21078e-06
3.1932e-06
-1.20966e-06
3.02323e-06
-1.20884e-06
2.86395e-06
-1.20782e-06
2.71354e-06
-1.20618e-06
2.57019e-06
2.43298e-06
-9.9699e-07
1.20986e-05
-9.97118e-07
1.22088e-05
-9.94555e-07
1.2331e-05
-9.88915e-07
1.24506e-05
-9.82222e-07
1.25619e-05
-9.80239e-07
1.2701e-05
-9.8479e-07
1.29327e-05
-9.77659e-07
1.31514e-05
-9.25443e-07
1.27803e-05
-8.35463e-07
1.09601e-05
-7.80087e-07
7.60966e-06
-7.63697e-07
4.0286e-06
-7.73391e-07
1.50671e-06
-7.29249e-07
3.71627e-07
-6.56666e-07
-1.90078e-07
-5.84136e-07
-5.05237e-07
-5.55061e-07
-6.47045e-07
-4.56935e-07
-5.20305e-07
-3.90061e-07
-4.85921e-07
-3.52059e-07
-5.04579e-07
-3.40242e-07
-4.54595e-07
-3.46416e-07
-4.60086e-07
-3.45557e-07
-4.07935e-07
-3.07636e-07
-3.11911e-07
-2.69226e-07
-2.4402e-07
-2.49979e-07
-2.13401e-07
-2.53976e-07
-1.90528e-07
-2.85546e-07
-1.23943e-07
-3.46102e-07
5.65627e-08
-4.51533e-07
4.17538e-07
-5.7861e-07
9.38842e-07
-7.5621e-07
1.69111e-06
-9.5002e-07
2.44122e-06
-1.11159e-06
3.19194e-06
-1.23657e-06
3.82458e-06
-1.31982e-06
4.25455e-06
-1.36551e-06
4.46531e-06
-1.38435e-06
4.4883e-06
-1.38744e-06
4.3806e-06
-1.38326e-06
4.19967e-06
-1.37697e-06
3.98862e-06
-1.37105e-06
3.77335e-06
-1.36632e-06
3.56635e-06
-1.36284e-06
3.372e-06
-1.36038e-06
3.19074e-06
-1.35856e-06
3.02141e-06
-1.35697e-06
2.86236e-06
-1.35527e-06
2.71184e-06
-1.35356e-06
2.56847e-06
2.43214e-06
-9.64997e-07
1.2098e-05
-9.62333e-07
1.22061e-05
-9.56977e-07
1.23256e-05
-9.48798e-07
1.24424e-05
-9.39979e-07
1.25531e-05
-9.35915e-07
1.26969e-05
-9.37111e-07
1.29339e-05
-9.25351e-07
1.31397e-05
-8.72139e-07
1.27271e-05
-7.8344e-07
1.08714e-05
-7.21156e-07
7.54737e-06
-7.07979e-07
4.01542e-06
-8.28838e-07
1.62757e-06
-7.62989e-07
3.05777e-07
-6.72185e-07
-2.80882e-07
-5.99013e-07
-5.78409e-07
-5.62995e-07
-6.83063e-07
-4.81961e-07
-6.01338e-07
-4.13401e-07
-5.54481e-07
-3.69818e-07
-5.48162e-07
-3.56727e-07
-4.67687e-07
-3.60067e-07
-4.56746e-07
-3.57985e-07
-4.10018e-07
-3.33548e-07
-3.36348e-07
-3.05873e-07
-2.71695e-07
-2.95861e-07
-2.23412e-07
-3.10788e-07
-1.75602e-07
-3.57535e-07
-7.71959e-08
-4.40898e-07
1.39925e-07
-5.5014e-07
5.26781e-07
-6.83263e-07
1.07197e-06
-8.54273e-07
1.86212e-06
-1.05923e-06
2.64617e-06
-1.23992e-06
3.37263e-06
-1.37764e-06
3.96229e-06
-1.46836e-06
4.34528e-06
-1.51776e-06
4.5147e-06
-1.53769e-06
4.50823e-06
-1.54038e-06
4.38329e-06
-1.53514e-06
4.19443e-06
-1.5276e-06
3.98108e-06
-1.5205e-06
3.76624e-06
-1.51477e-06
3.56062e-06
-1.51046e-06
3.36769e-06
-1.50726e-06
3.18753e-06
-1.50468e-06
3.01883e-06
-1.50233e-06
2.86001e-06
-1.50012e-06
2.70963e-06
-1.49843e-06
2.56678e-06
2.43156e-06
-9.33891e-07
1.20946e-05
-9.28382e-07
1.22006e-05
-9.20112e-07
1.23174e-05
-9.0913e-07
1.24314e-05
-8.97719e-07
1.25417e-05
-8.90789e-07
1.269e-05
-8.87803e-07
1.29309e-05
-8.71266e-07
1.31231e-05
-8.1592e-07
1.26717e-05
-7.28997e-07
1.07845e-05
-6.66762e-07
7.48514e-06
-6.91542e-07
4.0402e-06
-7.59701e-07
1.69573e-06
-7.36944e-07
2.83021e-07
-6.57086e-07
-3.6074e-07
-5.90923e-07
-6.44572e-07
-5.5038e-07
-7.23605e-07
-4.85711e-07
-6.66007e-07
-4.27301e-07
-6.1289e-07
-3.87184e-07
-5.88278e-07
-3.73606e-07
-4.81265e-07
-3.72792e-07
-4.57561e-07
-3.70223e-07
-4.12587e-07
-3.57781e-07
-3.4879e-07
-3.46188e-07
-2.83287e-07
-3.46011e-07
-2.23589e-07
-3.68979e-07
-1.52634e-07
-4.23604e-07
-2.25709e-08
-5.15904e-07
2.32225e-07
-6.41752e-07
6.52629e-07
-8.13653e-07
1.24387e-06
-9.90675e-07
2.03914e-06
-1.20146e-06
2.85696e-06
-1.39041e-06
3.56158e-06
-1.53296e-06
4.10485e-06
-1.62501e-06
4.43732e-06
-1.67351e-06
4.56321e-06
-1.69142e-06
4.52614e-06
-1.69181e-06
4.38368e-06
-1.68442e-06
4.18704e-06
-1.67507e-06
3.97173e-06
-1.66652e-06
3.75769e-06
-1.65965e-06
3.55375e-06
-1.65442e-06
3.36246e-06
-1.65038e-06
3.18348e-06
-1.647e-06
3.01545e-06
-1.64399e-06
2.857e-06
-1.64146e-06
2.7071e-06
-1.63983e-06
2.56515e-06
2.4311e-06
-9.03712e-07
1.20886e-05
-8.95287e-07
1.21922e-05
-8.83968e-07
1.2306e-05
-8.69914e-07
1.24174e-05
-8.55495e-07
1.25272e-05
-8.45088e-07
1.26796e-05
-8.37388e-07
1.29232e-05
-8.15866e-07
1.31016e-05
-7.59463e-07
1.26153e-05
-6.8094e-07
1.0706e-05
-6.42905e-07
7.4471e-06
-6.68931e-07
4.06623e-06
-7.00275e-07
1.72707e-06
-6.80984e-07
2.63731e-07
-6.17826e-07
-4.23898e-07
-5.6173e-07
-7.00667e-07
-5.19291e-07
-7.66044e-07
-4.66832e-07
-7.18467e-07
-4.21148e-07
-6.58574e-07
-3.92123e-07
-6.17303e-07
-3.83204e-07
-4.90184e-07
-3.83039e-07
-4.57726e-07
-3.8315e-07
-4.12476e-07
-3.81252e-07
-3.50687e-07
-3.81888e-07
-2.82652e-07
-3.93602e-07
-2.11876e-07
-4.2602e-07
-1.20216e-07
-4.86718e-07
3.81265e-08
-5.81907e-07
3.27415e-07
-7.17834e-07
7.88556e-07
-9.0694e-07
1.43297e-06
-1.13698e-06
2.26917e-06
-1.36149e-06
3.08148e-06
-1.55592e-06
3.75601e-06
-1.69802e-06
4.24694e-06
-1.78617e-06
4.52548e-06
-1.82967e-06
4.6067e-06
-1.84286e-06
4.53934e-06
-1.83939e-06
4.38021e-06
-1.82908e-06
4.17673e-06
-1.81761e-06
3.96026e-06
-1.80754e-06
3.74762e-06
-1.79959e-06
3.54579e-06
-1.79352e-06
3.3564e-06
-1.78881e-06
3.17877e-06
-1.78496e-06
3.0116e-06
-1.78183e-06
2.85387e-06
-1.77959e-06
2.70486e-06
-1.77838e-06
2.56394e-06
2.43076e-06
-8.74527e-07
1.20798e-05
-8.6311e-07
1.21808e-05
-8.48602e-07
1.22915e-05
-8.31216e-07
1.24e-05
-8.13401e-07
1.25094e-05
-7.99002e-07
1.26652e-05
-7.86111e-07
1.29103e-05
-7.59314e-07
1.30748e-05
-7.02828e-07
1.25588e-05
-6.41206e-07
1.06443e-05
-6.255e-07
7.4314e-06
-6.2172e-07
4.06245e-06
-6.088e-07
1.71415e-06
-6.05232e-07
2.60163e-07
-5.65401e-07
-4.63729e-07
-5.14665e-07
-7.51403e-07
-4.69051e-07
-8.11658e-07
-4.24599e-07
-7.62918e-07
-3.92229e-07
-6.90943e-07
-3.78795e-07
-6.30736e-07
-3.80201e-07
-4.88778e-07
-3.87996e-07
-4.49931e-07
-3.96274e-07
-4.04197e-07
-4.03601e-07
-3.43361e-07
-4.17547e-07
-2.68706e-07
-4.43915e-07
-1.85508e-07
-4.90269e-07
-7.38624e-08
-5.65264e-07
1.13122e-07
-6.75271e-07
4.37422e-07
-8.26806e-07
9.4009e-07
-1.04027e-06
1.64644e-06
-1.30392e-06
2.53283e-06
-1.53878e-06
3.31634e-06
-1.73128e-06
3.94851e-06
-1.86676e-06
4.38242e-06
-1.94633e-06
4.60505e-06
-1.98166e-06
4.64203e-06
-1.98832e-06
4.546e-06
-1.98014e-06
4.37203e-06
-1.96662e-06
4.16322e-06
-1.95302e-06
3.94666e-06
-1.94149e-06
3.7361e-06
-1.93246e-06
3.53676e-06
-1.92551e-06
3.34945e-06
-1.92005e-06
3.17331e-06
-1.9157e-06
3.00725e-06
-1.91239e-06
2.85056e-06
-1.91015e-06
2.70262e-06
-1.90888e-06
2.56267e-06
2.43034e-06
-8.46432e-07
1.20683e-05
-8.31955e-07
1.21663e-05
-8.14109e-07
1.22737e-05
-7.93143e-07
1.2379e-05
-7.71541e-07
1.24878e-05
-7.52676e-07
1.26463e-05
-7.34132e-07
1.28918e-05
-7.01755e-07
1.30424e-05
-6.45289e-07
1.25024e-05
-5.92265e-07
1.05913e-05
-5.68443e-07
7.40758e-06
-5.73619e-07
4.06762e-06
-5.636e-07
1.70413e-06
-5.52965e-07
2.49528e-07
-5.14631e-07
-5.02063e-07
-4.57868e-07
-8.08165e-07
-4.04876e-07
-8.6465e-07
-3.63797e-07
-8.03996e-07
-3.43772e-07
-7.10968e-07
-3.49066e-07
-6.25442e-07
-3.66687e-07
-4.71156e-07
-3.86925e-07
-4.29693e-07
-4.0742e-07
-3.83702e-07
-4.29385e-07
-3.21395e-07
-4.57789e-07
-2.40303e-07
-5.01738e-07
-1.41559e-07
-5.68083e-07
-7.51822e-09
-6.6938e-07
2.14419e-07
-8.16955e-07
5.84997e-07
-1.00161e-06
1.12475e-06
-1.24825e-06
1.89307e-06
-1.50162e-06
2.7862e-06
-1.73042e-06
3.54513e-06
-1.91117e-06
4.12927e-06
-2.03316e-06
4.50441e-06
-2.09984e-06
4.67173e-06
-2.12474e-06
4.66694e-06
-2.12396e-06
4.54522e-06
-2.11093e-06
4.35899e-06
-2.09439e-06
4.14668e-06
-2.07886e-06
3.93113e-06
-2.06595e-06
3.72319e-06
-2.05571e-06
3.52652e-06
-2.04758e-06
3.34132e-06
-2.04099e-06
3.16672e-06
-2.03568e-06
3.00195e-06
-2.03163e-06
2.84651e-06
-2.02879e-06
2.69978e-06
-2.02708e-06
2.56095e-06
2.42977e-06
-8.19551e-07
1.2054e-05
-8.01965e-07
1.21487e-05
-7.80626e-07
1.22523e-05
-7.55845e-07
1.23542e-05
-7.3006e-07
1.2462e-05
-7.06268e-07
1.26225e-05
-6.81622e-07
1.28671e-05
-6.43408e-07
1.30042e-05
-5.85394e-07
1.24444e-05
-5.31733e-07
1.05376e-05
-5.06164e-07
7.38201e-06
-5.37272e-07
4.09873e-06
-5.47687e-07
1.71455e-06
-5.26165e-07
2.28006e-07
-4.65131e-07
-5.63097e-07
-3.95311e-07
-8.77985e-07
-3.3372e-07
-9.2624e-07
-2.92732e-07
-8.44984e-07
-2.84623e-07
-7.19076e-07
-3.10035e-07
-6.0003e-07
-3.47405e-07
-4.33786e-07
-3.85268e-07
-3.91829e-07
-4.19515e-07
-3.49455e-07
-4.55643e-07
-2.85267e-07
-5.01291e-07
-1.94655e-07
-5.64062e-07
-7.87885e-08
-6.54065e-07
8.24847e-08
-7.80939e-07
3.41293e-07
-9.56523e-07
7.60582e-07
-1.17343e-06
1.34165e-06
-1.44613e-06
2.16577e-06
-1.69807e-06
3.03814e-06
-1.91689e-06
3.76395e-06
-2.08217e-06
4.29455e-06
-2.18764e-06
4.60988e-06
-2.23987e-06
4.72395e-06
-2.25401e-06
4.68108e-06
-2.24624e-06
4.53745e-06
-2.22911e-06
4.34186e-06
-2.2103e-06
4.12787e-06
-2.19342e-06
3.91424e-06
-2.17947e-06
3.70924e-06
-2.16817e-06
3.51523e-06
-2.15893e-06
3.33207e-06
-2.15127e-06
3.15906e-06
-2.14507e-06
2.99575e-06
-2.14033e-06
2.84177e-06
-2.13701e-06
2.69646e-06
-2.1351e-06
2.55904e-06
2.42922e-06
-7.94042e-07
1.2037e-05
-7.73312e-07
1.2128e-05
-7.48348e-07
1.22274e-05
-7.19523e-07
1.23254e-05
-6.89169e-07
1.24317e-05
-6.5999e-07
1.25934e-05
-6.28837e-07
1.2836e-05
-5.84459e-07
1.29598e-05
-5.2374e-07
1.23836e-05
-4.67237e-07
1.04811e-05
-4.53033e-07
7.3678e-06
-5.01453e-07
4.14715e-06
-5.30295e-07
1.74339e-06
-4.82896e-07
1.80608e-07
-4.10831e-07
-6.3516e-07
-3.33836e-07
-9.54979e-07
-2.69422e-07
-9.90654e-07
-2.33059e-07
-8.81347e-07
-2.34342e-07
-7.17792e-07
-2.77287e-07
-5.57084e-07
-3.34133e-07
-3.7694e-07
-3.87762e-07
-3.382e-07
-4.33466e-07
-3.03751e-07
-4.80863e-07
-2.37869e-07
-5.40678e-07
-1.3484e-07
-6.22109e-07
2.64247e-09
-7.35001e-07
1.95376e-07
-8.80552e-07
4.86844e-07
-1.06033e-06
9.40355e-07
-1.31527e-06
1.59659e-06
-1.61325e-06
2.46376e-06
-1.87047e-06
3.29536e-06
-2.08082e-06
3.97429e-06
-2.23137e-06
4.4451e-06
-2.32099e-06
4.6995e-06
-2.36008e-06
4.76304e-06
-2.36528e-06
4.68627e-06
-2.35238e-06
4.52455e-06
-2.33281e-06
4.32229e-06
-2.31304e-06
4.10811e-06
-2.29578e-06
3.89698e-06
-2.2815e-06
3.69496e-06
-2.26978e-06
3.5035e-06
-2.26007e-06
3.32236e-06
-2.25207e-06
3.15107e-06
-2.24571e-06
2.98939e-06
-2.24094e-06
2.83701e-06
-2.23771e-06
2.69323e-06
-2.23595e-06
2.55728e-06
2.42874e-06
-7.70089e-07
1.20174e-05
-7.46205e-07
1.21041e-05
-7.1752e-07
1.21987e-05
-6.84438e-07
1.22923e-05
-6.49153e-07
1.23964e-05
-6.14095e-07
1.25583e-05
-5.75983e-07
1.27979e-05
-5.25223e-07
1.29091e-05
-4.60444e-07
1.23189e-05
-4.06521e-07
1.04272e-05
-4.02627e-07
7.36391e-06
-4.5615e-07
4.20068e-06
-4.66734e-07
1.75397e-06
-4.22824e-07
1.36698e-07
-3.59057e-07
-6.98926e-07
-2.85943e-07
-1.02809e-06
-2.29045e-07
-1.04755e-06
-2.06015e-07
-9.04377e-07
-2.21744e-07
-7.02062e-07
-2.76632e-07
-5.02196e-07
-3.44825e-07
-3.08746e-07
-4.03261e-07
-2.79765e-07
-4.51818e-07
-2.55194e-07
-5.05155e-07
-1.84532e-07
-5.76544e-07
-6.34507e-08
-6.75712e-07
1.01811e-07
-8.10598e-07
3.30262e-07
-9.95786e-07
6.72032e-07
-1.21774e-06
1.16231e-06
-1.51875e-06
1.8976e-06
-1.78159e-06
2.7266e-06
-2.02356e-06
3.53733e-06
-2.21897e-06
4.1697e-06
-2.35373e-06
4.57986e-06
-2.42899e-06
4.77477e-06
-2.45759e-06
4.79164e-06
-2.45668e-06
4.68536e-06
-2.44121e-06
4.50908e-06
-2.42124e-06
4.30232e-06
-2.40201e-06
4.08889e-06
-2.38546e-06
3.88042e-06
-2.37172e-06
3.68122e-06
-2.36036e-06
3.49214e-06
-2.351e-06
3.31299e-06
-2.34344e-06
3.14351e-06
-2.33758e-06
2.98353e-06
-2.33328e-06
2.83271e-06
-2.33041e-06
2.69036e-06
-2.32883e-06
2.5557e-06
2.42828e-06
-7.47904e-07
1.19952e-05
-7.20887e-07
1.20771e-05
-6.88437e-07
1.21663e-05
-6.50915e-07
1.22548e-05
-6.1035e-07
1.23558e-05
-5.68825e-07
1.25168e-05
-5.22912e-07
1.2752e-05
-4.64302e-07
1.28505e-05
-3.95741e-07
1.22503e-05
-3.45544e-07
1.0377e-05
-3.46008e-07
7.36437e-06
-3.88576e-07
4.24325e-06
-3.70771e-07
1.73617e-06
-3.65953e-07
1.31881e-07
-3.24994e-07
-7.39885e-07
-2.67413e-07
-1.08567e-06
-2.29513e-07
-1.08545e-06
-2.28464e-07
-9.05425e-07
-2.69686e-07
-6.6084e-07
-3.29213e-07
-4.42669e-07
-3.93096e-07
-2.44863e-07
-4.35125e-07
-2.37736e-07
-4.72933e-07
-2.17385e-07
-5.25853e-07
-1.31613e-07
-6.05123e-07
1.58193e-08
-7.15449e-07
2.12137e-07
-8.61222e-07
4.76035e-07
-1.05638e-06
8.67193e-07
-1.31997e-06
1.4259e-06
-1.60443e-06
2.18206e-06
-1.89657e-06
3.01874e-06
-2.14004e-06
3.7808e-06
-2.32535e-06
4.35501e-06
-2.44716e-06
4.70166e-06
-2.51125e-06
4.83886e-06
-2.53278e-06
4.81317e-06
-2.52891e-06
4.6815e-06
-2.51342e-06
4.49359e-06
-2.49491e-06
4.28381e-06
-2.47754e-06
4.07152e-06
-2.46262e-06
3.8655e-06
-2.45014e-06
3.66874e-06
-2.43977e-06
3.48177e-06
-2.43126e-06
3.30448e-06
-2.42447e-06
3.13672e-06
-2.41926e-06
2.97831e-06
-2.41543e-06
2.82888e-06
-2.41283e-06
2.68776e-06
-2.41136e-06
2.55423e-06
2.42783e-06
-7.27723e-07
1.19705e-05
-6.97645e-07
1.2047e-05
-6.61441e-07
1.213e-05
-6.19343e-07
1.22127e-05
-5.73171e-07
1.23097e-05
-5.24412e-07
1.2468e-05
-4.69666e-07
1.26972e-05
-4.01166e-07
1.2782e-05
-3.23817e-07
1.21729e-05
-2.66132e-07
1.03193e-05
-2.69064e-07
7.36731e-06
-2.88351e-07
4.26253e-06
-3.10791e-07
1.75861e-06
-3.36166e-07
1.57257e-07
-3.0966e-07
-7.66391e-07
-2.78701e-07
-1.11663e-06
-2.64925e-07
-1.09923e-06
-2.83744e-07
-8.86606e-07
-3.55604e-07
-5.88979e-07
-4.19794e-07
-3.78479e-07
-4.62026e-07
-2.02631e-07
-4.6347e-07
-2.36291e-07
-4.8363e-07
-1.97225e-07
-5.35927e-07
-7.93157e-08
-6.24822e-07
1.04715e-07
-7.48401e-07
3.35716e-07
-9.07398e-07
6.35031e-07
-1.1152e-06
1.07499e-06
-1.40146e-06
1.71216e-06
-1.69149e-06
2.47209e-06
-1.98103e-06
3.30828e-06
-2.22358e-06
4.02335e-06
-2.40163e-06
4.53306e-06
-2.51393e-06
4.81396e-06
-2.57058e-06
4.89551e-06
-2.58854e-06
4.83113e-06
-2.58461e-06
4.67756e-06
-2.57121e-06
4.48019e-06
-2.5556e-06
4.2682e-06
-2.54101e-06
4.05692e-06
-2.52834e-06
3.85283e-06
-2.51758e-06
3.65798e-06
-2.50853e-06
3.47272e-06
-2.50106e-06
3.29701e-06
-2.49506e-06
3.13072e-06
-2.4904e-06
2.97366e-06
-2.48696e-06
2.82543e-06
-2.48462e-06
2.68542e-06
-2.48331e-06
2.55292e-06
2.42743e-06
-7.09804e-07
1.19435e-05
-6.76805e-07
1.2014e-05
-6.36925e-07
1.20902e-05
-5.90203e-07
1.2166e-05
-5.3809e-07
1.22576e-05
-4.81738e-07
1.24117e-05
-4.16834e-07
1.26323e-05
-3.36106e-07
1.27012e-05
-2.45249e-07
1.20821e-05
-1.75231e-07
1.02493e-05
-1.63336e-07
7.35541e-06
-2.06535e-07
4.30573e-06
-2.5878e-07
1.81086e-06
-2.64546e-07
1.63023e-07
-2.77706e-07
-7.53231e-07
-2.52496e-07
-1.14184e-06
-2.40247e-07
-1.11148e-06
-2.98377e-07
-8.28475e-07
-4.0679e-07
-4.80566e-07
-4.95692e-07
-2.89577e-07
-4.5504e-07
-2.43283e-07
-4.3787e-07
-2.5346e-07
-4.57856e-07
-1.77239e-07
-5.23833e-07
-1.33386e-08
-6.32955e-07
2.13837e-07
-7.79915e-07
4.82675e-07
-9.62168e-07
8.17285e-07
-1.19219e-06
1.30501e-06
-1.46661e-06
1.98658e-06
-1.76387e-06
2.76935e-06
-2.05229e-06
3.5967e-06
-2.28869e-06
4.25975e-06
-2.45776e-06
4.70213e-06
-2.56157e-06
4.91777e-06
-2.61308e-06
4.94703e-06
-2.62991e-06