/*--------------------------------*- C++ -*----------------------------------*\
  =========                 |
  \\      /  F ield         | OpenFOAM: The Open Source CFD Toolbox
   \\    /   O peration     | Website:  https://openfoam.org
    \\  /    A nd           | Version:  9
     \\/     M anipulation  |
\*---------------------------------------------------------------------------*/
FoamFile
{
    format      ascii;
    class       volScalarField;
    location    "0.11";
    object      rAU;
}
// * * * * * * * * * * * * * * * * * * * * * * * * * * * * * * * * * * * * * //

dimensions      [-1 3 1 0 0 0 0];

internalField   nonuniform List<scalar> 
5000
(
2.1314e-05
2.12474e-05
2.11685e-05
2.108e-05
2.09873e-05
2.08969e-05
2.07996e-05
2.06525e-05
2.04599e-05
2.04355e-05
2.06266e-05
2.24359e-05
6.60978e-07
3.73592e-08
2.80096e-08
2.78971e-08
2.78662e-08
2.78394e-08
2.78213e-08
2.78151e-08
2.77238e-08
2.77056e-08
2.76988e-08
2.77131e-08
2.7754e-08
2.78147e-08
2.78769e-08
2.79311e-08
2.79923e-08
3.35841e-08
2.28075e-07
1.86657e-05
1.93933e-05
2.10861e-05
2.10353e-05
2.03495e-05
1.98357e-05
1.95465e-05
1.94028e-05
1.93208e-05
1.92466e-05
1.9156e-05
1.90426e-05
1.8908e-05
1.87548e-05
1.8585e-05
1.83991e-05
1.81969e-05
1.79774e-05
1.91051e-05
2.131e-05
2.12452e-05
2.11692e-05
2.10855e-05
2.10005e-05
2.09205e-05
2.08331e-05
2.06966e-05
2.05425e-05
2.06319e-05
2.16728e-05
2.3757e-05
1.4655e-06
4.03014e-08
2.8095e-08
2.79296e-08
2.78699e-08
2.78271e-08
2.7801e-08
2.77897e-08
2.76913e-08
2.76648e-08
2.76494e-08
2.76571e-08
2.76954e-08
2.77606e-08
2.78381e-08
2.79172e-08
2.79197e-08
3.84263e-08
6.41612e-07
1.98339e-05
1.93797e-05
2.17287e-05
2.14461e-05
2.08088e-05
2.02149e-05
1.98614e-05
1.96754e-05
1.95723e-05
1.94918e-05
1.94024e-05
1.92929e-05
1.91622e-05
1.90124e-05
1.88452e-05
1.86615e-05
1.84612e-05
1.82429e-05
1.9413e-05
2.13084e-05
2.12456e-05
2.11729e-05
2.10943e-05
2.1017e-05
2.09467e-05
2.08674e-05
2.07414e-05
2.06286e-05
2.07976e-05
2.13323e-05
2.39629e-05
1.28439e-05
4.87199e-08
2.82162e-08
2.79741e-08
2.78862e-08
2.78307e-08
2.77964e-08
2.77777e-08
2.76709e-08
2.76335e-08
2.76064e-08
2.76041e-08
2.76318e-08
2.76844e-08
2.77556e-08
2.78457e-08
2.7828e-08
5.73289e-08
7.77997e-06
2.07345e-05
2.00284e-05
2.21794e-05
2.17297e-05
2.1134e-05
2.05655e-05
2.01628e-05
1.99417e-05
1.98192e-05
1.97319e-05
1.96433e-05
1.9538e-05
1.94122e-05
1.92668e-05
1.91035e-05
1.89231e-05
1.87257e-05
1.85095e-05
1.97249e-05
2.13089e-05
2.12484e-05
2.1179e-05
2.11054e-05
2.10354e-05
2.09733e-05
2.09001e-05
2.07832e-05
2.07079e-05
2.09283e-05
2.07923e-05
2.31078e-05
2.10933e-05
7.4658e-08
2.87236e-08
2.80583e-08
2.79386e-08
2.78672e-08
2.78181e-08
2.77865e-08
2.76705e-08
2.76197e-08
2.75782e-08
2.75671e-08
2.75882e-08
2.76219e-08
2.76617e-08
2.77307e-08
3.09336e-08
1.40138e-07
1.86398e-05
2.07932e-05
2.20109e-05
2.2564e-05
2.18903e-05
2.1243e-05
2.07819e-05
2.04428e-05
2.01962e-05
2.00583e-05
1.99653e-05
1.98776e-05
1.97766e-05
1.96562e-05
1.95161e-05
1.93577e-05
1.91817e-05
1.89883e-05
1.87758e-05
2.0039e-05
2.13112e-05
2.1253e-05
2.11869e-05
2.11181e-05
2.10547e-05
2.09991e-05
2.09296e-05
2.08201e-05
2.078e-05
2.10447e-05
2.09509e-05
2.30375e-05
2.39618e-05
1.64541e-07
3.14443e-08
2.82301e-08
2.80571e-08
2.79513e-08
2.78728e-08
2.78209e-08
2.76968e-08
2.76317e-08
2.75727e-08
2.75562e-08
2.75924e-08
2.7637e-08
2.76567e-08
2.7768e-08
5.21721e-08
2.98681e-06
1.94101e-05
1.89159e-05
2.2064e-05
2.29151e-05
2.19314e-05
2.12362e-05
2.07223e-05
2.04081e-05
2.02385e-05
2.0145e-05
2.00772e-05
2.00047e-05
1.99141e-05
1.98014e-05
1.96667e-05
1.95111e-05
1.93351e-05
1.91383e-05
1.89191e-05
1.59327e-05
2.13151e-05
2.12591e-05
2.11962e-05
2.11319e-05
2.10741e-05
2.10232e-05
2.09552e-05
2.08512e-05
2.08409e-05
2.11535e-05
2.16952e-05
2.33846e-05
2.47658e-05
1.08209e-06
4.22465e-08
2.84399e-08
2.82206e-08
2.80707e-08
2.79535e-08
2.78785e-08
2.77519e-08
2.76751e-08
2.75932e-08
2.75636e-08
2.76295e-08
2.77272e-08
2.77784e-08
3.94288e-08
3.47546e-07
2.15066e-05
1.96529e-05
1.98715e-05
2.08881e-05
2.29501e-05
2.19356e-05
2.11972e-05
2.06442e-05
2.02924e-05
2.0091e-05
1.99735e-05
1.98883e-05
1.98032e-05
1.97026e-05
1.95813e-05
1.94387e-05
1.92755e-05
1.90923e-05
1.88886e-05
1.86637e-05
1.56216e-05
2.13203e-05
2.12665e-05
2.12065e-05
2.11461e-05
2.1093e-05
2.10452e-05
2.09767e-05
2.08762e-05
2.08867e-05
2.12611e-05
2.27242e-05
2.36027e-05
2.47894e-05
2.28958e-05
1.10533e-07
3.20415e-08
2.83357e-08
2.81747e-08
2.80373e-08
2.79505e-08
2.78315e-08
2.7751e-08
2.76448e-08
2.75781e-08
2.7639e-08
2.77931e-08
3.80166e-08
2.6559e-07
2.40539e-05
2.30904e-05
2.07706e-05
2.24142e-05
2.15705e-05
2.28691e-05
2.19346e-05
2.11429e-05
2.05575e-05
2.01798e-05
1.99528e-05
1.98147e-05
1.97135e-05
1.96161e-05
1.95057e-05
1.93759e-05
1.92254e-05
1.90547e-05
1.88642e-05
1.86537e-05
1.84231e-05
1.53309e-05
2.13266e-05
2.12749e-05
2.12176e-05
2.11607e-05
2.11113e-05
2.10652e-05
2.09946e-05
2.0896e-05
2.09282e-05
2.14242e-05
2.26318e-05
2.3564e-05
2.45933e-05
2.1017e-05
1.45969e-05
7.55284e-08
3.04002e-08
2.82404e-08
2.8109e-08
2.80271e-08
2.79241e-08
2.78543e-08
2.77493e-08
2.76506e-08
2.86312e-08
4.6892e-08
3.47392e-07
2.45545e-05
2.59876e-05
2.56037e-05
2.3724e-05
2.18257e-05
2.34403e-05
2.26401e-05
2.19101e-05
2.10762e-05
2.04652e-05
2.00682e-05
1.98214e-05
1.96657e-05
1.955e-05
1.9441e-05
1.93211e-05
1.9183e-05
1.9025e-05
1.88472e-05
1.865e-05
1.84335e-05
1.81981e-05
1.50619e-05
2.13339e-05
2.12842e-05
2.12294e-05
2.11756e-05
2.11291e-05
2.10834e-05
2.10099e-05
2.09129e-05
2.09664e-05
2.15127e-05
2.20925e-05
2.40041e-05
2.43357e-05
1.67242e-05
2.25447e-05
1.02705e-05
9.51014e-08
3.74553e-08
2.99425e-08
2.86183e-08
2.86392e-08
2.95448e-08
3.24613e-08
4.3004e-08
9.89031e-08
1.02238e-06
2.49104e-05
2.63668e-05
2.6229e-05
2.61309e-05
2.42828e-05
2.05641e-05
2.35386e-05
2.26121e-05
2.18295e-05
2.09841e-05
2.03649e-05
1.99537e-05
1.96929e-05
1.95232e-05
1.93951e-05
1.92757e-05
1.91468e-05
1.9001e-05
1.88359e-05
1.86516e-05
1.84485e-05
1.82269e-05
1.79875e-05
1.48124e-05
2.13421e-05
2.12942e-05
2.12417e-05
2.11907e-05
2.11465e-05
2.11004e-05
2.10236e-05
2.09286e-05
2.10043e-05
2.15604e-05
2.21169e-05
2.39339e-05
2.12333e-05
1.67806e-05
2.4583e-05
2.41898e-05
2.18564e-05
3.58481e-07
1.22346e-07
8.52169e-08
8.81141e-08
1.17357e-07
2.35552e-07
1.10457e-06
2.23817e-05
2.57392e-05
2.60685e-05
2.66481e-05
2.65626e-05
2.64784e-05
2.29141e-05
2.0469e-05
2.27753e-05
2.2714e-05
2.1709e-05
2.0861e-05
2.02523e-05
1.9833e-05
1.95638e-05
1.93841e-05
1.92461e-05
1.91175e-05
1.89806e-05
1.88275e-05
1.86559e-05
1.84654e-05
1.82565e-05
1.80296e-05
1.77857e-05
1.45758e-05
2.13511e-05
2.13051e-05
2.12547e-05
2.12061e-05
2.11637e-05
2.11168e-05
2.10368e-05
2.09447e-05
2.10394e-05
2.14459e-05
2.23178e-05
2.37635e-05
2.06162e-05
2.38014e-05
2.73816e-05
2.67241e-05
2.44341e-05
2.57799e-05
2.3965e-05
2.25914e-05
2.29526e-05
2.39832e-05
2.53085e-05
2.63707e-05
2.49482e-05
2.5975e-05
2.6895e-05
2.68662e-05
2.68146e-05
2.52608e-05
2.11976e-05
2.03631e-05
2.00543e-05
2.25916e-05
2.15625e-05
2.07197e-05
2.01224e-05
1.97045e-05
1.94321e-05
1.92464e-05
1.9101e-05
1.89649e-05
1.8821e-05
1.86615e-05
1.84841e-05
1.82883e-05
1.80747e-05
1.78442e-05
1.75986e-05
1.43619e-05
2.13609e-05
2.13166e-05
2.12683e-05
2.1222e-05
2.1181e-05
2.1133e-05
2.10503e-05
2.0962e-05
2.10646e-05
2.14446e-05
2.29227e-05
2.36183e-05
2.066e-05
2.6192e-05
2.74136e-05
2.72227e-05
2.69687e-05
2.63967e-05
2.53917e-05
2.48254e-05
2.49328e-05
2.54765e-05
2.60906e-05
2.6582e-05
2.68796e-05
2.70099e-05
2.70108e-05
2.69411e-05
2.69283e-05
2.26323e-05
2.10927e-05
2.02294e-05
1.94326e-05
2.23906e-05
2.13866e-05
2.0558e-05
1.99742e-05
1.95664e-05
1.92964e-05
1.91088e-05
1.89588e-05
1.88169e-05
1.86671e-05
1.85021e-05
1.83195e-05
1.81193e-05
1.79019e-05
1.76687e-05
1.74214e-05
1.41558e-05
2.13715e-05
2.13289e-05
2.12827e-05
2.12385e-05
2.11988e-05
2.11496e-05
2.10649e-05
2.09814e-05
2.10732e-05
2.15502e-05
2.29765e-05
2.22621e-05
2.06621e-05
2.57364e-05
2.73429e-05
2.71929e-05
2.7106e-05
2.71734e-05
2.71543e-05
2.71198e-05
2.69888e-05
2.69521e-05
2.69607e-05
2.70102e-05
2.70591e-05
2.70531e-05
2.69909e-05
2.69389e-05
2.68798e-05
2.17449e-05
2.09418e-05
2.00723e-05
2.06246e-05
2.21731e-05
2.11762e-05
2.03841e-05
1.9811e-05
1.94202e-05
1.91581e-05
1.8972e-05
1.88194e-05
1.86732e-05
1.85184e-05
1.83484e-05
1.81613e-05
1.79569e-05
1.77362e-05
1.75004e-05
1.72505e-05
1.39575e-05
2.13828e-05
2.1342e-05
2.12977e-05
2.12557e-05
2.12172e-05
2.11671e-05
2.10811e-05
2.10027e-05
2.11069e-05
2.18233e-05
2.29013e-05
2.1148e-05
2.06354e-05
2.56978e-05
2.72782e-05
2.71394e-05
2.70967e-05
2.71899e-05
2.72536e-05
2.72657e-05
2.71196e-05
2.70501e-05
2.70187e-05
2.70119e-05
2.70245e-05
2.70006e-05
2.69496e-05
2.69126e-05
2.6727e-05
2.19251e-05
2.07445e-05
2.04053e-05
2.27247e-05
2.1901e-05
2.09405e-05
2.01865e-05
1.96402e-05
1.92709e-05
1.90202e-05
1.88378e-05
1.86843e-05
1.85346e-05
1.83752e-05
1.82006e-05
1.80091e-05
1.7801e-05
1.75773e-05
1.73388e-05
1.70859e-05
1.37679e-05
2.13948e-05
2.13558e-05
2.13136e-05
2.12736e-05
2.12364e-05
2.11856e-05
2.1099e-05
2.10269e-05
2.11818e-05
2.19183e-05
2.25998e-05
2.21726e-05
2.06146e-05
2.63583e-05
2.72384e-05
2.7104e-05
2.70803e-05
2.71537e-05
2.72209e-05
2.72462e-05
2.711e-05
2.70483e-05
2.70155e-05
2.6981e-05
2.69367e-05
2.69532e-05
2.69151e-05
2.6901e-05
2.65664e-05
2.21303e-05
2.05515e-05
2.15844e-05
2.26778e-05
2.15826e-05
2.0688e-05
1.99767e-05
1.94671e-05
1.91228e-05
1.88861e-05
1.87091e-05
1.85554e-05
1.84025e-05
1.82389e-05
1.80598e-05
1.78642e-05
1.76527e-05
1.7426e-05
1.71846e-05
1.69283e-05
1.35877e-05
2.14075e-05
2.13704e-05
2.13304e-05
2.12925e-05
2.12566e-05
2.12053e-05
2.11189e-05
2.10538e-05
2.12369e-05
2.19552e-05
2.28237e-05
2.37275e-05
2.3713e-05
2.71077e-05
2.7224e-05
2.70874e-05
2.70732e-05
2.71337e-05
2.71981e-05
2.72251e-05
2.70963e-05
2.7041e-05
2.70065e-05
2.69367e-05
2.68928e-05
2.68878e-05
2.68911e-05
2.68619e-05
2.6404e-05
2.21584e-05
2.03592e-05
2.13135e-05
2.23674e-05
2.12772e-05
2.04272e-05
1.97668e-05
1.92988e-05
1.89808e-05
1.87594e-05
1.85883e-05
1.84345e-05
1.82785e-05
1.81106e-05
1.7927e-05
1.77273e-05
1.75122e-05
1.72821e-05
1.70369e-05
1.67764e-05
1.34153e-05
2.14208e-05
2.13857e-05
2.1348e-05
2.13124e-05
2.12779e-05
2.12266e-05
2.11409e-05
2.10831e-05
2.12777e-05
2.18481e-05
2.32318e-05
2.38063e-05
2.62565e-05
2.73154e-05
2.72322e-05
2.70852e-05
2.70759e-05
2.71325e-05
2.71891e-05
2.71786e-05
2.70667e-05
2.70422e-05
2.70038e-05
2.69441e-05
2.68741e-05
2.68439e-05
2.68654e-05
2.67441e-05
2.62066e-05
2.21042e-05
2.01397e-05
2.12588e-05
2.20171e-05
2.09886e-05
2.01677e-05
1.95653e-05
1.91402e-05
1.88501e-05
1.86437e-05
1.84779e-05
1.83237e-05
1.81644e-05
1.7992e-05
1.78042e-05
1.76008e-05
1.73824e-05
1.71491e-05
1.69005e-05
1.66368e-05
1.32588e-05
2.14348e-05
2.14018e-05
2.13665e-05
2.13334e-05
2.13004e-05
2.12494e-05
2.1165e-05
2.11145e-05
2.1317e-05
2.19652e-05
2.33188e-05
2.33108e-05
2.62821e-05
2.73505e-05
2.72388e-05
2.70851e-05
2.70828e-05
2.71386e-05
2.7165e-05
2.72003e-05
2.70757e-05
2.70445e-05
2.70126e-05
2.69685e-05
2.68658e-05
2.68323e-05
2.68463e-05
2.65562e-05
2.58949e-05
2.18349e-05
1.98766e-05
2.19619e-05
2.1651e-05
2.06865e-05
1.99251e-05
1.93801e-05
1.89977e-05
1.87346e-05
1.85417e-05
1.83802e-05
1.82248e-05
1.80617e-05
1.78852e-05
1.76937e-05
1.74873e-05
1.72663e-05
1.70304e-05
1.67793e-05
1.65132e-05
1.30559e-05
2.14493e-05
2.14187e-05
2.13859e-05
2.13554e-05
2.13242e-05
2.12739e-05
2.11915e-05
2.11481e-05
2.1357e-05
2.21151e-05
2.29501e-05
2.33247e-05
2.56385e-05
2.73574e-05
2.72319e-05
2.70809e-05
2.70888e-05
2.71186e-05
2.71952e-05
2.72408e-05
2.71224e-05
2.70891e-05
2.70321e-05
2.69812e-05
2.69318e-05
2.68442e-05
2.67282e-05
2.63183e-05
2.55837e-05
2.16839e-05
1.96588e-05
2.23214e-05
2.13048e-05
2.04051e-05
1.97127e-05
1.9219e-05
1.88765e-05
1.86374e-05
1.84553e-05
1.82961e-05
1.81384e-05
1.79714e-05
1.77908e-05
1.75958e-05
1.73865e-05
1.71628e-05
1.69242e-05
1.66704e-05
1.64015e-05
1.28593e-05
2.14644e-05
2.14362e-05
2.14062e-05
2.13785e-05
2.13494e-05
2.13002e-05
2.12203e-05
2.11842e-05
2.14082e-05
2.21757e-05
2.23483e-05
2.33257e-05
2.45633e-05
2.72137e-05
2.72209e-05
2.70719e-05
2.70892e-05
2.71656e-05
2.72492e-05
2.73207e-05
2.7222e-05
2.7137e-05
2.70597e-05
2.70019e-05
2.69619e-05
2.68785e-05
2.65679e-05
2.60834e-05
2.48018e-05
2.14062e-05
2.05421e-05
2.20259e-05
2.09958e-05
2.01602e-05
1.95321e-05
1.90867e-05
1.87793e-05
1.85595e-05
1.8385e-05
1.82259e-05
1.80646e-05
1.7893e-05
1.7708e-05
1.75093e-05
1.72966e-05
1.70696e-05
1.68275e-05
1.65703e-05
1.62983e-05
1.26797e-05
2.148e-05
2.14543e-05
2.14274e-05
2.14027e-05
2.1376e-05
2.13285e-05
2.12517e-05
2.12228e-05
2.14615e-05
2.22197e-05
2.29389e-05
2.33254e-05
2.47438e-05
2.74183e-05
2.72014e-05
2.70566e-05
2.70797e-05
2.7181e-05
2.72972e-05
2.7377e-05
2.72702e-05
2.71726e-05
2.70862e-05
2.70285e-05
2.69958e-05
2.68532e-05
2.64079e-05
2.58412e-05
2.45586e-05
2.1363e-05
2.25995e-05
2.17021e-05
2.07232e-05
1.99525e-05
1.93835e-05
1.89834e-05
1.87052e-05
1.85e-05
1.83295e-05
1.81684e-05
1.80026e-05
1.7826e-05
1.76365e-05
1.74336e-05
1.72171e-05
1.69862e-05
1.67404e-05
1.64798e-05
1.62048e-05
1.25196e-05
2.14959e-05
2.1473e-05
2.14493e-05
2.1428e-05
2.14041e-05
2.13588e-05
2.12859e-05
2.12648e-05
2.15122e-05
2.22521e-05
2.35403e-05
2.3348e-05
2.62176e-05
2.7495e-05
2.71616e-05
2.70333e-05
2.70568e-05
2.7022e-05
2.60573e-05
2.73223e-05
2.72832e-05
2.7181e-05
2.71012e-05
2.70577e-05
2.70209e-05
2.67369e-05
2.62741e-05
2.54356e-05
2.27824e-05
2.27463e-05
2.25142e-05
2.14181e-05
2.04925e-05
1.9782e-05
1.92665e-05
1.89058e-05
1.86509e-05
1.84558e-05
1.82865e-05
1.8122e-05
1.79511e-05
1.77694e-05
1.75753e-05
1.73683e-05
1.71478e-05
1.69132e-05
1.66642e-05
1.64008e-05
1.61232e-05
1.23818e-05
2.1512e-05
2.14921e-05
2.14719e-05
2.14542e-05
2.14336e-05
2.13913e-05
2.13232e-05
2.13109e-05
2.15673e-05
2.23122e-05
2.30583e-05
2.40171e-05
2.60916e-05
2.71789e-05
2.71804e-05
2.70077e-05
2.66313e-05
2.22336e-05
2.04611e-05
2.24002e-05
2.68321e-05
2.71612e-05
2.711e-05
2.70953e-05
2.69823e-05
2.66061e-05
2.61128e-05
2.47598e-05
2.24369e-05
2.25735e-05
2.2225e-05
2.11635e-05
2.02958e-05
1.96425e-05
1.91752e-05
1.8848e-05
1.86113e-05
1.84228e-05
1.82528e-05
1.8084e-05
1.79081e-05
1.77215e-05
1.75231e-05
1.73123e-05
1.70882e-05
1.68505e-05
1.65986e-05
1.63327e-05
1.60529e-05
1.22641e-05
2.15282e-05
2.15115e-05
2.14949e-05
2.14813e-05
2.14645e-05
2.1426e-05
2.13638e-05
2.13615e-05
2.16286e-05
2.23907e-05
2.2331e-05
2.36995e-05
2.49904e-05
2.65156e-05
2.72037e-05
2.69719e-05
2.14981e-05
2.03646e-05
2.04745e-05
2.05276e-05
2.3004e-05
2.71577e-05
2.71484e-05
2.7164e-05
2.68964e-05
2.64658e-05
2.59175e-05
2.43144e-05
2.21407e-05
2.19412e-05
2.19403e-05
2.09279e-05
2.01214e-05
1.95247e-05
1.91017e-05
1.88032e-05
1.85809e-05
1.83965e-05
1.82248e-05
1.80517e-05
1.78711e-05
1.76802e-05
1.7478e-05
1.72636e-05
1.70364e-05
1.67957e-05
1.65412e-05
1.62729e-05
1.5991e-05
1.21613e-05
2.15443e-05
2.15309e-05
2.15183e-05
2.1509e-05
2.14965e-05
2.14626e-05
2.14076e-05
2.14165e-05
2.16947e-05
2.24542e-05
2.29551e-05
2.3724e-05
2.50228e-05
2.67595e-05
2.72582e-05
2.36327e-05
2.03032e-05
2.04552e-05
2.0603e-05
2.06499e-05
2.31161e-05
2.72753e-05
2.72685e-05
2.72067e-05
2.681e-05
2.63145e-05
2.57063e-05
2.40989e-05
2.18575e-05
2.10346e-05
2.16537e-05
2.07086e-05
1.99637e-05
1.94218e-05
1.90392e-05
1.87655e-05
1.85548e-05
1.8373e-05
1.81992e-05
1.80224e-05
1.78377e-05
1.7643e-05
1.74374e-05
1.72198e-05
1.69895e-05
1.67459e-05
1.64888e-05
1.62181e-05
1.59342e-05
1.20682e-05
2.15601e-05
2.15501e-05
2.15417e-05
2.15371e-05
2.15293e-05
2.15009e-05
2.14541e-05
2.14751e-05
2.17649e-05
2.24776e-05
2.37463e-05
2.38258e-05
2.50668e-05
2.70482e-05
2.73341e-05
2.07518e-05
2.0265e-05
2.04373e-05
2.06385e-05
2.18983e-05
2.65959e-05
2.75283e-05
2.74709e-05
2.71889e-05
2.67136e-05
2.61516e-05
2.54874e-05
2.40177e-05
2.15918e-05
2.05862e-05
2.12141e-05
2.05028e-05
1.98194e-05
1.93289e-05
1.89829e-05
1.87305e-05
1.85292e-05
1.83493e-05
1.81735e-05
1.79935e-05
1.78054e-05
1.76075e-05
1.73987e-05
1.7178e-05
1.69448e-05
1.66984e-05
1.64388e-05
1.6166e-05
1.58806e-05
1.19813e-05
2.15753e-05
2.15689e-05
2.15649e-05
2.15651e-05
2.15625e-05
2.15403e-05
2.15027e-05
2.15371e-05
2.18388e-05
2.2537e-05
2.37711e-05
2.41848e-05
2.4979e-05
2.69777e-05
2.62254e-05
2.01226e-05
2.01339e-05
2.04874e-05
2.33886e-05
2.7062e-05
2.73984e-05
2.74524e-05
2.74612e-05
2.71337e-05
2.65911e-05
2.59686e-05
2.52539e-05
2.40521e-05
2.13226e-05
2.03787e-05
2.09355e-05
2.03083e-05
1.96855e-05
1.92431e-05
1.89296e-05
1.86954e-05
1.85017e-05
1.83231e-05
1.81458e-05
1.79632e-05
1.77724e-05
1.75717e-05
1.736e-05
1.71365e-05
1.69006e-05
1.66518e-05
1.63899e-05
1.61154e-05
1.58287e-05
1.18984e-05
2.15898e-05
2.1587e-05
2.15874e-05
2.15927e-05
2.15956e-05
2.15801e-05
2.15528e-05
2.16019e-05
2.19044e-05
2.26112e-05
2.37565e-05
2.3585e-05
2.57754e-05
2.68548e-05
2.45348e-05
2.24615e-05
2.38353e-05
2.65669e-05
2.71894e-05
2.73506e-05
2.72611e-05
2.7226e-05
2.71898e-05
2.69607e-05
2.643e-05
2.57571e-05
2.49991e-05
2.40708e-05
2.19453e-05
2.02698e-05
2.08634e-05
2.01269e-05
1.95616e-05
1.91625e-05
1.88774e-05
1.86585e-05
1.84709e-05
1.82934e-05
1.81149e-05
1.79303e-05
1.77371e-05
1.75339e-05
1.73195e-05
1.70932e-05
1.68544e-05
1.66028e-05
1.63386e-05
1.60621e-05
1.5774e-05
1.18119e-05
2.16032e-05
2.16039e-05
2.16088e-05
2.16193e-05
2.16279e-05
2.16197e-05
2.16037e-05
2.16691e-05
2.19645e-05
2.26446e-05
2.31948e-05
2.35178e-05
2.54051e-05
2.57982e-05
2.58319e-05
2.66123e-05
2.67031e-05
2.6872e-05
2.70549e-05
2.72549e-05
2.70656e-05
2.69411e-05
2.68659e-05
2.6701e-05
2.62282e-05
2.55166e-05
2.47243e-05
2.37932e-05
2.26693e-05
2.12127e-05
2.06766e-05
1.99605e-05
1.94467e-05
1.9086e-05
1.88249e-05
1.86186e-05
1.8436e-05
1.82594e-05
1.80801e-05
1.78939e-05
1.76986e-05
1.74929e-05
1.72758e-05
1.70466e-05
1.68048e-05
1.65505e-05
1.62839e-05
1.60059e-05
1.57172e-05
1.1724e-05
2.16152e-05
2.16194e-05
2.16286e-05
2.16443e-05
2.16588e-05
2.16582e-05
2.16541e-05
2.17375e-05
2.20343e-05
2.26953e-05
2.23017e-05
2.35105e-05
2.47262e-05
2.55041e-05
2.54283e-05
2.6487e-05
2.6581e-05
2.67162e-05
2.69111e-05
2.71768e-05
2.68508e-05
2.66684e-05
2.65511e-05
2.64223e-05
2.59873e-05
2.52473e-05
2.44209e-05
2.31504e-05
2.19219e-05
2.13409e-05
2.0469e-05
1.98051e-05
1.93382e-05
1.90112e-05
1.87707e-05
1.85747e-05
1.83962e-05
1.82206e-05
1.80408e-05
1.78534e-05
1.76565e-05
1.74487e-05
1.72293e-05
1.69977e-05
1.67537e-05
1.64976e-05
1.62302e-05
1.59523e-05
1.56642e-05
1.1643e-05
2.16255e-05
2.1633e-05
2.16465e-05
2.16671e-05
2.16873e-05
2.16944e-05
2.17028e-05
2.18054e-05
2.21125e-05
2.27678e-05
2.28977e-05
2.35375e-05
2.47329e-05
2.54169e-05
2.6221e-05
2.64138e-05
2.64255e-05
2.65425e-05
2.67678e-05
2.70895e-05
2.66267e-05
2.63962e-05
2.62424e-05
2.61267e-05
2.57063e-05
2.49411e-05
2.40795e-05
2.21383e-05
2.0964e-05
2.10811e-05
2.02602e-05
1.96534e-05
1.92314e-05
1.89351e-05
1.87126e-05
1.85255e-05
1.83508e-05
1.81764e-05
1.79966e-05
1.78084e-05
1.76103e-05
1.7401e-05
1.718e-05
1.6947e-05
1.67021e-05
1.64459e-05
1.61791e-05
1.59022e-05
1.56147e-05
1.15673e-05
2.16338e-05
2.16443e-05
2.16617e-05
2.16871e-05
2.17127e-05
2.17272e-05
2.17484e-05
2.1871e-05
2.21988e-05
2.28598e-05
2.38881e-05
2.47997e-05
2.57157e-05
2.67723e-05
2.64081e-05
2.62246e-05
2.61919e-05
2.63278e-05
2.66449e-05
2.69492e-05
2.63932e-05
2.61234e-05
2.59402e-05
2.581e-05
2.53808e-05
2.46009e-05
2.37441e-05
2.19913e-05
2.06295e-05
2.08095e-05
2.00511e-05
1.95021e-05
1.91232e-05
1.88554e-05
1.86491e-05
1.84702e-05
1.82991e-05
1.81262e-05
1.79467e-05
1.77582e-05
1.75592e-05
1.73488e-05
1.71269e-05
1.68933e-05
1.66485e-05
1.63928e-05
1.61268e-05
1.58503e-05
1.55625e-05
1.14875e-05
2.16397e-05
2.1653e-05
2.16739e-05
2.17035e-05
2.1734e-05
2.17556e-05
2.17895e-05
2.19331e-05
2.22918e-05
2.29694e-05
2.40156e-05
2.52864e-05
2.64658e-05
2.68136e-05
2.63034e-05
2.60711e-05
2.60126e-05
2.61509e-05
2.65474e-05
2.67696e-05
2.61594e-05
2.58576e-05
2.56511e-05
2.54933e-05
2.50313e-05
2.42363e-05
2.3313e-05
2.12888e-05
2.03146e-05
2.0549e-05
1.98462e-05
1.93516e-05
1.9013e-05
1.87712e-05
1.85796e-05
1.84082e-05
1.82409e-05
1.80697e-05
1.78907e-05
1.7702e-05
1.75023e-05
1.72912e-05
1.70687e-05
1.68348e-05
1.659e-05
1.63345e-05
1.60684e-05
1.57914e-05
1.55028e-05
1.13971e-05
2.16431e-05
2.16586e-05
2.16824e-05
2.17156e-05
2.17503e-05
2.17784e-05
2.18249e-05
2.19908e-05
2.23906e-05
2.31017e-05
2.38545e-05
2.46098e-05
2.56158e-05
2.63904e-05
2.61513e-05
2.59318e-05
2.58842e-05
2.60724e-05
2.65076e-05
2.65904e-05
2.59384e-05
2.56108e-05
2.5386e-05
2.51648e-05
2.46432e-05
2.38501e-05
2.27979e-05
2.00972e-05
2.01563e-05
2.02808e-05
1.96402e-05
1.91995e-05
1.88995e-05
1.8682e-05
1.8504e-05
1.83399e-05
1.81764e-05
1.8007e-05
1.78288e-05
1.764e-05
1.74399e-05
1.72282e-05
1.70051e-05
1.67709e-05
1.65257e-05
1.62697e-05
1.60027e-05
1.57246e-05
1.54351e-05
1.12957e-05
2.16436e-05
2.16607e-05
2.16869e-05
2.17228e-05
2.17608e-05
2.17945e-05
2.18534e-05
2.20426e-05
2.24955e-05
2.3255e-05
2.37343e-05
2.43204e-05
2.5394e-05
2.575e-05
2.60765e-05
2.58081e-05
2.57469e-05
2.59892e-05
2.65403e-05
2.64232e-05
2.57045e-05
2.53512e-05
2.51512e-05
2.48371e-05
2.42254e-05
2.3445e-05
2.23028e-05
1.97095e-05
1.97771e-05
2.00004e-05
1.94286e-05
1.90435e-05
1.87817e-05
1.85875e-05
1.84227e-05
1.82659e-05
1.81063e-05
1.79391e-05
1.77617e-05
1.7573e-05
1.73725e-05
1.71602e-05
1.69362e-05
1.67009e-05
1.64542e-05
1.61963e-05
1.5927e-05
1.56468e-05
1.53562e-05
1.11793e-05
2.16409e-05
2.16591e-05
2.16869e-05
2.17246e-05
2.17647e-05
2.1803e-05
2.18738e-05
2.20874e-05
2.26059e-05
2.3429e-05
2.42962e-05
2.44873e-05
2.5488e-05
2.59539e-05
2.59583e-05
2.56387e-05
2.56344e-05
2.59845e-05
2.66677e-05
2.62687e-05
2.5426e-05
2.50682e-05
2.49367e-05
2.45164e-05
2.37815e-05
2.29893e-05
2.0528e-05
1.93115e-05
1.89197e-05
1.9709e-05
1.92127e-05
1.88849e-05
1.86609e-05
1.84892e-05
1.83372e-05
1.81877e-05
1.80323e-05
1.78674e-05
1.7691e-05
1.75026e-05
1.73018e-05
1.70889e-05
1.68642e-05
1.66277e-05
1.63795e-05
1.61199e-05
1.58493e-05
1.5569e-05
1.52792e-05
1.10683e-05
2.1635e-05
2.16535e-05
2.16819e-05
2.17204e-05
2.17613e-05
2.18029e-05
2.18853e-05
2.21244e-05
2.26961e-05
2.34855e-05
2.45328e-05
2.46835e-05
2.58265e-05
2.63077e-05
2.57989e-05
2.55083e-05
2.5598e-05
2.60794e-05
2.6758e-05
2.60269e-05
2.53116e-05
2.49436e-05
2.46732e-05
2.4074e-05
2.33199e-05
2.21856e-05
1.96904e-05
1.88979e-05
1.87848e-05
1.9417e-05
1.89994e-05
1.87284e-05
1.85404e-05
1.83899e-05
1.82501e-05
1.81076e-05
1.79565e-05
1.77939e-05
1.76188e-05
1.74309e-05
1.72304e-05
1.70177e-05
1.67929e-05
1.65565e-05
1.63085e-05
1.60494e-05
1.57803e-05
1.55021e-05
1.52141e-05
1.09743e-05
2.16256e-05
2.16436e-05
2.16718e-05
2.17096e-05
2.17499e-05
2.17933e-05
2.18865e-05
2.21531e-05
2.27708e-05
2.3654e-05
2.39092e-05
2.48992e-05
2.65576e-05
2.62812e-05
2.56725e-05
2.54516e-05
2.56644e-05
2.62506e-05
2.67167e-05
2.59508e-05
2.53066e-05
2.4936e-05
2.43521e-05
2.35851e-05
2.27993e-05
2.01555e-05
1.92279e-05
1.85194e-05
1.93563e-05
1.91387e-05
1.87983e-05
1.85805e-05
1.84251e-05
1.82935e-05
1.81646e-05
1.80285e-05
1.78811e-05
1.77207e-05
1.75468e-05
1.73597e-05
1.71598e-05
1.69477e-05
1.67237e-05
1.64882e-05
1.62415e-05
1.59843e-05
1.57173e-05
1.54406e-05
1.51527e-05
1.08845e-05
2.16127e-05
2.16294e-05
2.16562e-05
2.16921e-05
2.173e-05
2.17736e-05
2.18772e-05
2.21734e-05
2.28328e-05
2.39026e-05
2.40657e-05
2.52236e-05
2.70325e-05
2.61771e-05
2.5606e-05
2.54947e-05
2.58502e-05
2.64879e-05
2.65181e-05
2.60295e-05
2.53586e-05
2.46603e-05
2.38368e-05
2.30524e-05
2.09289e-05
1.95327e-05
1.87589e-05
1.82844e-05
1.92511e-05
1.888e-05
1.86161e-05
1.84467e-05
1.83196e-05
1.82039e-05
1.80839e-05
1.7953e-05
1.78085e-05
1.76496e-05
1.74766e-05
1.72901e-05
1.70908e-05
1.68793e-05
1.6656e-05
1.64214e-05
1.61756e-05
1.59194e-05
1.56528e-05
1.53753e-05
1.5086e-05
1.07876e-05
2.15964e-05
2.16109e-05
2.16351e-05
2.16677e-05
2.17014e-05
2.17436e-05
2.18574e-05
2.21857e-05
2.29027e-05
2.41391e-05
2.43383e-05
2.60656e-05
2.70466e-05
2.61109e-05
2.56247e-05
2.56568e-05
2.61634e-05
2.69551e-05
2.64037e-05
2.5563e-05
2.4992e-05
2.4109e-05
2.32804e-05
2.1358e-05
1.97724e-05
1.90103e-05
1.83339e-05
1.89567e-05
1.89659e-05
1.86549e-05
1.84604e-05
1.83322e-05
1.8228e-05
1.81246e-05
1.80112e-05
1.78837e-05
1.77409e-05
1.75827e-05
1.74101e-05
1.72238e-05
1.70248e-05
1.68135e-05
1.65905e-05
1.63559e-05
1.61101e-05
1.58533e-05
1.55856e-05
1.53064e-05
1.50155e-05
1.06869e-05
2.15766e-05
2.1588e-05
2.16086e-05
2.16361e-05
2.16638e-05
2.17032e-05
2.18278e-05
2.21924e-05
2.2986e-05
2.37382e-05
2.45714e-05
2.66003e-05
2.69954e-05
2.61092e-05
2.5749e-05
2.593e-05
2.65805e-05
2.73831e-05
2.62271e-05
2.35852e-05
2.29482e-05
2.31873e-05
2.17266e-05
1.99885e-05
1.92188e-05
1.85113e-05
1.85257e-05
1.90372e-05
1.87047e-05
1.84757e-05
1.83383e-05
1.82418e-05
1.8154e-05
1.80586e-05
1.7949e-05
1.78229e-05
1.76804e-05
1.75222e-05
1.73493e-05
1.71629e-05
1.69637e-05
1.67523e-05
1.65289e-05
1.62939e-05
1.60473e-05
1.57894e-05
1.55201e-05
1.52395e-05
1.49475e-05
1.05906e-05
2.15536e-05
2.15611e-05
2.15768e-05
2.15977e-05
2.16174e-05
2.16529e-05
2.17896e-05
2.2197e-05
2.30598e-05
2.34213e-05
2.48751e-05
2.71727e-05
2.69854e-05
2.61988e-05
2.59703e-05
2.61792e-05
2.69565e-05
2.71623e-05
2.4236e-05
2.29869e-05
2.19041e-05
2.12155e-05
2.02831e-05
1.94643e-05
1.8928e-05
1.89064e-05
1.91234e-05
1.87765e-05
1.85048e-05
1.83487e-05
1.82537e-05
1.81784e-05
1.81e-05
1.80082e-05
1.78993e-05
1.77727e-05
1.76292e-05
1.74701e-05
1.72965e-05
1.71095e-05
1.69098e-05
1.66978e-05
1.64738e-05
1.62379e-05
1.59903e-05
1.57312e-05
1.54607e-05
1.51789e-05
1.48859e-05
1.05039e-05
2.15277e-05
2.15303e-05
2.15399e-05
2.15526e-05
2.15625e-05
2.15933e-05
2.17452e-05
2.22011e-05
2.27785e-05
2.36062e-05
2.59199e-05
2.74482e-05
2.70428e-05
2.64016e-05
2.62532e-05
2.64249e-05
2.68657e-05
2.58847e-05
2.35033e-05
2.24495e-05
2.1349e-05
2.05894e-05
2.01007e-05
2.02226e-05
1.98014e-05
1.93328e-05
1.8881e-05
1.85625e-05
1.8377e-05
1.82745e-05
1.82062e-05
1.8142e-05
1.80667e-05
1.79743e-05
1.78634e-05
1.77346e-05
1.75891e-05
1.74284e-05
1.72536e-05
1.70657e-05
1.68651e-05
1.66522e-05
1.64272e-05
1.61902e-05
1.59415e-05
1.56812e-05
1.54095e-05
1.51266e-05
1.48327e-05
1.04288e-05
2.14991e-05
2.1496e-05
2.14984e-05
2.15013e-05
2.14999e-05
2.15258e-05
2.16962e-05
2.21645e-05
2.27826e-05
2.44126e-05
2.60936e-05
2.74414e-05
2.69363e-05
2.6414e-05
2.62216e-05
2.63911e-05
2.68644e-05
2.49791e-05
2.29158e-05
2.19149e-05
2.07885e-05
2.01914e-05
2.07226e-05
2.01926e-05
1.95425e-05
1.90221e-05
1.86597e-05
1.84379e-05
1.83172e-05
1.8248e-05
1.81928e-05
1.8131e-05
1.80534e-05
1.79571e-05
1.78422e-05
1.77098e-05
1.75616e-05
1.73987e-05
1.72223e-05
1.70329e-05
1.6831e-05
1.66168e-05
1.63905e-05
1.61523e-05
1.59023e-05
1.56408e-05
1.53678e-05
1.50837e-05
1.47887e-05
1.03667e-05
2.14683e-05
2.14588e-05
2.14529e-05
2.14444e-05
2.14301e-05
2.14514e-05
2.16428e-05
2.21593e-05
2.3097e-05
2.42425e-05
2.59717e-05
2.72919e-05
2.62843e-05
2.61444e-05
2.61971e-05
2.63714e-05
2.64935e-05
2.45478e-05
2.23513e-05
2.14062e-05
2.04601e-05
2.09223e-05
2.04083e-05
1.97498e-05
1.92031e-05
1.88011e-05
1.85421e-05
1.83947e-05
1.83149e-05
1.82616e-05
1.82085e-05
1.81425e-05
1.80587e-05
1.79561e-05
1.78358e-05
1.76991e-05
1.75475e-05
1.7382e-05
1.72034e-05
1.70121e-05
1.68085e-05
1.65927e-05
1.63649e-05
1.61252e-05
1.58737e-05
1.56108e-05
1.53365e-05
1.50511e-05
1.47548e-05
1.03186e-05
2.14359e-05
2.14193e-05
2.1404e-05
2.13828e-05
2.13546e-05
2.13718e-05
2.15869e-05
2.21913e-05
2.32438e-05
2.38515e-05
2.56396e-05
2.69873e-05
2.59389e-05
2.60253e-05
2.60752e-05
2.62828e-05
2.58226e-05
2.44605e-05
2.23445e-05
2.12995e-05
2.12333e-05
2.06642e-05
1.99909e-05
1.94231e-05
1.89907e-05
1.86953e-05
1.85167e-05
1.84173e-05
1.83575e-05
1.83068e-05
1.82479e-05
1.81733e-05
1.80808e-05
1.79707e-05
1.78442e-05
1.77027e-05
1.75473e-05
1.73788e-05
1.71976e-05
1.7004e-05
1.67983e-05
1.65806e-05
1.63509e-05
1.61095e-05
1.58564e-05
1.55919e-05
1.53162e-05
1.50294e-05
1.47318e-05
1.02854e-05
2.14024e-05
2.13781e-05
2.13526e-05
2.13177e-05
2.12749e-05
2.12893e-05
2.15309e-05
2.21832e-05
2.27052e-05
2.37609e-05
2.49431e-05
2.60187e-05
2.59436e-05
2.59517e-05
2.59901e-05
2.60049e-05
2.51665e-05
2.41335e-05
2.30891e-05
2.21294e-05
2.09975e-05
2.02865e-05
1.96951e-05
1.92323e-05
1.89021e-05
1.86892e-05
1.85634e-05
1.84885e-05
1.84329e-05
1.83756e-05
1.83061e-05
1.82205e-05
1.81183e-05
1.80001e-05
1.78672e-05
1.77206e-05
1.75611e-05
1.73891e-05
1.72049e-05
1.70087e-05
1.68006e-05
1.65806e-05
1.6349e-05
1.61056e-05
1.58508e-05
1.55847e-05
1.53074e-05
1.50192e-05
1.47203e-05
1.02677e-05
2.13685e-05
2.1336e-05
2.12998e-05
2.12503e-05
2.1193e-05
2.12067e-05
2.14753e-05
2.20828e-05
2.25292e-05
2.36465e-05
2.49819e-05
2.57483e-05
2.5965e-05
2.58767e-05
2.59455e-05
2.54716e-05
2.45743e-05
2.3629e-05
2.27078e-05
2.18569e-05
2.06609e-05
2.00294e-05
1.95335e-05
1.91662e-05
1.89162e-05
1.87585e-05
1.86611e-05
1.85929e-05
1.85309e-05
1.84617e-05
1.83793e-05
1.82819e-05
1.81696e-05
1.80434e-05
1.7904e-05
1.77522e-05
1.75883e-05
1.74126e-05
1.72252e-05
1.70261e-05
1.68153e-05
1.65929e-05
1.6359e-05
1.61137e-05
1.58571e-05
1.55892e-05
1.53104e-05
1.50207e-05
1.47205e-05
1.02659e-05
2.13349e-05
2.12941e-05
2.12466e-05
2.11823e-05
2.11111e-05
2.11255e-05
2.14148e-05
2.16826e-05
2.24693e-05
2.38821e-05
2.49529e-05
2.54762e-05
2.59881e-05
2.58405e-05
2.56625e-05
2.49066e-05
2.40535e-05
2.31764e-05
2.23327e-05
2.15665e-05
2.04419e-05
1.98992e-05
1.94913e-05
1.92004e-05
1.90058e-05
1.88793e-05
1.87914e-05
1.87182e-05
1.8644e-05
1.85605e-05
1.84646e-05
1.83555e-05
1.82336e-05
1.80996e-05
1.79539e-05
1.77968e-05
1.76284e-05
1.74488e-05
1.72579e-05
1.70556e-05
1.68421e-05
1.66172e-05
1.6381e-05
1.61337e-05
1.58751e-05
1.56056e-05
1.53252e-05
1.50341e-05
1.47325e-05
1.02801e-05
2.13023e-05
2.12531e-05
2.11943e-05
2.11153e-05
2.10309e-05
2.10465e-05
2.13432e-05
2.17862e-05
2.27183e-05
2.37431e-05
2.45231e-05
2.57878e-05
2.59427e-05
2.56933e-05
2.5161e-05
2.4414e-05