/*--------------------------------*- C++ -*----------------------------------*\
  =========                 |
  \\      /  F ield         | OpenFOAM: The Open Source CFD Toolbox
   \\    /   O peration     | Website:  https://openfoam.org
    \\  /    A nd           | Version:  9
     \\/     M anipulation  |
\*---------------------------------------------------------------------------*/
FoamFile
{
    format      ascii;
    class       surfaceScalarField;
    location    "0.04";
    object      alphaPhi0.water;
}
// * * * * * * * * * * * * * * * * * * * * * * * * * * * * * * * * * * * * * //

dimensions      [0 3 -1 0 0 0 0];

internalField   nonuniform List<scalar> 
9850
(
-9.96913e-267
9.58559e-266
-4.59685e-266
4.69696e-265
-1.95931e-265
2.14252e-264
-7.64165e-265
9.02509e-264
-2.69102e-264
3.47243e-263
-8.41286e-264
1.20273e-262
-2.2875e-263
3.68328e-262
-5.28706e-263
9.771e-262
-1.01672e-262
2.20061e-261
-1.60383e-262
4.14373e-261
-2.07322e-262
6.47457e-261
-2.22268e-262
8.41719e-261
-2.01255e-262
9.19903e-261
-1.56548e-262
8.56313e-261
-1.05885e-262
6.8699e-261
-6.2729e-263
4.79074e-261
-3.27031e-263
2.92017e-261
-1.50869e-263
1.56242e-261
-6.24948e-264
7.37958e-262
-2.46724e-264
3.12315e-262
-9.39263e-265
1.02606e-262
-3.43494e-265
3.77874e-263
-1.21127e-265
1.33443e-263
-4.13588e-266
4.5372e-264
-1.37357e-266
1.49197e-264
-4.45722e-267
4.76708e-265
-1.4194e-267
1.48698e-265
-4.45388e-268
4.54844e-266
-1.38219e-268
1.37e-266
-4.2563e-269
4.0786e-267
-1.30443e-269
1.20421e-267
-3.98912e-270
3.5367e-268
-1.22015e-270
1.03601e-268
-3.74043e-271
3.03405e-269
-1.15132e-271
8.90207e-270
-3.564e-272
2.62163e-270
-1.11111e-272
7.76202e-271
-3.49298e-273
2.31381e-271
-1.10848e-273
6.95314e-272
-3.55445e-274
2.10873e-272
-1.15262e-274
6.46055e-273
-3.78251e-275
2.00123e-273
-1.25696e-275
6.27226e-274
-4.23177e-276
1.99031e-274
-1.44388e-276
6.39752e-275
-4.99167e-277
2.08376e-275
-1.74235e-277
6.87594e-276
-6.00113e-278
2.29054e-276
-1.7618e-278
7.52847e-277
2.10901e-277
-4.85628e-264
4.95576e-263
-2.24012e-263
2.44229e-262
-9.56592e-263
1.12148e-261
-3.75055e-262
4.7606e-261
-1.33613e-261
1.84782e-260
-4.26581e-261
6.46249e-260
-1.19746e-260
1.99897e-259
-2.88111e-260
5.35309e-259
-5.77738e-260
1.21524e-258
-9.44986e-260
2.30192e-258
-1.25323e-259
3.61097e-258
-1.36202e-259
4.70514e-258
-1.23744e-259
5.14771e-258
-9.58977e-260
4.7933e-258
-6.43708e-260
3.84516e-258
-3.77922e-260
2.68097e-258
-1.95277e-260
1.63408e-258
-8.93688e-261
8.74483e-259
-3.67677e-261
4.13277e-259
-1.44075e-261
1.75082e-259
-5.45958e-262
5.74993e-260
-1.98983e-262
2.11914e-260
-7.00015e-263
7.49297e-261
-2.38655e-263
2.55176e-261
-7.91955e-264
8.40656e-262
-2.56935e-264
2.69167e-262
-8.18465e-265
8.41547e-263
-2.57017e-265
2.58063e-263
-7.98525e-266
7.79386e-264
-2.46262e-266
2.32692e-264
-7.56057e-267
6.89076e-265
-2.31678e-267
2.03005e-265
-7.10202e-268
5.96559e-266
-2.18237e-268
1.75276e-266
-6.73438e-269
5.15965e-267
-2.09015e-269
1.52454e-267
-6.53388e-270
4.5288e-268
-2.05972e-270
1.35448e-268
-6.55474e-271
4.08367e-269
-2.10775e-271
1.24251e-269
-6.85412e-272
3.81886e-270
-2.25559e-272
1.18665e-270
-7.51624e-273
3.73059e-271
-2.53739e-273
1.18732e-271
-8.68079e-274
3.82747e-272
-3.00887e-274
1.25014e-272
-1.05286e-274
4.13623e-273
-3.63447e-275
1.38137e-273
-1.06874e-275
4.55046e-274
1.27672e-274
-1.78703e-261
1.9262e-260
-8.26503e-261
9.55237e-260
-3.54575e-260
4.41672e-259
-1.40162e-259
1.8889e-258
-5.06215e-259
7.38978e-258
-1.64988e-258
2.60536e-257
-4.75847e-258
8.12247e-257
-1.18034e-257
2.19118e-256
-2.43842e-257
5.00784e-256
-4.09295e-257
9.54365e-256
-5.53922e-257
1.50543e-255
-6.10536e-257
1.97135e-255
-5.59157e-257
2.16576e-255
-4.34576e-257
2.02321e-255
-2.91445e-257
1.62695e-255
-1.70557e-257
1.13643e-255
-8.77476e-258
6.93698e-256
-3.99747e-258
3.71747e-256
-1.63754e-258
1.75945e-256
-6.38119e-259
7.46623e-257
-2.41011e-259
2.45243e-257
-8.76262e-260
9.04872e-258
-3.0774e-260
3.20435e-258
-1.04807e-260
1.0932e-258
-3.47633e-261
3.60867e-259
-1.12791e-261
1.15801e-259
-3.59488e-262
3.62929e-260
-1.12996e-262
1.11584e-260
-3.51528e-263
3.37939e-261
-1.08587e-263
1.01191e-261
-3.34013e-264
3.0058e-262
-1.0257e-264
8.88336e-263
-3.15161e-265
2.61901e-263
-9.7087e-266
7.72058e-264
-3.0038e-266
2.28038e-264
-9.34836e-267
6.76079e-265
-2.93053e-267
2.01519e-265
-9.26456e-268
6.04749e-266
-2.95683e-268
1.82942e-266
-9.53566e-269
5.58475e-267
-3.10988e-269
1.72211e-267
-1.02637e-269
5.36838e-268
-3.4299e-270
1.69302e-268
-1.16114e-270
5.40483e-269
-3.98333e-271
1.7475e-269
-1.38436e-271
5.72418e-270
-4.85645e-272
1.89917e-270
-1.68014e-272
6.35945e-271
-4.94716e-273
2.09987e-271
5.90109e-272
-6.28373e-259
7.12465e-258
-2.91711e-258
3.55428e-257
-1.25884e-257
1.65375e-256
-5.02243e-257
7.11862e-256
-1.83925e-256
2.80308e-255
-6.10842e-256
9.94485e-255
-1.8017e-255
3.11887e-254
-4.5754e-255
8.46151e-254
-9.66591e-255
1.94489e-253
-1.65559e-254
3.72889e-253
-2.28026e-254
5.9204e-253
-2.54936e-254
7.80452e-253
-2.3592e-254
8.6281e-253
-1.84552e-254
8.10415e-253
-1.24158e-254
6.54594e-253
-7.27045e-255
4.58872e-253
-3.73682e-255
2.80925e-253
-1.6993e-255
1.5093e-253
-6.94644e-256
7.16072e-254
-2.6968e-256
3.04601e-254
-1.01653e-256
1.00138e-254
-3.69064e-257
3.70102e-255
-1.29497e-257
1.3132e-255
-4.40852e-258
4.48977e-256
-1.46236e-258
1.48555e-256
-4.74718e-259
4.7791e-257
-1.51444e-259
1.50185e-257
-4.76646e-260
4.63081e-258
-1.48526e-260
1.40673e-258
-4.59681e-261
4.22563e-259
-1.41705e-261
1.25933e-259
-4.36193e-262
3.73447e-260
-1.34371e-262
1.10483e-260
-4.15061e-263
3.26841e-261
-1.28781e-263
9.68812e-262
-4.01965e-264
2.88259e-262
-1.26386e-264
8.62295e-263
-4.00773e-265
2.59694e-263
-1.28302e-265
7.88381e-264
-4.15041e-266
2.41515e-264
-1.35773e-266
7.47303e-265
-4.49461e-267
2.33747e-265
-1.5065e-267
7.39607e-266
-5.11505e-268
2.36875e-266
-1.75979e-268
7.6827e-267
-6.13308e-269
2.52424e-267
-2.15727e-269
8.39964e-268
-7.48052e-270
2.82056e-268
-2.20574e-270
9.33663e-269
2.62815e-269
-2.20594e-256
2.61818e-255
-1.02862e-255
1.31295e-254
-4.46839e-255
6.14162e-254
-1.80004e-254
2.65757e-253
-6.67913e-254
1.05165e-252
-2.2543e-253
3.74793e-252
-6.7663e-253
1.18029e-251
-1.74801e-252
3.21544e-251
-3.7537e-252
7.42586e-251
-6.53255e-252
1.43206e-250
-9.13828e-252
2.28979e-250
-1.03643e-251
3.04221e-250
-9.70752e-252
3.38964e-250
-7.66406e-252
3.20655e-250
-5.18781e-252
2.60612e-250
-3.04889e-252
1.83622e-250
-1.56984e-252
1.12893e-250
-7.14297e-253
6.08777e-251
-2.91967e-253
2.89805e-251
-1.13128e-253
1.23675e-251
-4.26142e-254
4.07245e-252
-1.54665e-254
1.50866e-252
-5.42684e-255
5.36649e-253
-1.84811e-255
1.83962e-253
-6.13482e-256
6.10369e-254
-1.99367e-256
1.96933e-254
-6.36931e-257
6.20778e-255
-2.00816e-257
1.9203e-255
-6.27038e-258
5.85308e-256
-1.94512e-258
1.76434e-256
-6.01135e-259
5.27707e-257
-1.85544e-259
1.57066e-257
-5.73219e-260
4.66418e-258
-1.77597e-260
1.38505e-258
-5.52748e-261
4.12123e-259
-1.73081e-261
1.23093e-259
-5.45974e-262
3.69629e-260
-1.73699e-262
1.11744e-260
-5.57913e-263
3.40514e-261
-1.81075e-263
1.04703e-261
-5.94306e-264
3.25163e-262
-1.97379e-264
1.02074e-262
-6.63702e-265
3.24112e-263
-2.26059e-265
1.04161e-263
-7.80147e-266
3.38963e-264
-2.72713e-266
1.11733e-264
-9.62038e-267
3.72978e-265
-3.34452e-267
1.25622e-265
-9.87855e-268
4.16945e-266
1.17575e-266
-7.77542e-254
9.60519e-253
-3.64371e-253
4.83788e-252
-1.59405e-252
2.27278e-251
-6.483e-252
9.8741e-251
-2.43421e-251
3.92111e-250
-8.32364e-251
1.4016e-249
-2.53037e-250
4.42569e-249
-6.61466e-250
1.20922e-248
-1.43708e-249
2.80375e-248
-2.5328e-249
5.43739e-248
-3.59291e-249
8.75847e-248
-4.13305e-249
1.17376e-247
-3.92225e-249
1.31946e-247
-3.13118e-249
1.25877e-247
-2.13797e-249
1.03088e-247
-1.26412e-249
7.31204e-248
-6.5343e-250
4.52044e-248
-2.98118e-250
2.44893e-248
-1.22068e-250
1.17087e-248
-4.72848e-251
5.01705e-249
-1.78234e-251
1.65609e-249
-6.47384e-252
6.15366e-250
-2.2736e-252
2.19574e-250
-7.75157e-253
7.55081e-251
-2.57678e-253
2.51346e-251
-8.38823e-254
8.13697e-252
-2.6852e-254
2.57396e-252
-8.48533e-255
7.9912e-253
-2.65619e-255
2.44489e-253
-8.26232e-256
7.39834e-254
-2.56095e-256
2.22157e-254
-7.92908e-257
6.63888e-255
-2.45757e-257
1.97951e-255
-7.6397e-258
5.90242e-256
-2.38597e-258
1.76353e-256
-7.49741e-259
5.28909e-257
-2.37345e-259
1.59477e-257
-7.57812e-260
4.84094e-258
-2.44281e-260
1.48114e-258
-7.95686e-261
4.5725e-259
-2.62084e-261
1.42562e-259
-8.73505e-262
4.49252e-260
-2.94749e-262
1.43191e-260
-1.00738e-262
4.61879e-261
-3.48828e-263
1.50849e-261
-1.22343e-263
4.98999e-262
-4.32965e-264
1.67143e-262
-1.50953e-264
5.64796e-263
-4.4677e-265
1.88004e-263
5.31233e-264
-2.74903e-251
3.51399e-250
-1.29501e-250
1.77616e-249
-5.70571e-250
8.37188e-249
-2.34135e-249
3.64762e-248
-8.88074e-249
1.45182e-247
-3.06732e-248
5.19858e-247
-9.40744e-248
1.64406e-246
-2.47868e-247
4.50134e-246
-5.43057e-247
1.0473e-245
-9.67121e-247
2.04212e-245
-1.3895e-246
3.31437e-245
-1.62072e-246
4.48273e-245
-1.55923e-246
5.08813e-245
-1.26018e-246
4.90016e-245
-8.69334e-247
4.04827e-245
-5.18214e-247
2.89391e-245
-2.6947e-247
1.80143e-245
-1.23451e-247
9.81655e-246
-5.07185e-248
4.7168e-246
-1.96716e-248
2.03098e-246
-7.42881e-249
6.72619e-247
-2.70321e-249
2.50864e-247
-9.51097e-250
8.98477e-248
-3.24897e-250
3.10126e-248
-1.08233e-250
1.03623e-248
-3.53162e-251
3.36762e-249
-1.13345e-251
1.06951e-249
-3.59183e-252
3.33396e-250
-1.12777e-252
1.02428e-250
-3.5193e-253
3.11276e-251
-1.09452e-253
9.38756e-252
-3.40075e-254
2.81771e-252
-1.05788e-254
8.43883e-253
-3.3009e-255
2.5275e-253
-1.03485e-255
7.58546e-254
-3.2644e-256
2.28515e-254
-1.03745e-256
6.92086e-255
-3.32548e-257
2.1101e-255
-1.07619e-257
6.48429e-256
-3.51917e-258
2.01043e-256
-1.16367e-258
6.29478e-257
-3.8934e-259
1.99195e-257
-1.31877e-259
6.37499e-258
-4.52421e-260
2.06459e-258
-1.57243e-260
6.7694e-259
-5.53502e-261
2.24788e-259
-1.96572e-261
7.55761e-260
-6.87546e-262
2.56299e-260
-2.03974e-262
8.55896e-261
2.4242e-261
-9.72958e-249
1.27978e-247
-4.60739e-248
6.48622e-247
-2.04371e-247
3.06456e-246
-8.4534e-247
1.33772e-245
-3.23293e-246
5.33107e-245
-1.12484e-245
1.91039e-244
-3.47006e-245
6.04611e-244
-9.19021e-245
1.65783e-243
-2.02616e-244
3.86908e-243
-3.6406e-244
7.58444e-243
-5.29289e-244
1.2404e-242
-6.25771e-244
1.69371e-242
-6.10482e-244
1.94217e-242
-4.99873e-244
1.88966e-242
-3.48796e-244
1.57625e-242
-2.09901e-244
1.13671e-242
-1.09989e-244
7.1317e-243
-5.06812e-245
3.91376e-243
-2.09146e-245
1.89191e-243
-8.13346e-246
8.19038e-244
-3.08073e-246
2.72369e-244
-1.12417e-246
1.02037e-244
-3.96602e-247
3.67052e-245
-1.35852e-247
1.27244e-245
-4.53855e-248
4.27004e-246
-1.48539e-248
1.3938e-246
-4.78255e-249
4.44629e-247
-1.52069e-249
1.39236e-247
-4.79168e-250
4.29753e-248
-1.50086e-250
1.31216e-248
-4.6858e-251
3.97616e-249
-1.46172e-251
1.19921e-249
-4.56564e-252
3.60898e-250
-1.43056e-252
1.08618e-250
-4.5039e-253
3.27568e-251
-1.42683e-253
9.91605e-252
-4.55415e-254
3.0177e-252
-1.46612e-254
9.24478e-253
-4.76518e-255
2.85438e-253
-1.56495e-255
8.89144e-254
-5.19694e-256
2.79684e-254
-1.74618e-256
8.89077e-255
-5.93954e-257
2.85811e-255
-2.0461e-257
9.29689e-256
-7.14056e-258
3.06142e-256
-2.52365e-258
1.02089e-256
-8.99764e-259
3.44652e-257
-3.15837e-259
1.17346e-257
-9.39595e-260
3.9329e-258
1.11705e-258
-3.44105e-246
4.63268e-245
-1.63762e-245
2.35245e-244
-7.30861e-245
1.11317e-243
-3.04347e-244
4.86389e-243
-1.17136e-243
1.93912e-242
-4.09588e-243
6.94887e-242
-1.26795e-242
2.19952e-241
-3.36878e-242
6.03739e-241
-7.46268e-242
1.41301e-240
-1.35142e-241
2.78429e-240
-1.98664e-241
4.58866e-240
-2.38001e-241
6.32641e-240
-2.35463e-241
7.33192e-240
-1.95426e-241
7.21114e-240
-1.38035e-241
6.07766e-240
-8.39485e-242
4.42499e-240
-4.43797e-242
2.80053e-240
-2.06e-242
1.54902e-240
-8.54829e-243
7.54196e-241
-3.33703e-243
3.28491e-241
-1.26906e-243
1.09771e-241
-4.64817e-244
4.13358e-242
-1.6457e-244
1.49444e-242
-5.657e-245
5.20623e-243
-1.89665e-245
1.75568e-243
-6.23026e-246
5.75906e-244
-2.01363e-246
1.84633e-244
-6.42806e-247
5.81101e-245
-2.0338e-247
1.80277e-245
-6.39736e-248
5.53288e-246
-2.00602e-248
1.68536e-246
-6.28568e-249
5.1098e-247
-1.97226e-249
1.5459e-247
-6.2083e-250
4.67724e-248
-1.96373e-250
1.41801e-248
-6.25043e-251
4.31518e-249
-2.00446e-251
1.3201e-249
-6.48358e-252
4.06516e-250
-2.11728e-252
1.26161e-250
-6.98629e-253
3.94992e-251
-2.33092e-253
1.24871e-251
-7.86841e-254
3.98914e-252
-2.68875e-254
1.28864e-252
-9.30467e-255
4.21182e-253
-3.26184e-255
1.39348e-253
-1.15794e-255
4.66836e-254
-4.14628e-256
1.5832e-254
-1.46127e-256
5.41409e-255
-4.36125e-257
1.82191e-255
5.19162e-256
-1.20355e-243
1.65057e-242
-5.7513e-243
8.3879e-242
-2.57919e-242
3.97034e-241
-1.0793e-241
1.73434e-240
-4.17054e-241
6.90863e-240
-1.46175e-240
2.47291e-239
-4.52957e-240
7.82046e-239
-1.20471e-239
2.14692e-238
-2.67673e-239
5.03475e-238
-4.87784e-239
9.96472e-238
-7.24034e-239
1.65369e-237
-8.77969e-239
2.30052e-237
-8.80179e-239
2.6933e-237
-7.40134e-239
2.67684e-237
-5.2914e-239
2.27916e-237
-3.25278e-239
1.6753e-237
-1.73571e-239
1.06966e-237
-8.1218e-240
5.96498e-238
-3.39303e-240
2.92642e-238
-1.33068e-240
1.28348e-238
-5.08595e-241
4.3119e-239
-1.87169e-241
1.63331e-239
-6.65726e-242
5.93938e-240
-2.29882e-242
2.08106e-240
-7.74281e-243
7.05838e-241
-2.55537e-243
2.32878e-241
-8.29881e-244
7.50989e-242
-2.66232e-244
2.37768e-242
-8.46614e-245
7.42072e-243
-2.67685e-245
2.29133e-243
-8.43817e-246
7.02222e-244
-2.65822e-246
2.14211e-244
-8.38607e-247
6.5205e-245
-2.65427e-247
1.98495e-245
-8.44205e-248
6.05466e-246
-2.70195e-248
1.85373e-246
-8.71302e-249
5.70523e-247
-2.83393e-249
1.76743e-247
-9.30565e-250
5.51771e-248
-3.08741e-250
1.73766e-248
-1.03571e-250
5.52518e-249
-3.51513e-251
1.77516e-249
-1.2076e-251
5.76668e-250
-4.20116e-252
1.89522e-250
-1.48047e-252
6.30448e-251
-5.28274e-253
2.12342e-251
-1.90113e-253
7.23908e-252
-6.73155e-254
2.48817e-252
-2.01695e-254
8.4127e-253
2.40671e-253
-2.50986e-241
3.54619e-240
-1.1834e-240
1.77323e-239
-5.23445e-240
8.24931e-239
-2.15816e-239
3.53716e-238
-8.2009e-239
1.38142e-237
-2.82008e-238
4.84363e-237
-8.559e-238
1.50006e-236
-2.22938e-237
4.03501e-236
-4.85999e-237
9.28494e-236
-8.71714e-237
1.80689e-235
-1.27804e-236
2.95525e-235
-1.5354e-236
4.0602e-235
-1.52835e-236
4.70251e-235
-1.27796e-236
4.62985e-235
-9.09613e-237
3.90965e-235
-5.57469e-237
2.85421e-235
-2.97107e-237
1.81338e-235
-1.39161e-237
1.0087e-235
-5.83398e-238
4.95049e-236
-2.29912e-238
2.1787e-236
-8.85547e-239
7.35857e-237
-3.29065e-239
2.81086e-237
-1.18383e-239
1.03299e-237
-4.14084e-240
3.66454e-238
-1.41458e-240
1.26035e-238
-4.74025e-241
4.22213e-239
-1.56448e-241
1.38394e-239
-5.10432e-242
4.45754e-240
-1.65173e-242
1.41625e-240
-5.31676e-243
4.45413e-241
-1.7068e-243
1.3909e-241
-5.47692e-244
4.32439e-242
-1.76024e-244
1.34182e-242
-5.67614e-245
4.1641e-243
-1.83927e-245
1.29485e-243
-5.99698e-246
4.04111e-244
-1.96983e-246
1.26764e-244
-6.52505e-247
4.00182e-245
-2.18166e-247
1.27284e-245
-7.36848e-248
4.0829e-246
-2.51566e-248
1.32196e-246
-8.68682e-249
4.32358e-247
-3.03542e-249
1.42932e-247
-1.07375e-249
4.77877e-248
-3.84617e-250
1.61662e-248
-1.39447e-250
5.53527e-249
-5.09574e-251
1.91755e-249
-1.82955e-251
6.69297e-250
-5.54127e-252
2.2947e-250
6.63611e-251
-2.80763e-239
4.06495e-238
-1.30687e-238
2.00047e-237
-5.70513e-238
9.15231e-237
-2.31929e-237
3.85626e-236
-8.67552e-237
1.47892e-235
-2.93144e-236
5.09045e-235
-8.73357e-236
1.54804e-234
-2.2344e-235
4.09325e-234
-4.79545e-235
9.27574e-234
-8.49764e-235
1.78188e-233
-1.23538e-234
2.88419e-233
-1.47627e-234
3.93052e-233
-1.4649e-234
4.52356e-233
-1.22273e-234
4.43119e-233
-8.69572e-235
3.72667e-233
-5.3297e-235
2.71228e-233
-2.84416e-235
1.72015e-233
-1.33595e-235
9.56814e-234
-5.62666e-236
4.70567e-234
-2.22973e-236
2.0802e-234
-8.65136e-237
7.06691e-235
-3.2434e-237
2.72073e-235
-1.17864e-237
1.0095e-235
-4.16882e-238
3.62054e-236
-1.4414e-238
1.26034e-236
-4.89244e-239
4.27747e-237
-1.63658e-239
1.42157e-237
-5.41472e-240
4.64522e-238
-1.77757e-240
1.49805e-238
-5.80659e-241
4.78384e-239
-1.89213e-241
1.51725e-239
-6.16414e-242
4.79194e-240
-2.01154e-242
1.51062e-240
-6.58658e-243
4.76305e-241
-2.16728e-243
1.50483e-241
-7.17567e-244
4.77159e-242
-2.39333e-244
1.52063e-242
-8.04958e-245
4.87653e-243
-2.73246e-245
1.57544e-243
-9.36869e-246
5.13237e-244
-3.24663e-246
1.68741e-244
-1.13779e-246
5.60317e-245
-4.03441e-247
1.88031e-245
-1.44796e-247
6.38044e-246
-5.26135e-248
2.19026e-246
-1.93463e-248
7.60837e-247
-7.16671e-249
2.67335e-247
-2.60556e-249
9.45974e-248
-7.97104e-250
3.28436e-248
9.59405e-249
-2.03298e-237
2.99955e-236
-9.34962e-237
1.45405e-235
-4.03131e-236
6.54911e-235
-1.61709e-235
2.71511e-234
-5.95989e-235
1.02417e-233
-1.98145e-234
3.46737e-233
-5.80559e-234
1.03778e-232
-1.4623e-233
2.70436e-232
-3.098e-233
6.05228e-232
-5.43896e-233
1.15116e-231
-7.86388e-233
1.84987e-231
-9.37608e-233
2.50889e-231
-9.30382e-233
2.87911e-231
-7.77643e-233
2.81595e-231
-5.54249e-233
2.36675e-231
-3.40663e-233
1.72281e-231
-1.82441e-233
1.09379e-231
-8.60864e-234
6.09791e-232
-3.64644e-234
3.01031e-232
-1.45398e-234
1.33796e-232
-5.68209e-235
4.57434e-233
-2.14781e-235
1.77453e-233
-7.87578e-236
6.64269e-234
-2.81295e-236
2.40582e-234
-9.8276e-237
8.46413e-235
-3.37244e-237
2.90527e-235
-1.1411e-237
9.77059e-236
-3.82029e-238
3.23234e-236
-1.26948e-238
1.05573e-236
-4.19876e-239
3.41548e-237
-1.38562e-239
1.09768e-237
-4.5723e-240
3.51354e-238
-1.51154e-240
1.12268e-238
-5.01443e-241
3.58828e-239
-1.67178e-241
1.14924e-239
-5.60853e-242
3.69414e-240
-1.89548e-242
1.19343e-240
-6.45983e-243
3.87969e-241
-2.2219e-243
1.27051e-241
-7.71892e-244
4.19523e-242
-2.71016e-244
1.39794e-242
-9.62234e-245
4.70422e-243
-3.45637e-245
1.59967e-243
-1.25656e-245
5.4998e-244
-4.62449e-246
1.91266e-244
-1.72201e-246
6.73011e-245
-6.45779e-247
2.39494e-245
-2.3747e-247
8.5797e-246
-7.33333e-248
3.01304e-246
8.88488e-247
-1.07347e-235
1.60663e-234
-4.87908e-235
7.67534e-234
-2.07814e-234
3.40541e-233
-8.22654e-234
1.39021e-232
-2.98819e-233
5.16288e-232
-9.78087e-233
1.72125e-231
-2.82123e-232
5.07733e-231
-7.00552e-232
1.30601e-230
-1.46736e-231
2.89144e-230
-2.55647e-231
5.455e-230
-3.68221e-231
8.71897e-230
-4.38805e-231
1.17916e-229
-4.36224e-231
1.35209e-229
-3.65809e-231
1.32325e-229
-2.61795e-231
1.11392e-229
-1.61656e-231
8.12717e-230
-8.70211e-232
5.1755e-230
-4.13e-232
2.89668e-230
-1.76084e-232
1.43716e-230
-7.06854e-233
6.42738e-231
-2.78257e-233
2.21248e-231
-1.06018e-233
8.64876e-232
-3.92058e-234
3.26511e-232
-1.4129e-234
1.19341e-232
-4.98309e-235
4.23984e-233
-1.72696e-235
1.47035e-233
-5.90352e-236
4.99826e-234
-1.99748e-236
1.67203e-234
-6.71018e-237
5.52388e-235
-2.24418e-237
1.80808e-235
-7.49033e-238
5.88036e-236
-2.50029e-238
1.90507e-236
-8.36254e-239
6.16188e-237
-2.80709e-239
1.99378e-237
-9.47047e-240
6.46492e-238
-3.21537e-240
2.10401e-238
-1.0998e-240
6.88212e-239
-3.79351e-241
2.26523e-239
-1.32061e-241
7.51069e-240
-4.64339e-242
2.51089e-240
-1.65003e-242
8.4705e-241
-5.92901e-243
2.88559e-241
-2.15529e-243
9.93275e-242
-7.92914e-244
3.45658e-242
-2.95279e-244
1.21663e-242
-1.11244e-244
4.33228e-243
-4.21965e-245
1.55991e-243
-1.56834e-245
5.65271e-244
-4.88763e-246
2.00656e-244
5.97144e-245
-4.44572e-234
6.72302e-233
-1.99694e-233
3.16614e-232
-8.401e-233
1.38432e-231
-3.28155e-232
5.56763e-231
-1.17483e-231
2.03702e-230
-3.78724e-231
6.69315e-230
-1.07615e-230
1.94773e-229
-2.63686e-230
4.95067e-229
-5.46617e-230
1.08553e-228
-9.46046e-230
2.03379e-228
-1.35888e-229
3.2372e-228
-1.6203e-229
4.37121e-228
-1.61559e-229
5.01513e-228
-1.36096e-229
4.91837e-228
-9.79263e-230
4.15321e-228
-6.08273e-230
3.04184e-228
-3.2951e-230
1.94578e-228
-1.57442e-230
1.09468e-228
-6.76128e-231
5.46387e-229
-2.73389e-231
2.46051e-229
-1.08433e-231
8.53184e-230
-4.16393e-232
3.36139e-230
-1.55249e-232
1.27965e-230
-5.64282e-233
4.71872e-231
-2.0079e-233
1.69206e-231
-7.02314e-234
5.92515e-232
-2.42383e-234
2.03455e-232
-8.28204e-235
6.87704e-233
-2.81039e-235
2.2963e-233
-9.49654e-236
7.59846e-234
-3.20312e-236
2.49874e-234
-1.0807e-236
8.18664e-235
-3.65393e-237
2.67819e-235
-1.24006e-237
8.76564e-236
-4.23029e-238
2.8753e-236
-1.45238e-238
9.46681e-237
-5.02389e-239
3.13279e-237
-1.75253e-239
1.04324e-237
-6.17036e-240
3.49953e-238
-2.19425e-240
1.18361e-238
-7.88598e-241
4.03955e-239
-2.86583e-241
1.39213e-239
-1.05358e-241
4.84744e-240
-3.91975e-242
1.70631e-240
-1.47608e-242
6.07445e-241
-5.62286e-243
2.18759e-241
-2.15607e-243
7.96512e-242
-8.09624e-244
2.91801e-242
-2.54615e-244
1.04656e-242
3.14306e-243
-1.51495e-232
2.30695e-231
-6.72418e-232
1.07124e-230
-2.79355e-231
4.61705e-230
-1.07659e-230
1.83024e-229
-3.79903e-230
6.6007e-229
-1.20652e-229
2.139e-228
-3.37934e-229
6.14568e-228
-8.17711e-229
1.54497e-227
-1.67905e-228
3.35831e-227
-2.88921e-228
6.2543e-227
-4.14188e-228
9.92328e-227
-4.94556e-228
1.3392e-226
-4.9503e-228
1.53899e-226
-4.19305e-228
1.51419e-226
-3.03655e-228
1.28417e-226
-1.89934e-228
9.45336e-227
-1.03641e-228
6.08155e-227
-4.98973e-229
3.44294e-227
-2.15973e-229
1.73039e-227
-8.80083e-230
7.85158e-228
-3.518e-230
2.74397e-228
-1.36165e-230
1.08989e-228
-5.11792e-231
4.18409e-229
-1.8757e-231
1.55638e-229
-6.73161e-232
5.63158e-230
-2.37536e-232
1.99054e-230
-8.27238e-233
6.9012e-231
-2.85299e-233
2.35588e-231
-9.77374e-234
7.94648e-232
-3.33489e-234
2.65677e-232
-1.13604e-234
8.8289e-233
-3.8717e-235
2.92355e-233
-1.32251e-235
9.66765e-234
-4.53506e-236
3.19875e-234
-1.56336e-236
1.0608e-234
-5.42445e-237
3.53128e-235
-1.89644e-237
1.18156e-235
-6.68665e-238
3.97847e-236
-2.37967e-238
1.34945e-236
-8.55388e-239
4.61494e-237
-3.10749e-239
1.59254e-237
-1.14151e-239
5.54913e-238
-4.24189e-240
1.95357e-238
-1.59517e-240
6.95224e-239
-6.07148e-241
2.50205e-239
-2.33746e-241
9.10853e-240
-9.05681e-242
3.35215e-240
-3.43508e-242
1.24103e-240
-1.09024e-242
4.496e-241
1.36277e-241
-4.39458e-231
6.71832e-230
-1.92723e-230
3.07681e-229
-7.90593e-230
1.30769e-228
-3.00594e-229
5.11164e-228
-1.04569e-228
1.81827e-227
-3.27319e-228
5.81544e-227
-9.04308e-228
1.65108e-226
-2.16272e-227
4.10892e-226
-4.40269e-227
8.86257e-226
-7.53856e-227
1.6422e-225
-1.07946e-226
2.59973e-225
-1.29177e-226
3.50992e-225
-1.29914e-226
4.04441e-225
-1.10751e-226
3.99656e-225
-8.08042e-227
3.40821e-225
-5.09476e-227
2.52484e-225
-2.80311e-227
1.63552e-225
-1.36097e-227
9.32771e-226
-5.94134e-228
4.72501e-226
-2.44134e-228
2.16187e-226
-9.83907e-229
7.61941e-227
-3.83893e-229
3.05228e-227
-1.45457e-229
1.18182e-227
-5.37459e-230
4.43451e-228
-1.94493e-230
1.61892e-228
-6.92138e-231
5.77462e-229
-2.43137e-231
2.02079e-229
-8.45979e-232
6.96431e-230
-2.92441e-232
2.37195e-230
-1.00705e-232
8.00866e-231
-3.46282e-233
2.68813e-231
-1.19144e-233
8.99177e-232
-4.10925e-234
3.00396e-232
-1.42296e-234
1.00422e-232
-4.9541e-235
3.36506e-233
-1.7362e-235
1.13195e-233
-6.13133e-236
3.82744e-234
-2.18387e-236
1.30237e-234
-7.85156e-237
4.46426e-235
-2.85129e-237
1.5429e-235
-1.04649e-237
5.38066e-236
-3.88383e-238
1.89469e-236
-1.45814e-238
6.74063e-237
-5.53987e-239
2.42405e-237
-2.13027e-239
8.81542e-238
-8.28537e-240
3.24268e-238
-3.24283e-240
1.20576e-238
-1.24206e-240
4.50961e-239
-3.97911e-241
1.64996e-239
5.04838e-240
-1.11358e-229
1.70434e-228
-4.82535e-229
7.70111e-228
-1.95473e-228
3.22918e-227
-7.334e-228
1.24546e-226
-2.51625e-227
4.37298e-226
-7.76834e-227
1.38164e-225
-2.11895e-226
3.8801e-225
-5.01401e-226
9.56947e-225
-1.01306e-225
2.05042e-224
-1.72796e-225
3.78459e-224
-2.47403e-225
5.98485e-224
-2.97032e-225
8.09309e-224
-3.00474e-225
9.3623e-224
-2.58107e-225
9.30426e-224
-1.89954e-225
7.98964e-224
-1.20876e-225
5.96487e-224
-6.71352e-226
3.89611e-224
-3.29058e-226
2.24142e-224
-1.45007e-226
1.14568e-224
-6.01237e-227
5.29059e-225
-2.44418e-227
1.88186e-225
-9.61557e-228
7.60703e-226
-3.673e-228
2.97143e-226
-1.36814e-228
1.1248e-226
-4.99109e-229
4.1428e-227
-1.79068e-229
1.49095e-227
-6.3424e-230
5.26474e-228
-2.2253e-230
1.83103e-228
-7.75792e-231
6.29405e-229
-2.69461e-231
2.14505e-229
-9.34683e-232
7.26808e-230
-3.24453e-232
2.45441e-230
-1.12913e-232
8.2787e-231
-3.94569e-233
2.79445e-231
-1.3864e-233
9.45545e-232
-4.90411e-234
3.21192e-232
-1.74819e-234
1.09676e-232
-6.28589e-235
3.76892e-233
-2.28156e-235
1.30474e-233
-8.36522e-236
4.55419e-234
-3.09994e-236
1.60404e-234
-1.16165e-236
5.70461e-235
-4.4038e-237
2.04973e-235
-1.68949e-237
7.4447e-236
-6.56034e-238
2.73437e-236
-2.57657e-238
1.01583e-236
-1.01831e-238
3.81481e-237
-3.938e-239
1.44087e-237
-1.27367e-239
5.32319e-238
1.64444e-238
-2.51746e-228
3.847e-227
-1.0782e-227
1.71607e-226
-4.31493e-227
7.10452e-226
-1.5985e-226
2.70613e-225
-5.41355e-226
9.38875e-225
-1.65024e-225
2.93393e-224
-4.45015e-225
8.16126e-224
-1.04344e-224
1.99767e-223
-2.09568e-224
4.25862e-223
-3.56639e-224
7.84225e-223
-5.11347e-224
1.24084e-222
-6.16896e-224
1.6834e-222
-6.28702e-224
1.9585e-222
-5.45077e-224
1.96101e-222
-4.05324e-224
1.69882e-222
-2.60746e-224
1.2806e-222
-1.46422e-224
8.4499e-223
-7.25491e-225
4.91211e-223
-3.2309e-225
2.53724e-223
-1.35296e-225
1.18402e-223
-5.55122e-226
4.25463e-224
-2.20273e-226
1.73658e-224
-8.48353e-227
6.84602e-225
-3.18528e-227
2.6148e-225
-1.17114e-227
9.71579e-226
-4.23443e-228
3.52722e-226
-1.5114e-228
1.25634e-226
-5.34396e-229
4.40738e-227
-1.87754e-229
1.52816e-227
-6.5725e-230
5.25336e-228
-2.29786e-230
1.79552e-228
-8.04026e-231
6.1165e-229
-2.82072e-231
2.08122e-229
-9.93753e-232
7.08708e-230
-3.52066e-232
2.41928e-230
-1.25579e-232
8.29122e-231
-4.51449e-233
2.85648e-231
-1.63714e-233
9.90424e-232
-5.99366e-234
3.45961e-232
-2.21673e-234
1.21851e-232
-8.28709e-235
4.33079e-233
-3.13308e-235
1.55427e-233
-1.19841e-235
5.63592e-234
-4.63924e-236
2.06585e-234
-1.81788e-236
7.65794e-235
-7.20548e-237
2.87145e-235
-2.87416e-237
1.08842e-235
-1.12191e-237
4.14962e-236
-3.66391e-238
1.54756e-236
4.82757e-237
-5.17238e-227
7.86984e-226
-2.19122e-226
3.46911e-225
-8.67121e-226
1.41966e-224
-3.17548e-225
5.34768e-224
-1.06308e-224
1.8362e-223
-3.20541e-224
5.68535e-223
-8.5628e-224
1.56953e-222
-1.99381e-223
3.8209e-222
-3.98966e-223
8.12193e-222
-6.78965e-223
1.49562e-221
-9.77134e-223
2.37335e-221
-1.18732e-222
3.23816e-221
-1.22197e-222
3.79835e-221
-1.07186e-222
3.84177e-221
-8.0726e-223
3.36633e-221
-5.26199e-223
2.56884e-221
-2.99388e-223
1.71658e-221
-1.50235e-223
1.01063e-221
-6.7711e-224
5.28578e-222
-2.86742e-224
2.49652e-222
-1.18823e-224
9.07549e-223
-4.75774e-225
3.74311e-223
-1.84782e-225
1.49005e-223
-6.99289e-226
5.74374e-224
-2.59047e-226
2.15303e-224
-9.43409e-227
7.8828e-225
-3.39102e-227
2.8309e-225
-1.20726e-227
1.00111e-225
-4.27042e-228
3.49854e-226
-1.505e-228
1.21205e-226
-5.29717e-229
4.17451e-227
-1.86601e-229
1.43292e-227
-6.59085e-230
4.91276e-228
-2.33789e-230
1.68561e-228
-8.33997e-231
5.79769e-229
-2.99564e-231
2.00204e-229
-1.08456e-231
6.94999e-230
-3.96146e-232
2.42823e-230
-1.46093e-232
8.54736e-231
-5.44344e-233
3.03388e-231
-2.0504e-233
1.08674e-231
-7.81162e-234
3.93108e-232
-3.01139e-234
1.43686e-232
-1.17507e-234
5.30951e-233
-4.64198e-235
1.98435e-233
-1.8552e-235
7.50257e-234
-7.46307e-236
2.8679e-234
-2.93893e-236
1.10284e-234
-9.69125e-237
4.14972e-235
1.30719e-235
-9.82982e-226
1.48452e-224
-4.12489e-225
6.4766e-224
-1.61676e-224
2.62454e-223
-5.8643e-224
9.79698e-223
-1.94516e-223
3.33691e-222
-5.81661e-223
1.02633e-221
-1.54374e-222
2.81975e-221
-3.58073e-222
6.84749e-221
-7.16181e-222
1.4559e-220
-1.22284e-221
2.68963e-220
-1.77225e-221
4.29485e-220
-2.17615e-221
5.91328e-220
-2.26919e-221
7.01759e-220
-2.02027e-221
7.19468e-220
-1.54587e-221
6.39863e-220
-1.024e-221
4.95936e-220
-5.91844e-222
3.36659e-220
-3.01457e-222
2.01295e-220
-1.37762e-222
1.06859e-220
-5.90732e-223
5.1185e-221
-2.47454e-223
1.88506e-221
-1.00039e-223
7.86419e-222
-3.919e-224
3.16325e-222
-1.49473e-224
1.23101e-222
-5.57691e-225
4.65523e-223
-2.04452e-225
1.71844e-223
-7.39455e-226
6.21906e-224
-2.64805e-226
2.21537e-224
-9.4194e-227
7.79589e-225
-3.33756e-227
2.71886e-225
-1.18091e-227
9.42446e-226
-4.18144e-228
3.25518e-226
-1.48448e-228
1.12284e-226
-5.29263e-229
3.87563e-227
-1.89776e-229
1.34092e-227
-6.85202e-230
4.65768e-228
-2.49387e-230
1.62639e-228
-9.15823e-231
5.7159e-229
-3.3961e-231
2.02396e-229
-1.27258e-231
7.22725e-230
-4.82149e-232
2.60464e-230
-1.84797e-232
9.48049e-231
-7.16835e-233
3.48729e-231
-2.81519e-233
1.29703e-231
-1.11954e-233
4.87993e-232
-4.50539e-234
1.85775e-232
-1.82566e-234
7.15191e-233
-7.24653e-235
2.7707e-233
-2.41224e-235
1.05096e-233
3.34227e-234
-1.75888e-224
2.62695e-223
-7.32765e-224
1.1369e-222
-2.85208e-223
4.5741e-222
-1.02766e-222
1.69696e-221
-3.38851e-222
5.75207e-221
-1.00858e-221
1.76361e-220
-2.6699e-221
4.84037e-220
-6.19463e-221
1.1772e-219
-1.24364e-220
2.5139e-219
-2.13945e-220
4.67889e-219
-3.13556e-220
7.55027e-219
-3.90639e-220
1.0535e-218
-4.14322e-220
1.2702e-218
-3.75785e-220
1.32543e-218
-2.93138e-220
1.20107e-218
-1.97936e-220
9.48941e-219
-1.16524e-220
6.56541e-219
-6.03791e-221
3.99809e-219
-2.80264e-221
2.1594e-219
-1.21845e-221
1.05099e-219
-5.16422e-222
3.92683e-220
-2.10917e-222
1.65878e-220
-8.33638e-223
6.74661e-221
-3.20445e-223
2.65166e-221
-1.20384e-223
1.01172e-221
-4.44031e-224
3.76483e-222
-1.61471e-224
1.37246e-222
-5.81073e-225
4.92159e-223
-2.07611e-225
1.74247e-223
-7.38614e-226
6.11104e-224
-2.62323e-226
2.12928e-224
-9.32126e-227
7.39007e-225
-3.32032e-227
2.56072e-225
-1.18765e-227
8.87684e-226
-4.27212e-228
3.08401e-226
-1.54741e-228
1.07553e-226
-5.65014e-229
3.77036e-227
-2.08175e-229
1.33026e-227
-7.74607e-230
4.72878e-228
-2.91294e-230
1.69527e-228
-1.10779e-230
6.13437e-229
-4.26273e-231
2.24214e-229
-1.66047e-231
8.28316e-230
-6.55019e-232
3.09469e-230
-2.61727e-232
1.16986e-230
-1.05866e-232
4.47578e-231
-4.31403e-233
1.73222e-231
-1.72369e-233
6.74957e-232
-5.78907e-234
2.57746e-232
8.27077e-233
-3.01799e-223
4.43819e-222
-1.25229e-222
1.91149e-221
-4.85739e-222
7.66229e-221
-1.74539e-221
2.83608e-220
-5.7452e-221
9.60651e-220
-1.70978e-220