/*--------------------------------*- C++ -*----------------------------------*\
  =========                 |
  \\      /  F ield         | OpenFOAM: The Open Source CFD Toolbox
   \\    /   O peration     | Website:  https://openfoam.org
    \\  /    A nd           | Version:  9
     \\/     M anipulation  |
\*---------------------------------------------------------------------------*/
FoamFile
{
    format      ascii;
    class       volScalarField;
    location    "0.04";
    object      p;
}
// * * * * * * * * * * * * * * * * * * * * * * * * * * * * * * * * * * * * * //

dimensions      [1 -1 -2 0 0 0 0];

internalField   nonuniform List<scalar> 
5000
(
0.819941
0.816092
0.811837
0.807132
0.80203
0.796781
0.791933
0.78836
0.78706
0.788701
0.793213
0.799752
0.80717
0.814525
0.821281
0.82724
0.832397
0.83683
0.84063
0.843882
0.8464
0.848306
0.849879
0.851187
0.85228
0.853197
0.853968
0.854615
0.855158
0.855614
0.855996
0.856315
0.856582
0.856804
0.856988
0.857142
0.857269
0.857374
0.857461
0.857534
0.857593
0.857643
0.857684
0.857719
0.857748
0.857773
0.857795
0.857815
0.857834
0.857856
0.820469
0.816999
0.813256
0.809266
0.80514
0.80112
0.797625
0.795222
0.794499
0.795826
0.799157
0.804015
0.809711
0.815616
0.821292
0.826504
0.831163
0.835264
0.83884
0.841935
0.844354
0.84621
0.847757
0.849052
0.850137
0.851049
0.851817
0.852463
0.853008
0.853466
0.853852
0.854176
0.854449
0.854678
0.854871
0.855033
0.855169
0.855284
0.85538
0.855462
0.855532
0.855592
0.855643
0.855689
0.855729
0.855765
0.855798
0.855829
0.855859
0.85589
0.820593
0.817437
0.814094
0.81062
0.807133
0.803852
0.801108
0.799314
0.79888
0.800048
0.802785
0.806761
0.811489
0.816499
0.821437
0.826082
0.830323
0.834119
0.837474
0.840405
0.842715
0.844499
0.845996
0.847253
0.84831
0.8492
0.849949
0.850581
0.851113
0.851561
0.851938
0.852255
0.852522
0.852747
0.852936
0.853095
0.853228
0.853341
0.853437
0.853517
0.853587
0.853646
0.853697
0.853742
0.853782
0.853817
0.853849
0.853879
0.853906
0.853933
0.820782
0.817923
0.814944
0.811907
0.80893
0.8062
0.803985
0.8026
0.802347
0.803398
0.805724
0.809082
0.813106
0.817431
0.821765
0.825912
0.829758
0.833249
0.836368
0.839119
0.841302
0.842996
0.844425
0.845628
0.846642
0.847496
0.848215
0.848821
0.849331
0.84976
0.850121
0.850423
0.850677
0.85089
0.851068
0.851218
0.851343
0.851448
0.851537
0.851611
0.851674
0.851728
0.851774
0.851813
0.851848
0.851878
0.851905
0.851929
0.851951
0.851974
0.821184
0.818622
0.815996
0.813373
0.810861
0.808622
0.806866
0.805826
0.805715
0.806648
0.808602
0.811405
0.814794
0.818491
0.82226
0.825928
0.829382
0.83256
0.83543
0.837983
0.840023
0.841615
0.842962
0.8441
0.84506
0.845869
0.84655
0.847123
0.847604
0.848008
0.848346
0.848629
0.848865
0.849063
0.849227
0.849364
0.849477
0.849572
0.84965
0.849716
0.84977
0.849816
0.849855
0.849887
0.849915
0.84994
0.849961
0.84998
0.849997
0.850014
0.821705
0.819431
0.817136
0.814889
0.812789
0.810971
0.809595
0.808833
0.808827
0.809654
0.811294
0.813627
0.816469
0.819613
0.82287
0.826091
0.829169
0.832035
0.834652
0.836999
0.838885
0.840365
0.841622
0.842684
0.843581
0.844337
0.844972
0.845505
0.845951
0.846324
0.846634
0.846892
0.847106
0.847283
0.847429
0.847549
0.847647
0.847728
0.847793
0.847847
0.84789
0.847925
0.847954
0.847977
0.847996
0.848012
0.848026
0.848037
0.848047
0.848056
0.822255
0.820246
0.818248
0.816328
0.814571
0.813089
0.812006
0.811447
0.811513
0.812252
0.81365
0.815619
0.818025
0.820713
0.823532
0.826356
0.829087
0.831659
0.834028
0.836167
0.837896
0.839257
0.840414
0.841394
0.84222
0.842915
0.843497
0.843983
0.844388
0.844723
0.845
0.845227
0.845414
0.845565
0.845688
0.845786
0.845865
0.845927
0.845975
0.846012
0.84604
0.846061
0.846076
0.846086
0.846093
0.846097
0.8461
0.8461
0.8461
0.846099
0.822812
0.821043
0.819309
0.817667
0.816194
0.81498
0.814121
0.813711
0.813823
0.814491
0.815699
0.817385
0.819445
0.82176
0.824209
0.826686
0.829104
0.831401
0.833531
0.835467
0.837036
0.838274
0.839327
0.840218
0.840967
0.841595
0.842118
0.842551
0.842908
0.8432
0.843438
0.84363
0.843783
0.843904
0.843999
0.844071
0.844125
0.844164
0.844191
0.844208
0.844217
0.84422
0.844218
0.844212
0.844203
0.844193
0.844181
0.844169
0.844155
0.844143
0.823379
0.821831
0.820331
0.818932
0.817698
0.816703
0.816024
0.815729
0.815873
0.816478
0.817532
0.818986
0.82076
0.822761
0.824892
0.827062
0.829196
0.831236
0.83314
0.834876
0.836286
0.837399
0.838345
0.839142
0.83981
0.840365
0.840823
0.841198
0.841502
0.841746
0.84194
0.842091
0.842207
0.842294
0.842356
0.842398
0.842423
0.842436
0.842437
0.842431
0.842417
0.842399
0.842377
0.842352
0.842326
0.842298
0.84227
0.842242
0.842214
0.842188
0.823955
0.822608
0.821318
0.820132
0.819104
0.818294
0.817761
0.817559
0.817726
0.818277
0.819201
0.820459
0.821992
0.823723
0.825575
0.827472
0.829348
0.83115
0.832837
0.83438
0.835633
0.83662
0.837456
0.838157
0.838739
0.839217
0.839606
0.839919
0.840166
0.840358
0.840503
0.84061
0.840684
0.840732
0.840757
0.840765
0.840759
0.840741
0.840714
0.84068
0.840641
0.840599
0.840554
0.840507
0.84046
0.840413
0.840367
0.840321
0.840275
0.840233
0.82453
0.823366
0.822264
0.821265
0.820414
0.81976
0.819348
0.81922
0.819403
0.819907
0.820721
0.821816
0.823144
0.824644
0.826252
0.827905
0.829546
0.831127
0.832611
0.833967
0.835066
0.835928
0.836653
0.837255
0.837749
0.838147
0.838464
0.83871
0.838896
0.839032
0.839125
0.839183
0.839212
0.839217
0.839202
0.839173
0.83913
0.839079
0.83902
0.838956
0.838889
0.838819
0.838748
0.838677
0.838607
0.838538
0.83847
0.838404
0.83834
0.83828
0.825094
0.824098
0.823165
0.82233
0.821631
0.821108
0.820797
0.820728
0.820922
0.821385
0.822108
0.823065
0.824219
0.82552
0.826915
0.828352
0.82978
0.831158
0.832449
0.833627
0.834575
0.835313
0.835928
0.83643
0.836833
0.837149
0.83739
0.837567
0.837689
0.837765
0.837802
0.837808
0.837788
0.837747
0.837689
0.837618
0.837537
0.837448
0.837354
0.837257
0.837158
0.837059
0.83696
0.836862
0.836766
0.836672
0.836581
0.836493
0.836408
0.836327
0.825645
0.824802
0.82402
0.82333
0.822763
0.822352
0.822125
0.822105
0.822307
0.822735
0.823379
0.82422
0.825225
0.826354
0.827563
0.828807
0.830042
0.831232
0.832343
0.83335
0.834152
0.834769
0.835272
0.835674
0.835985
0.836217
0.83638
0.836485
0.83654
0.836553
0.836532
0.836482
0.83641
0.83632
0.836215
0.8361
0.835976
0.835848
0.835716
0.835583
0.83545
0.835318
0.835188
0.83506
0.834936
0.834816
0.8347
0.834587
0.834478
0.834376
0.826181
0.825477
0.824831
0.82427
0.82382
0.823505
0.82335
0.823371
0.823579
0.823976
0.824554
0.825295
0.826172
0.827151
0.828196
0.829267
0.830328
0.831343
0.832285
0.83313
0.833791
0.834288
0.834682
0.834983
0.835201
0.835347
0.83543
0.835461
0.835446
0.835394
0.835311
0.835203
0.835076
0.834933
0.834779
0.834616
0.834448
0.834277
0.834105
0.833933
0.833763
0.833596
0.833432
0.833273
0.833119
0.832969
0.832825
0.832686
0.832552
0.832425
0.8267
0.826124
0.825602
0.825157
0.824809
0.824579
0.824486
0.824542
0.824756
0.825127
0.825647
0.826302
0.827067
0.827916
0.828815
0.829732
0.830633
0.831488
0.832271
0.832961
0.833485
0.833866
0.834151
0.834352
0.834476
0.834535
0.834537
0.834491
0.834404
0.834284
0.834137
0.833968
0.833782
0.833585
0.833378
0.833165
0.83295
0.832734
0.832518
0.832305
0.832096
0.831892
0.831692
0.831499
0.831312
0.831131
0.830957
0.830789
0.830628
0.830475
0.827201
0.826744
0.826335
0.825994
0.825738
0.825584
0.825545
0.825633
0.825851
0.8262
0.826671
0.827251
0.82792
0.828653
0.829423
0.8302
0.830956
0.831663
0.832297
0.832839
0.833231
0.833498
0.833677
0.833777
0.833808
0.833779
0.833698
0.833573
0.833412
0.833221
0.833007
0.832775
0.832529
0.832273
0.832012
0.831747
0.831481
0.831217
0.830956
0.8307
0.830449
0.830205
0.829967
0.829738
0.829516
0.829302
0.829096
0.828897
0.828707
0.828526
0.827686
0.827338
0.827034
0.826788
0.826615
0.826528
0.826538
0.826654
0.826877
0.827207
0.827636
0.828151
0.828736
0.829368
0.830022
0.830674
0.831296
0.831866
0.83236
0.832762
0.833027
0.833182
0.833256
0.833257
0.833194
0.833076
0.83291
0.832705
0.832468
0.832204
0.831921
0.831622
0.831313
0.830997
0.830678
0.830358
0.83004
0.829726
0.829417
0.829115
0.82882
0.828534
0.828257
0.827989
0.82773
0.82748
0.827241
0.82701
0.826787
0.826577
0.828154
0.827909
0.8277
0.827542
0.827445
0.827419
0.827475
0.827616
0.827845
0.828159
0.828553
0.829012
0.829523
0.830065
0.830617
0.831154
0.831655
0.832097
0.83246
0.832728
0.832869
0.832916
0.832887
0.832789
0.832632
0.832424
0.832172
0.831885
0.83157
0.831231
0.830876
0.830509
0.830134
0.829756
0.829376
0.828999
0.828626
0.82826
0.827901
0.82755
0.82721
0.826879
0.82656
0.826251
0.825953
0.825666
0.825391
0.825125
0.82487
0.824629
0.828607
0.828457
0.828339
0.828262
0.828234
0.828266
0.828363
0.828529
0.828765
0.829067
0.82943
0.829842
0.830288
0.83075
0.831209
0.831643
0.832032
0.832355
0.832594
0.832734
0.832757
0.832699
0.832567
0.832372
0.83212
0.831821
0.831483
0.831112
0.830716
0.830301
0.829872
0.829434
0.828991
0.828548
0.828106
0.827669
0.827239
0.826817
0.826406
0.826005
0.825616
0.825239
0.824875
0.824524
0.824185
0.823859
0.823546
0.823245
0.822955
0.822681
0.829045
0.828987
0.828953
0.828951
0.82899
0.829075
0.829211
0.829401
0.829645
0.82994
0.830277
0.830647
0.831037
0.831428
0.831804
0.832144
0.83243
0.832642
0.832764
0.832782
0.832691
0.832529
0.832297
0.832004
0.831658
0.831268
0.830841
0.830386
0.829907
0.829413
0.828908
0.828397
0.827884
0.827373
0.826866
0.826367
0.825878
0.825399
0.824932
0.824479
0.824039
0.823614
0.823203
0.822807
0.822425
0.822059
0.821706
0.821367
0.821042
0.820733
0.82947
0.829498
0.829545
0.829615
0.829716
0.829852
0.830027
0.830241
0.830495
0.830784
0.831101
0.831436
0.831775
0.832104
0.832405
0.83266
0.83285
0.832959
0.83297
0.832871
0.832668
0.832405
0.832074
0.831684
0.831244
0.830762
0.830246
0.829704
0.829142
0.828567
0.827984
0.827397
0.826812
0.826231
0.825657
0.825094
0.824542
0.824004
0.82348
0.822971
0.822479
0.822002
0.821543
0.8211
0.820674
0.820264
0.819871
0.819493
0.81913
0.818785
0.829883
0.829995
0.830118
0.830258
0.830419
0.830604
0.830816
0.831056
0.831321
0.831607
0.831908
0.832213
0.83251
0.832783
0.833016
0.833193
0.833295
0.833306
0.833212
0.833001
0.83269
0.832328
0.831899
0.831413
0.830878
0.830303
0.829697
0.829067
0.82842
0.827762
0.827099
0.826435
0.825775
0.825122
0.824479
0.823849
0.823232
0.822632
0.822048
0.821482
0.820934
0.820405
0.819895
0.819403
0.81893
0.818476
0.81804
0.817621
0.817219
0.816837
0.830287
0.830479
0.830676
0.830883
0.831102
0.831336
0.831586
0.831851
0.83213
0.832418
0.832706
0.832987
0.833246
0.83347
0.833642
0.833746
0.833766
0.833686
0.833492
0.833173
0.832757
0.832298
0.831772
0.83119
0.83056
0.829892
0.829195
0.828476
0.827742
0.826999
0.826254
0.825511
0.824774
0.824047
0.823332
0.822632
0.821948
0.821283
0.820637
0.820011
0.819406
0.818822
0.818258
0.817716
0.817195
0.816694
0.816213
0.815752
0.815309
0.814888
0.830681
0.830952
0.831222
0.831495
0.831771
0.832054
0.832342
0.832634
0.832929
0.83322
0.833501
0.833761
0.833988
0.834168
0.834286
0.834324
0.834268
0.834102
0.833812
0.833388
0.832869
0.832315
0.831693
0.831015
0.83029
0.829529
0.828739
0.82793
0.827108
0.826279
0.82545
0.824625
0.823809
0.823005
0.822216
0.821444
0.820691
0.819958
0.819248
0.81856
0.817895
0.817253
0.816634
0.816039
0.815467
0.814918
0.814391
0.813885
0.8134
0.812938
0.831069
0.831417
0.831759
0.832097
0.83243
0.832761
0.833088
0.83341
0.833723
0.834022
0.834298
0.834543
0.834743
0.834884
0.834952
0.83493
0.834802
0.834555
0.834174
0.833648
0.833029
0.83238
0.831664
0.83089
0.830071
0.829215
0.828332
0.827431
0.826519
0.825602
0.824687
0.823779
0.822881
0.821998
0.821131
0.820285
0.81946
0.818658
0.81788
0.817127
0.8164
0.815698
0.815023
0.814373
0.813748
0.813148
0.812573
0.812021
0.811491
0.810987
0.831451
0.831876
0.832289
0.832692
0.833084
0.833464
0.833832
0.834185
0.834518
0.834827
0.835104
0.835337
0.835514
0.835622
0.835645
0.835567
0.835373
0.835049
0.83458
0.833957
0.833239
0.832498
0.831686
0.830818
0.829903
0.828952
0.827975
0.826981
0.825977
0.82497
0.823967
0.822972
0.82199
0.821025
0.820079
0.819155
0.818256
0.817382
0.816534
0.815715
0.814923
0.814159
0.813424
0.812717
0.812038
0.811385
0.81076
0.810159
0.809583
0.809035
0.83183
0.832331
0.832816
0.833284
0.833734
0.834166
0.834576
0.834962
0.83532
0.835643
0.835922
0.836148
0.836307
0.836386
0.836369
0.836241
0.835985
0.835588
0.835035
0.834316
0.833502
0.832669
0.831763
0.8308
0.829789
0.828742
0.82767
0.826581
0.825483
0.824385
0.823291
0.822207
0.821139
0.820089
0.819061
0.818057
0.81708
0.816132
0.815212
0.814323
0.813464
0.812636
0.811839
0.811072
0.810336
0.809629
0.808951
0.8083
0.807676
0.807081
0.832206
0.832785
0.833342
0.833876
0.834387
0.834871
0.835326
0.835748
0.836132
0.836472
0.836759
0.836982
0.837128
0.837182
0.83713
0.836955
0.836642
0.836176
0.835542
0.834731
0.833822
0.832897
0.831899
0.830839
0.829732
0.828589
0.827419
0.826234
0.82504
0.823847
0.82266
0.821485
0.820327
0.81919
0.818077
0.816992
0.815935
0.814909
0.813914
0.812953
0.812024
0.811129
0.810268
0.809439
0.808643
0.807879
0.807146
0.806442
0.805768
0.805125
0.832581
0.833238
0.833869
0.834472
0.835044
0.835583
0.836085
0.836546
0.836961
0.837321
0.837619
0.837843
0.83798
0.838015
0.837932
0.837716
0.837349
0.836817
0.836105
0.835204
0.834202
0.833188
0.832095
0.830941
0.829736
0.828494
0.827226
0.825942
0.82465
0.82336
0.822077
0.820809
0.819559
0.818332
0.817131
0.81596
0.814821
0.813714
0.812642
0.811606
0.810605
0.80964
0.808711
0.807818
0.80696
0.806136
0.805345
0.804587
0.80386
0.803166
0.832957
0.833694
0.8344
0.835073
0.835709
0.836305
0.836857
0.837361
0.837809
0.838195
0.838508
0.838738
0.83887
0.83889
0.838781
0.838526
0.83811
0.837516
0.83673
0.835741
0.834647
0.833543
0.832358
0.831107
0.829803
0.828461
0.827093
0.825708
0.824316
0.822926
0.821545
0.82018
0.818835
0.817516
0.816225
0.814965
0.81374
0.81255
0.811398
0.810283
0.809207
0.80817
0.80717
0.806209
0.805286
0.8044
0.803549
0.802733
0.801951
0.801204
0.833336
0.834153
0.834936
0.835681
0.836384
0.837041
0.837647
0.838196
0.838682
0.839097
0.83943
0.83967
0.839802
0.839812
0.839681
0.839393
0.838931
0.838279
0.837421
0.836347
0.835162
0.833969
0.83269
0.831341
0.829938
0.828495
0.827023
0.825535
0.824041
0.822549
0.821067
0.819602
0.81816
0.816745
0.81536
0.814009
0.812695
0.811419
0.810183
0.808987
0.807833
0.806719
0.805647
0.804615
0.803624
0.802672
0.801758
0.800882
0.800041
0.799239
0.833717
0.834618
0.835481
0.836301
0.837074
0.837794
0.838457
0.839056
0.839584
0.840032
0.84039
0.840645
0.840782
0.840786
0.840638
0.840322
0.839818
0.83911
0.838183
0.837025
0.835751
0.834469
0.833096
0.831649
0.830144
0.828597
0.827021
0.825428
0.823828
0.822231
0.820646
0.819079
0.817536
0.816022
0.81454
0.813095
0.811689
0.810323
0.809
0.80772
0.806484
0.805291
0.804142
0.803036
0.801973
0.800952
0.799973
0.799032
0.79813
0.797269
0.834102
0.835089
0.836035
0.836933
0.837779
0.838567
0.839291
0.839944
0.840519
0.841006
0.841393
0.841668
0.841816
0.841818
0.841658
0.841317
0.840775
0.840015
0.839022
0.837782
0.836418
0.835047
0.83358
0.832034
0.830427
0.828774
0.827091
0.82539
0.823682
0.821978
0.820286
0.818613
0.816966
0.81535
0.813769
0.812226
0.810724
0.809266
0.807852
0.806485
0.805163
0.803888
0.802659
0.801476
0.800338
0.799244
0.798194
0.797186
0.796219
0.795294
0.834492
0.835569
0.8366
0.83758
0.838503
0.839363
0.840152
0.840865
0.841491
0.842022
0.842444
0.842745
0.842907
0.842914
0.842746
0.842384
0.841808
0.841
0.839942
0.838622
0.83717
0.83571
0.834147
0.832501
0.83079
0.82903
0.827238
0.825427
0.823608
0.821793
0.819991
0.818209
0.816455
0.814733
0.813048
0.811404
0.809804
0.80825
0.806743
0.805284
0.803875
0.802514
0.801201
0.799937
0.798721
0.79755
0.796426
0.795345
0.794308
0.793314
0.834889
0.836057
0.837177
0.838243
0.839247
0.840184
0.841044
0.841821
0.842505
0.843085
0.843548
0.843879
0.844063
0.844079
0.843908
0.84353
0.842924
0.84207
0.84095
0.839551
0.838012
0.836463
0.834804
0.833056
0.831239
0.829371
0.827467
0.825542
0.82361
0.821681
0.819765
0.817871
0.816005
0.814174
0.812382
0.810634
0.808932
0.807278
0.805675
0.804123
0.802623
0.801174
0.799775
0.798428
0.797129
0.795879
0.794675
0.793516
0.792401
0.79133
0.835291
0.836555
0.837768
0.838924
0.840015
0.841033
0.84197
0.842817
0.843564
0.844199
0.844709
0.845078
0.845288
0.845319
0.84515
0.84476
0.844127
0.843231
0.842053
0.840576
0.83895
0.837312
0.835556
0.833706
0.831782
0.829801
0.827783
0.825742
0.823693
0.821646
0.819612
0.817602
0.815621
0.813677
0.811774
0.809918
0.808111
0.806356
0.804653
0.803005
0.801412
0.799873
0.798388
0.796955
0.795574
0.794242
0.792958
0.791717
0.790516
0.789348
0.835699
0.837063
0.838374
0.839625
0.840808
0.841913
0.842932
0.843856
0.844672
0.84537
0.845933
0.846345
0.846587
0.846639
0.846477
0.846081
0.845426
0.844491
0.843256
0.841704
0.839991
0.838264
0.836411
0.834457
0.832423
0.830329
0.828193
0.826032
0.823861
0.821693
0.819538
0.817406
0.815307
0.813245
0.811229
0.809261
0.807345
0.805484
0.80368
0.801933
0.800245
0.798616
0.797044
0.79553
0.79407
0.792665
0.791311
0.790007
0.788754
0.787492
0.836114
0.837582
0.838996
0.840347
0.841627
0.842826
0.843934
0.844941
0.845834
0.8466
0.847223
0.847685
0.847966
0.848045
0.847897
0.847498
0.846826
0.845856
0.844567
0.842941
0.841143
0.839326
0.837376
0.835316
0.83317
0.830959
0.828702
0.826418
0.824121
0.821827
0.819546
0.81729
0.815066
0.812884
0.810748
0.808664
0.806635
0.804665
0.802755
0.800907
0.799122
0.797401
0.795744
0.79415
0.792622
0.791159
0.789762
0.788439
0.787205
0.785993
0.836535
0.838112
0.839634
0.841092
0.842475
0.843774
0.844978
0.846075
0.847052
0.847894
0.848585
0.849104
0.849431
0.849543
0.849414
0.84902
0.848334
0.847333
0.845994
0.844297
0.842414
0.840508
0.838458
0.83629
0.83403
0.831698
0.829317
0.826906
0.82448
0.822054
0.819643
0.817257
0.814905
0.812596
0.810336
0.808131
0.805984
0.803899
0.801878
0.799922
0.798034
0.796213
0.794461
0.792776
0.791158
0.789606
0.788117
0.786689
0.785334
0.784028
0.836961
0.838653
0.840289
0.841859
0.843353
0.844759
0.846067
0.847262
0.84833
0.849256
0.850022
0.850606
0.850987
0.851139
0.851037
0.850652
0.84996
0.848932
0.847545
0.84578
0.843812
0.841816
0.839666
0.837388
0.83501
0.832555
0.830046
0.827502
0.824942
0.822381
0.819834
0.817313
0.814827
0.812386
0.809997
0.807664
0.805393
0.803186
0.801047
0.798977
0.796977
0.795048
0.79319
0.791402
0.789684
0.788033
0.786447
0.784923
0.783466
0.782074
0.837393
0.839205
0.840961
0.84265
0.844262
0.845783
0.847202
0.848503
0.849671
0.85069
0.851539
0.852197
0.852639
0.85284
0.852771
0.852403
0.851709
0.85066
0.84923
0.847397
0.845346
0.84326
0.841007
0.838618
0.836119
0.833537
0.830895
0.828215
0.825516
0.822815
0.820127
0.817465
0.814839
0.81226
0.809734
0.807268
0.804866
0.802531
0.800267
0.798076
0.795958
0.793915
0.791947
0.790053
0.788231
0.786482
0.784802
0.78319
0.781642
0.780151
0.837828
0.839766
0.841649
0.843465
0.845202
0.846847
0.848385
0.849801
0.851079
0.852199
0.853141
0.853881
0.854394
0.854651
0.854624
0.85428
0.853591
0.852525
0.851056
0.849158
0.847025
0.844848
0.842492
0.839988
0.837365
0.834652
0.831873
0.829052
0.826209
0.823362
0.820527
0.817718
0.814947
0.812223
0.809554
0.806947
0.804407
0.801939
0.799544
0.797225
0.794985
0.792823
0.790739
0.788734
0.786805
0.784952
0.783175
0.781479
0.779867
0.778301
0.838267
0.840337
0.842354
0.844304
0.846175
0.847951
0.849618
0.851159
0.852555
0.853787
0.854832
0.855664
0.856257
0.856581
0.856603
0.856291
0.855613
0.854537
0.853032
0.851073
0.848858
0.84659
0.844128
0.841507
0.838758
0.83591
0.83299
0.830023
0.82703
0.824031
0.821043
0.818081
0.815157
0.812281
0.809463
0.806708
0.804024
0.801414
0.798882
0.796431
0.794062
0.791775
0.789571
0.78745
0.78541
0.78345
0.781569
0.779771
0.77807
0.776418
0.838706
0.840916
0.843074
0.845167
0.847179
0.849097
0.850902
0.852578
0.854103
0.855457
0.856616
0.857551
0.858235
0.858634
0.858716
0.858445
0.857786
0.856704
0.855169
0.853151
0.850855
0.848495
0.845928
0.843188
0.840308
0.837321
0.834255
0.831136
0.827987
0.82483
0.821682
0.81856
0.815476
0.812441
0.809465
0.806556
0.80372
0.800963
0.798287
0.795695
0.793189
0.79077
0.788437
0.786191
0.78403
0.781953
0.779957
0.778041
0.776222
0.774472
0.839144
0.841501
0.843808
0.846052
0.848216
0.850284
0.852239
0.85406
0.855726
0.857214
0.858497
0.859547
0.860333
0.860819
0.86097
0.860749
0.860116
0.859037
0.857476
0.855402
0.853027
0.850576
0.847901
0.845039
0.842026
0.838896
0.835678
0.832401
0.829091
0.825769
0.822454
0.819163
0.815911
0.81271
0.809569
0.806498
0.803503
0.800589
0.79776
0.79502
0.792368
0.789807
0.787336
0.784955
0.782663
0.780459
0.77834
0.776306
0.774365
0.77251
0.839579
0.84209
0.844554
0.846958
0.849284
0.851514
0.853628
0.855606
0.857425
0.859059
0.860481
0.861658
0.862558
0.863143
0.863374
0.863212
0.862615
0.861544
0.859963
0.857838
0.855386
0.852844
0.850059
0.847073
0.843923
0.840645
0.83727
0.83383
0.830351
0.826856
0.823366
0.8199
0.816472
0.813095
0.809782
0.80654
0.803378
0.8003
0.797311
0.794413
0.791609
0.788899
0.786285
0.783766
0.781341
0.77901
0.776769
0.77462
0.772565
0.770595
0.840007
0.84268
0.845311
0.847884
0.850381
0.852784
0.855071
0.857219
0.859203
0.860997
0.86257
0.863889
0.864916
0.865612
0.865935
0.865843
0.865291
0.864237
0.862642
0.860471
0.857942
0.855309
0.852415
0.849303
0.846012
0.84258
0.839043
0.835432
0.831777
0.828102
0.824429
0.820779
0.817166
0.813607
0.810112
0.806692
0.803353
0.800102
0.796944
0.793882
0.790918
0.788054
0.78529
0.782627
0.780063
0.777597
0.775226
0.772952
0.770777
0.76869
0.840426
0.843268
0.846074
0.848827
0.851507
0.854094
0.856566
0.858898
0.861062
0.863031
0.86477
0.866244
0.867413
0.868234
0.868662
0.868651
0.868155
0.867127
0.865525
0.863311
0.86071
0.857987
0.854982
0.851739
0.848303
0.844714
0.841008
0.837221
0.833381
0.829518
0.825654
0.82181
0.818005
0.814254
0.810568
0.80696
0.803436
0.800003
0.796667
0.793432
0.7903
0.787273
0.784352
0.781536
0.778824
0.776214
0.773706
0.7713
0.768998
0.76679
0.840831
0.843851
0.846842
0.849784
0.852659
0.855443
0.858113
0.860643
0.863003
0.865162
0.867083
0.868728
0.870055
0.871016
0.871563
0.871647
0.871217
0.870225
0.868624
0.866374
0.863702
0.860889
0.857771
0.854397
0.850812
0.847059
0.843179
0.839206
0.835176
0.831115
0.827051
0.823006
0.818998
0.815045
0.811159
0.807352
0.803633
0.800009
0.796487
0.793069
0.78976
0.786561
0.783473
0.780495
0.777626
0.774866
0.772213
0.769666
0.767231
0.764895
0.841217
0.844424
0.847609
0.850752
0.853833
0.856828
0.859711
0.862455
0.865026
0.867392
0.869513
0.871347
0.872847
0.873964
0.874646
0.874839
0.874489
0.873543
0.871952
0.869671
0.866932
0.864029
0.860798
0.857289
0.85355
0.849629
0.845567
0.841403
0.837172
0.832906
0.828632
0.824375
0.820155
0.81599
0.811893
0.807878
0.803953
0.800128
0.796409
0.7928
0.789304
0.785923
0.782658
0.779508
0.776474
0.773555
0.770748
0.768054
0.765477
0.763004
0.84158
0.844982
0.848371
0.851727
0.855027
0.858246
0.861358
0.864331
0.867132
0.869723
0.872062
0.874103
0.875796
0.877088
0.877922
0.878239
0.877983
0.877095
0.875523
0.873217
0.870414
0.867423
0.864076
0.860429
0.856533
0.852437
0.848186
0.843822
0.839383
0.834902
0.830409
0.82593
0.821487
0.817098
0.812779
0.808544
0.804404
0.800367
0.796441
0.792629
0.788936
0.785362
0.78191
0.77858
0.775371
0.772283
0.769313
0.766462
0.763735
0.761118
0.841912
0.845519
0.849122
0.852702
0.856234
0.859694
0.86305
0.866271
0.86932
0.872155
0.874732
0.877001
0.878908
0.880394
0.881398
0.881858
0.88171
0.880894
0.87935
0.877027
0.874163
0.871084
0.867621
0.863833
0.859774
0.855497
0.85105
0.846478
0.841822
0.837116
0.832394
0.827681
0.823003
0.81838
0.813828
0.809362
0.804995
0.800735
0.796589
0.792563
0.78866
0.784883
0.781234
0.777713
0.77432
0.771053
0.767911
0.764893
0.762007
0.759236
0.842208
0.846027
0.849856
0.853672
0.857451
0.861166
0.864784
0.868272
0.871588
0.87469
0.877527
0.880046
0.882188
0.88389
0.885085
0.885706
0.885684
0.884953
0.883449
0.881116
0.878195
0.875028
0.871448
0.867515
0.863289
0.858824
0.854174
0.849385
0.844502
0.839561
0.834598
0.829641
0.824716
0.819846
0.815049
0.81034
0.805733
0.801237
0.79686
0.792608
0.788484
0.784493
0.780635
0.776912
0.773324
0.769868
0.766543
0.763349
0.760293
0.757359
0.84246
0.846501
0.850565
0.85463
0.85867
0.862657
0.866556
0.87033
0.873936
0.877326
0.880447
0.88324
0.885642
0.887584
0.888994
0.889797
0.88992
0.889289
0.887836
0.885502
0.882526
0.879273
0.875573
0.871492
0.867092
0.862433
0.857571
0.852557
0.847436
0.84225
0.837034
0.83182
0.826637
0.821508
0.816452
0.811488
0.806629
0.801884
0.797262
0.792771
0.788414
0.784197
0.780119
0.776182
0.772386
0.768729
0.765211
0.761831
0.758595
0.755489
0.842658
0.84693
0.85124
0.855568
0.859884
0.86416
0.868359
0.872441
0.87636
0.880063
0.883494
0.886589
0.889278
0.891486
0.893135
0.894144
0.894431
0.893918
0.892529
0.890201
0.887176
0.883836
0.880014
0.875779
0.871199
0.866339
0.861256
0.856006
0.850637
0.845193
0.839713
0.83423
0.828776
0.823374
0.818048
0.812815
0.807688
0.802681
0.797802
0.793058
0.788456
0.783999
0.779689
0.775525
0.77151
0.767641
0.763917
0.760339
0.756914
0.753624
0.842793
0.847305
0.851874
0.856476
0.861085
0.865668
0.870188
0.8746
0.878856
0.882901
0.88667
0.890096
0.893102
0.895606
0.897522
0.898762
0.899236
0.898858
0.897548
0.895235
0.892162
0.888735
0.884788
0.880394
0.875627
0.870555
0.865242
0.859745
0.854116
0.848402
0.842645
0.836881
0.831142
0.825455
0.819844
0.814327
0.80892
0.803636
0.798486
0.793477
0.788616
0.783906
0.779349
0.774947
0.770699
0.766606
0.762665
0.758877
0.75525
0.751766
0.842854
0.847616
0.852453
0.857345
0.862262
0.867171
0.872033
0.876801
0.881422
0.885836
0.889976
0.893765
0.897121
0.899953
0.902167
0.903667
0.904353
0.904131
0.902915
0.900627
0.897509
0.893994
0.889915
0.885356
0.880392
0.875099
0.869543
0.863786
0.857885
0.851888
0.84584
0.839781
0.833744
0.827758
0.821847
0.816032
0.81033
0.804756
0.799321
0.794033
0.788898
0.783921
0.779104
0.77445
0.769958
0.765628
0.761457
0.757447
0.753605
0.749915
0.84283
0.847849
0.852967
0.858161
0.863404
0.868659
0.873886
0.879035
0.884051
0.888867
0.893411
0.8976
0.901342
0.904539
0.907086
0.908878
0.909803
0.909761
0.908655
0.906401
0.903241
0.899634
0.895419
0.890684
0.885513
0.879985
0.874173
0.868143
0.861954
0.855659
0.849307
0.842938
0.836589
0.830288
0.824063
0.817936
0.811926
0.806047
0.800313
0.79473
0.789308
0.784049
0.778959
0.774038
0.769288
0.764708
0.760295
0.756049
0.751981
0.748071
0.842707
0.847992
0.8534
0.858912
0.864497
0.870119
0.875735
0.881295
0.886737
0.891991
0.896977
0.901606
0.905775
0.909377
0.912296
0.914415
0.915611
0.915774
0.914797
0.912588
0.909387
0.905684
0.901325
0.896403
0.89101
0.885232
0.879147
0.872826
0.866334
0.859726
0.853053
0.846359
0.839681
0.833051
0.826497
0.820044
0.81371
0.807512
0.801463
0.795572
0.789847
0.784294
0.778916
0.773715
0.768692
0.763847
0.759179
0.754686
0.750379
0.746237
0.84247
0.848029
0.853739
0.859582
0.865526
0.871537
0.87757
0.883569
0.889472
0.895203
0.900673
0.905785
0.910428
0.91448
0.917814
0.9203
0.921803
0.9222
0.921372
0.919219
0.915979
0.912175
0.907661
0.902538
0.896906
0.89086
0.884482
0.877851
0.871036
0.864096
0.857084
0.850047
0.843024
0.836048
0.829151
0.822356
0.815684
0.809152
0.802773
0.796558
0.790517
0.784655
0.778976
0.773481
0.768172
0.763048
0.758109
0.753355
0.748797
0.744412
0.842105
0.847945
0.853967
0.860153
0.866476
0.872899
0.879374
0.885847
0.892249
0.898497
0.904498
0.910143
0.915308
0.919862
0.923661
0.926558
0.928409
0.929071
0.928415
0.926331
0.923052
0.919143
0.914461
0.90912
0.90323
0.896891
0.890198
0.883233
0.876071
0.868776
0.861404
0.854004
0.846617
0.839279
0.832021
0.824869
0.817844
0.810963
0.804241
0.797689
0.791317
0.785133
0.779139
0.773337
0.767729
0.762315
0.757093
0.752065
0.747243
0.742599
0.841594
0.84772
0.854064
0.860609
0.867328
0.874186
0.881134
0.888115
0.895056
0.901868
0.90845
0.914681
0.920427
0.925538
0.929857
0.933218
0.935459
0.936424
0.935966
0.933965
0.930649
0.926626
0.921763
0.916184
0.910011
0.903354
0.896317
0.888989
0.881452
0.873775
0.866017
0.85823
0.850459
0.84274
0.835104
0.827578
0.820184
0.81294
0.80586
0.798959
0.792243
0.785721
0.779397
0.773275
0.767356
0.761638
0.756121
0.750808
0.745715
0.740804
0.840918
0.847336
0.854011
0.860927
0.868062
0.875379
0.882831
0.890357
0.897881
0.905308
0.912526
0.919403
0.925791
0.931523
0.936422
0.940305
0.942988
0.944295
0.944065
0.942163
0.938813
0.934669
0.929609
0.923771
0.917287
0.910281
0.902866
0.895142
0.887196
0.879104
0.87093
0.862729
0.854548
0.846425
0.838391
0.830473
0.822693
0.815071
0.807621
0.800355
0.793283
0.78641
0.779744
0.773289
0.767045
0.761014
0.755193
0.749586
0.744219
0.739041
0.840058
0.846772
0.853785
0.861087
0.868656
0.876457
0.884445
0.892555
0.900709
0.908804
0.916719
0.924308
0.931407
0.93783
0.943379
0.947847
0.951029
0.952725
0.952755
0.950972
0.947591
0.943318
0.938045
0.931922
0.925098
0.917709
0.909879
0.90172
0.893326
0.88478
0.876153
0.867505
0.858883
0.850328
0.841872
0.833542
0.825359
0.817343
0.809508
0.801866
0.794425
0.787193
0.780176
0.773377
0.7668
0.760444
0.754307
0.748394
0.742733
0.737277
0.838992
0.846005
0.853363
0.861062
0.869083
0.877395
0.885951
0.894688
0.903521
0.912343
0.92102
0.929394
0.93728
0.944473
0.950748
0.955873
0.959617
0.961753
0.962083
0.96044
0.957032
0.952622
0.947117
0.940684
0.933486
0.925676
0.917391
0.908752
0.899865
0.890823
0.881701
0.872566
0.863467
0.854447
0.845539
0.836771
0.828165
0.819738
0.811502
0.80347
0.795649
0.788046
0.780667
0.773514
0.76659
0.759894
0.753427
0.74719
0.741213
0.735466
0.837697
0.845009
0.852718
0.860825
0.869316
0.878163
0.887322
0.896728
0.906294
0.915905
0.925415
0.934652
0.94341
0.951458
0.958546
0.964408
0.968787
0.971422
0.972093
0.970615
0.967184
0.962629
0.956872
0.950099
0.942493
0.934221
0.925435
0.91627
0.906843
0.897256
0.887593
0.877925
0.868305
0.85878
0.849386
0.84015
0.831095
0.822234
0.813579
0.805142
0.796928
0.788944
0.781194
0.773679
0.766401
0.759361
0.75256
0.745997
0.739701
0.733646
0.836149
0.843759
0.851822