/*--------------------------------*- C++ -*----------------------------------*\
  =========                 |
  \\      /  F ield         | OpenFOAM: The Open Source CFD Toolbox
   \\    /   O peration     | Website:  https://openfoam.org
    \\  /    A nd           | Version:  9
     \\/     M anipulation  |
\*---------------------------------------------------------------------------*/
FoamFile
{
    format      ascii;
    class       volScalarField;
    location    "0.04";
    object      p_rgh;
}
// * * * * * * * * * * * * * * * * * * * * * * * * * * * * * * * * * * * * * //

dimensions      [1 -1 -2 0 0 0 0];

internalField   nonuniform List<scalar> 
5000
(
-0.0379316
-0.0417799
-0.0460352
-0.05074
-0.0558419
-0.0610913
-0.0659395
-0.0695128
-0.0708119
-0.0691714
-0.0646597
-0.0581205
-0.0507028
-0.0433476
-0.0365916
-0.0306328
-0.0254749
-0.0210423
-0.0172419
-0.0139905
-0.011472
-0.00956679
-0.0079935
-0.00668555
-0.00559216
-0.00467505
-0.00390465
-0.00325736
-0.00271388
-0.00225805
-0.0018763
-0.0015571
-0.00129066
-0.00106865
-0.000883968
-0.000730598
-0.000603414
-0.000498073
-0.000410896
-0.000338772
-0.000279067
-0.00022955
-0.000188318
-0.000153745
-0.000124442
-9.92592e-05
-7.73156e-05
-5.7759e-05
-3.85639e-05
-1.6139e-05
-0.0354411
-0.0389113
-0.0426545
-0.046644
-0.0507707
-0.05479
-0.0582852
-0.060688
-0.0614113
-0.0600841
-0.0567532
-0.0518957
-0.0461991
-0.0402946
-0.0346188
-0.0294067
-0.0247473
-0.020646
-0.0170699
-0.0139749
-0.011556
-0.00970066
-0.00815285
-0.00685847
-0.00577303
-0.00486085
-0.00409322
-0.00344684
-0.00290249
-0.00244419
-0.00205851
-0.0017341
-0.00146137
-0.00123217
-0.00103956
-0.000877672
-0.000741503
-0.000626812
-0.000530003
-0.00044802
-0.000378267
-0.00031853
-0.000266911
-0.000221776
-0.000181715
-0.000145523
-0.000112291
-8.14327e-05
-5.16482e-05
-2.02622e-05
-0.0333549
-0.0365117
-0.0398539
-0.0433285
-0.0468153
-0.0500959
-0.0528406
-0.0546339
-0.0550687
-0.0539003
-0.0511631
-0.0471876
-0.0424596
-0.037449
-0.032511
-0.0278661
-0.0236258
-0.0198291
-0.0164747
-0.0135432
-0.0112331
-0.00944925
-0.00795228
-0.00669522
-0.00563823
-0.00474851
-0.0039991
-0.00336769
-0.00283573
-0.0023877
-0.0020105
-0.00169308
-0.00142607
-0.00120153
-0.0010127
-0.000853829
-0.000720048
-0.000607212
-0.000511807
-0.00043085
-0.000361812
-0.000302556
-0.000251274
-0.000206446
-0.000166802
-0.000131263
-9.89809e-05
-6.95604e-05
-4.24953e-05
-1.54459e-05
-0.0312041
-0.0340634
-0.0370426
-0.0400793
-0.0430568
-0.0457861
-0.0480017
-0.049386
-0.0496393
-0.0485888
-0.0462624
-0.0429048
-0.0388806
-0.0345555
-0.0302214
-0.0260747
-0.0222288
-0.0187377
-0.015618
-0.0128673
-0.0106847
-0.00898997
-0.00756157
-0.00635846
-0.00534483
-0.00449076
-0.00377123
-0.00316528
-0.00265526
-0.00222631
-0.00186583
-0.00156316
-0.00130923
-0.00109633
-0.000917917
-0.000768421
-0.000643111
-0.000537974
-0.000449611
-0.000375144
-0.000312147
-0.000258577
-0.000212722
-0.000173153
-0.00013868
-0.000108311
-8.12511e-05
-5.70881e-05
-3.52346e-05
-1.27292e-05
-0.0288405
-0.0314019
-0.0340281
-0.0366518
-0.0391635
-0.0414023
-0.0431587
-0.0441981
-0.0443093
-0.0433765
-0.0414223
-0.0386195
-0.0352307
-0.0315334
-0.0277642
-0.0240964
-0.020642
-0.0174647
-0.014594
-0.0120409
-0.0100017
-0.00840946
-0.0070621
-0.00592439
-0.00496457
-0.00415559
-0.00347441
-0.00290147
-0.00242017
-0.00201639
-0.00167813
-0.00139518
-0.00115884
-0.000961708
-0.000797481
-0.000660809
-0.000547146
-0.00045264
-0.000374031
-0.000308566
-0.000253923
-0.000208147
-0.000169595
-0.000136892
-0.000108882
-8.45898e-05
-6.32294e-05
-4.43667e-05
-2.74649e-05
-1.00072e-05
-0.0263569
-0.0286313
-0.0309261
-0.0331732
-0.0352731
-0.0370918
-0.0384672
-0.0392297
-0.039235
-0.0384084
-0.0367685
-0.034435
-0.0315932
-0.0284495
-0.0251923
-0.0219715
-0.0188936
-0.0160269
-0.0134098
-0.011063
-0.00917684
-0.00769704
-0.00644077
-0.00537805
-0.004481
-0.00372538
-0.00309017
-0.00255726
-0.00211112
-0.00173847
-0.00142795
-0.00116984
-0.000955856
-0.000778939
-0.000633075
-0.000513153
-0.00041484
-0.000334464
-0.000268921
-0.000215592
-0.000172267
-0.000137088
-0.000108491
-8.5167e-05
-6.60195e-05
-5.01264e-05
-3.6744e-05
-2.54352e-05
-1.5715e-05
-5.90239e-06
-0.0238449
-0.0258544
-0.0278518
-0.0297727
-0.0315294
-0.0330117
-0.0340944
-0.0346533
-0.0345875
-0.033848
-0.0324506
-0.0304815
-0.0280753
-0.0253876
-0.0225684
-0.0197446
-0.0170129
-0.0144414
-0.0120726
-0.00993293
-0.00820457
-0.00684377
-0.00568629
-0.00470655
-0.00388013
-0.00318543
-0.00260337
-0.00211731
-0.00171282
-0.00137747
-0.00110055
-0.000872891
-0.000686635
-0.000535078
-0.000412509
-0.000314077
-0.000235666
-0.000173796
-0.000125527
-8.83812e-05
-6.02733e-05
-3.945e-05
-2.44396e-05
-1.40112e-05
-7.13708e-06
-2.95764e-06
-7.84485e-07
-2.04079e-07
-7.00945e-07
-9.22949e-07
-0.0213265
-0.023095
-0.0248294
-0.0264709
-0.027944
-0.0291587
-0.0300175
-0.0304272
-0.0303152
-0.0296478
-0.028439
-0.0267536
-0.0246932
-0.0223783
-0.0199292
-0.0174524
-0.0150338
-0.0127375
-0.0106069
-0.00867136
-0.00710224
-0.00586434
-0.00481099
-0.00392029
-0.00317085
-0.00254345
-0.00202083
-0.00158772
-0.0012308
-0.000938474
-0.000700698
-0.000508832
-0.000355463
-0.00023425
-0.000139792
-6.7494e-05
-1.34656e-05
2.55848e-05
5.24344e-05
6.94219e-05
7.85134e-05
8.13588e-05
7.93397e-05
7.36095e-05
6.51282e-05
5.46959e-05
4.29403e-05
3.02017e-05
1.69887e-05
4.75988e-06
-0.018797
-0.0203456
-0.0218455
-0.0232443
-0.0244779
-0.0254729
-0.0261527
-0.0264471
-0.0263032
-0.025698
-0.0246439
-0.0231905
-0.021416
-0.019415
-0.0172848
-0.0151147
-0.0129801
-0.0109399
-0.00903643
-0.00730016
-0.00588996
-0.00477703
-0.00383132
-0.00303405
-0.00236649
-0.00181154
-0.00135355
-0.00097859
-0.000674346
-0.000430029
-0.000236258
-8.49191e-05
3.09661e-05
0.000117375
0.000179408
0.000221398
0.00024702
0.000259381
0.000261102
0.000254388
0.000241091
0.000222762
0.000200696
0.000175965
0.000149457
0.000121904
9.38673e-05
6.55903e-05
3.75245e-05
1.13322e-05
-0.0162591
-0.0176064
-0.0188962
-0.0200822
-0.0211102
-0.0219205
-0.0224533
-0.0226554
-0.0224885
-0.0219377
-0.0210136
-0.019755
-0.0182226
-0.016491
-0.0146393
-0.0127426
-0.0108665
-0.00906457
-0.00737709
-0.00583419
-0.00458121
-0.00359392
-0.00275801
-0.0020573
-0.00147538
-0.000996972
-0.000607927
-0.000295497
-4.83219e-05
0.000143617
0.000289075
0.000395653
0.000469905
0.000517455
0.000543105
0.000550943
0.000544434
0.000526512
0.000499648
0.000465921
0.000427074
0.000384559
0.000339579
0.000293124
0.000246
0.000198866
0.000152213
0.000106186
6.11597e-05
1.8945e-05
-0.0137226
-0.0148863
-0.0159878
-0.016987
-0.0178381
-0.0184928
-0.0189043
-0.0190326
-0.0188495
-0.0183458
-0.017531
-0.016436
-0.0151087
-0.0136087
-0.0120005
-0.0103474
-0.00870615
-0.00712503
-0.00564168
-0.00428514
-0.00318644
-0.0023243
-0.00159923
-0.000997192
-0.000503719
-0.000105121
0.000211427
0.000457603
0.00064389
0.000779589
0.000872866
0.000930832
0.000959634
0.000964559
0.000950128
0.000920192
0.000878025
0.000826394
0.000767634
0.000703707
0.000636247
0.00056661
0.000495909
0.000425045
0.000354739
0.00028557
0.000217959
0.00015196
8.78376e-05
2.75617e-05
-0.0111959
-0.0121923
-0.0131253
-0.0139602
-0.0146589
-0.0151824
-0.0154936
-0.0155623
-0.0153681
-0.0149051
-0.0141823
-0.013225
-0.0120715
-0.0107705
-0.00937498
-0.0079384
-0.00651
-0.00513279
-0.00384149
-0.00266354
-0.00171527
-0.000976896
-0.000362819
0.000139286
0.000542273
0.000858484
0.0010996
0.00127636
0.00139843
0.00147447
0.00151208
0.00151793
0.00149778
0.0014566
0.00139864
0.00132756
0.00124643
0.00115788
0.00106412
0.000966983
0.000868009
0.000768455
0.000669339
0.000571473
0.000475487
0.000381876
0.000290969
0.000202732
0.000117398
3.68905e-05
-0.00868294
-0.00952679
-0.0103085
-0.0109985
-0.011565
-0.0119763
-0.0122035
-0.0122234
-0.0120212
-0.0115936
-0.0109489
-0.0101082
-0.00910335
-0.00797414
-0.00676506
-0.00552138
-0.00428586
-0.00309668
-0.00198564
-0.00097827
-0.000176069
0.000440533
0.000944115
0.00134567
0.00165674
0.00188856
0.00205184
0.00215647
0.00221142
0.00222475
0.00220356
0.0021541
0.00208177
0.00199128
0.00188662
0.00177126
0.00164812
0.00151968
0.00138802
0.00125487
0.00112167
0.000989574
0.0008595
0.000732165
0.000608113
0.000487755
0.000371333
0.000258695
0.000150034
4.73838e-05
-0.00618556
-0.00688981
-0.00753506
-0.00809607
-0.00854658
-0.00886102
-0.00901652
-0.00899545
-0.00878708
-0.00839001
-0.00781211
-0.00707147
-0.00619462
-0.00521504
-0.00417028
-0.00309909
-0.00203871
-0.00102306
-8.1111e-05
0.000763613
0.00142436
0.00192158
0.00231563
0.0026165
0.00283471
0.00298059
0.00306402
0.00309418
0.00307943
0.0030273
0.00294444
0.00283673
0.00270926
0.00256648
0.00241218
0.00224964
0.00208165
0.00191054
0.00173829
0.00156651
0.00139653
0.00122939
0.00106592
0.000906742
0.000752298
0.000602921
0.000458772
0.000319582
0.000185497
5.87233e-05
-0.00370473
-0.00428072
-0.00480208
-0.00524751
-0.00559533
-0.0058249
-0.00591825
-0.00586195
-0.00564841
-0.00527763
-0.00475712
-0.00410263
-0.00333686
-0.00248829
-0.00158906
-0.000672659
0.000228296
0.00108361
0.00186693
0.00255671
0.00308071
0.00346119
0.003747
0.0039474
0.00407216
0.00413087
0.00413275
0.00408637
0.00399958
0.00387945
0.00373225
0.00356353
0.00337814
0.00318027
0.00297356
0.00276113
0.00254562
0.00232926
0.00211388
0.00190099
0.00169179
0.00148724
0.00128803
0.0010947
0.00090761
0.000727007
0.000552979
0.000385147
0.000223609
7.08089e-05
-0.00124101
-0.00169863
-0.00210691
-0.00244795
-0.00270394
-0.00285829
-0.0028969
-0.00280962
-0.00259125
-0.00224283
-0.00177159
-0.00119155
-0.000522485
0.000210923
0.000980797
0.00175789
0.00251341
0.00322038
0.00385482
0.00439705
0.00478903
0.00505554
0.00523461
0.00533503
0.00536598
0.00533651
0.00525533
0.00513052
0.0049695
0.00477896
0.00456488
0.00433253
0.00408654
0.00383094
0.0035692
0.00330429
0.00303874
0.00277464
0.00251371
0.00225733
0.00200659
0.00176231
0.00152512
0.00129542
0.00107352
0.000859577
0.000653617
0.000455148
0.000264226
8.35633e-05
0.00120561
0.000857778
0.000553422
0.000307452
0.000134423
4.76209e-05
5.80628e-05
0.0001733
0.000396707
0.000726452
0.00115549
0.00167111
0.00225572
0.00288757
0.00354212
0.00419349
0.00481605
0.00538556
0.00588013
0.00628184
0.00654645
0.00670182
0.00677576
0.0067768
0.00671374
0.00659524
0.0064296
0.00622457
0.00598723
0.00572399
0.00544057
0.00514207
0.00483293
0.00451704
0.00419774
0.00387788
0.00355985
0.00324562
0.00293678
0.00263459
0.00234002
0.00205379
0.00177641
0.00150821
0.00124941
0.0010001
0.000760254
0.000529267
0.000307149
9.68786e-05
0.00363572
0.00339032
0.00318216
0.00302357
0.00292636
0.0029011
0.0029563
0.00309749
0.00332659
0.00364115
0.00403423
0.0044941
0.0050048
0.00554684
0.00609824
0.00663583
0.00713653
0.00757843
0.00794145
0.00820925
0.00835095
0.00839795
0.00836841
0.00827074
0.00811354
0.00790523
0.00765384
0.00736687
0.00705119
0.00671301
0.00635791
0.00599082
0.00561608
0.00523744
0.00485815
0.00448093
0.00410804
0.00374132
0.00338224
0.00303195
0.0026913
0.0023609
0.00204118
0.00173239
0.00143466
0.00114804
0.000872443
0.000607159
0.000352146
0.000110616
0.00605028
0.00590106
0.00578266
0.00570517
0.00567809
0.00570975
0.00580661
0.00597256
0.00620839
0.00651111
0.00687384
0.00728555
0.00773152
0.00819394
0.00865284
0.00908716
0.00947589
0.00979905
0.0100381
0.0101781
0.0102012
0.0101425
0.010011
0.00981533
0.00956389
0.00926502
0.00892663
0.00855608
0.00816013
0.0077449
0.00731585
0.00687785
0.00643514
0.00599139
0.00554973
0.00511276
0.00468263
0.00426107
0.00384942
0.00344872
0.00305972
0.00268296
0.00231876
0.00196732
0.0016287
0.0013029
0.000989765
0.000688488
0.000398969
0.000124611
0.00845047
0.00839218
0.00835824
0.00835682
0.00839544
0.00848054
0.00861693
0.00880714
0.00905105
0.00934519
0.00968268
0.010053
0.0104423
0.010834
0.0112097
0.0115501
0.0118356
0.012048
0.01217
0.012188
0.0120962
0.0119343
0.0117025
0.0114094
0.0110636
0.0106734
0.0102469
0.00979119
0.00931316
0.00881886
0.00831374
0.0078026
0.00728965
0.00677847
0.00627208
0.00577299
0.00528324
0.00480445
0.00433786
0.00388441
0.00344479
0.00301945
0.00260865
0.00221253
0.0018311
0.00146429
0.00111188
0.000772964
0.000447385
0.000138681
0.0108376
0.0108659
0.0109122
0.0109829
0.0110838
0.0112199
0.0113945
0.0116091
0.0118627
0.0121514
0.0124684
0.0128033
0.0131431
0.013472
0.0137728
0.0140274
0.0142177
0.0143265
0.0143377
0.0142386
0.0140357
0.0137728
0.013442
0.013052
0.0126117
0.0121297
0.0116138
0.0110715
0.0105097
0.00993448
0.00935127
0.00876489
0.00817948
0.00759857
0.0070251
0.0064615
0.0059097
0.00537123
0.00484729
0.00433874
0.00384619
0.00337006
0.00291055
0.00246774
0.00204157
0.00163193
0.00123853
0.000860362
0.000497186
0.000152635
0.0132131
0.0133246
0.0134477
0.0135875
0.0137484
0.0139338
0.014146
0.0143855
0.0146506
0.0149372
0.015238
0.0155431
0.0158397
0.0161128
0.0163461
0.0165223
0.0166243
0.0166359
0.0165419
0.0163305
0.0160196
0.0156578
0.015229
0.0147426
0.0142078
0.0136331
0.013027
0.0123968
0.0117497
0.0110917
0.0104285
0.00976479
0.00910473
0.00845179
0.00780886
0.00717828
0.00656196
0.00596136
0.00537762
0.00481158
0.00426381
0.00373467
0.00322434
0.00273281
0.00226
0.00180571
0.00136959
0.000950525
0.000548194
0.000166271
0.0155784
0.0157704
0.015968
0.0161747
0.0163939
0.0166278
0.0168777
0.0171431
0.0174218
0.0177092
0.0179981
0.0182783
0.0185376
0.0187613
0.0189335
0.0190378
0.0190578
0.0189781
0.018784
0.0184644
0.0180483
0.0175893
0.0170637
0.0164813
0.0158517
0.015184
0.0144865
0.0137673
0.0130333
0.0122909
0.0115458
0.0108026
0.0100657
0.00933837
0.00862352
0.00792348
0.00724012
0.0065749
0.00592892
0.00530301
0.00469772
0.00411337
0.00355008
0.00300782
0.00248641
0.00198562
0.00150501
0.00104335
0.000600245
0.000179366
0.0179351
0.0182057
0.018476
0.0187484
0.0190251
0.0193072
0.0195952
0.019888
0.0201826
0.020474
0.0207548
0.021015
0.0212422
0.0214221
0.0215392
0.0215776
0.0215213
0.0213553
0.0210657
0.0206416
0.0201229
0.0195683
0.0189467
0.0182687
0.0175442
0.0167827
0.0159931
0.0151835
0.0143612
0.0135327
0.0127036
0.011879
0.0110628
0.0102587
0.00946939
0.00869735
0.00794442
0.00721207
0.00650143
0.00581328
0.00514817
0.00450638
0.003888
0.00329293
0.00272095
0.00217173
0.00164478
0.00113875
0.000653175
0.000191672
0.0202848
0.0206328
0.0209747
0.0213122
0.0216461
0.021977
0.0223041
0.0226259
0.0229388
0.0232374
0.023514
0.0237585
0.0239585
0.0241
0.0241675
0.0241453
0.0240178
0.0237704
0.0233893
0.0228641
0.022245
0.0215961
0.0208794
0.020106
0.0192864
0.0184306
0.0175479
0.0166467
0.0157345
0.014818
0.013903
0.0129945
0.0120967
0.0112132
0.0103469
0.00950032
0.00867529
0.00787334
0.00709558
0.00634283
0.00561559
0.00491411
0.00423844
0.00358844
0.00296381
0.00236416
0.00178893
0.00123666
0.000706799
0.000202903
0.0226291
0.0230538
0.0234671
0.0238695
0.0242612
0.0246416
0.0250094
0.0253622
0.025696
0.0260051
0.0262813
0.0265143
0.0266919
0.0267997
0.0268226
0.0267448
0.026551
0.0262265
0.0257578
0.0251346
0.024417
0.0236752
0.022864
0.0219953
0.0210803
0.0201296
0.0191527
0.0181584
0.0171546
0.0161481
0.0151448
0.01415
0.0131681
0.0122027
0.0112569
0.0103331
0.00943347
0.0085594
0.00771208
0.0068923
0.00610055
0.00533706
0.00460183
0.00389466
0.00321521
0.00256303
0.00193746
0.00133697
0.000760894
0.000212732
0.0249695
0.025471
0.0259559
0.0264238
0.0268741
0.0273054
0.0277157
0.0281019
0.0284595
0.0287822
0.0290618
0.0292876
0.0294471
0.0295261
0.0295092
0.0293806
0.0291248
0.0287274
0.0281746
0.0274561
0.026642
0.0258083
0.0249032
0.0239393
0.0229285
0.0218819
0.0208095
0.0197206
0.0186231
0.0175244
0.0164305
0.015347
0.0142783
0.0132284
0.0122004
0.0111969
0.01022
0.00927128
0.00835185
0.00746252
0.00660377
0.00577582
0.00497863
0.00421195
0.00347539
0.00276843
0.00209035
0.00143952
0.000815197
0.000220781
0.0273077
0.0278864
0.0284436
0.0289781
0.0294884
0.0299724
0.0304273
0.0308495
0.031234
0.0315739
0.0318607
0.0320835
0.0322294
0.0322841
0.032232
0.0320571
0.0317437
0.0312772
0.0306436
0.0298325
0.0289236
0.027999
0.0270003
0.0259411
0.0248338
0.0236902
0.0225209
0.0213353
0.0201421
0.0189488
0.0177619
0.016587
0.015429
0.0142919
0.0131791
0.0120932
0.0110364
0.0100103
0.00901603
0.00805449
0.00712613
0.00623113
0.00536942
0.00454074
0.00374461
0.00298048
0.00224756
0.00154414
0.000869406
0.000226629
0.0296451
0.0303019
0.0309327
0.0315354
0.0321075
0.0326463
0.0331485
0.0336096
0.0340242
0.034385
0.034683
0.034907
0.0350439
0.0350789
0.0349961
0.0347793
0.0344124
0.0338804
0.0331691
0.032268
0.0312659
0.0302512
0.0291592
0.0280042
0.0267995
0.0255575
0.0242894
0.0230052
0.021714
0.0204237
0.0191411
0.0178723
0.0166223
0.0153954
0.0141949
0.0130238
0.0118843
0.0107779
0.00970606
0.00866948
0.0076687
0.00670388
0.00577493
0.00488155
0.00402322
0.00319935
0.00240909
0.00165068
0.000923217
0.000229812
0.0319832
0.0327196
0.0334255
0.0340982
0.0347344
0.0353307
0.035883
0.0363863
0.0368346
0.0372202
0.0375337
0.0377633
0.0378956
0.0379155
0.0378066
0.0375521
0.0371357
0.0365419
0.035756
0.0347671
0.0336731
0.0325689
0.0313835
0.0301322
0.028829
0.027487
0.0261182
0.0247332
0.0233416
0.0219518
0.020571
0.0192056
0.0178609
0.0165412
0.0152503
0.013991
0.0127657
0.0115761
0.0104236
0.00930901
0.00823284
0.00719525
0.00619613
0.00523516
0.00431179
0.00342539
0.0025751
0.00175908
0.000976366
0.000229843
0.0343232
0.0351409
0.0359241
0.0366692
0.0373721
0.0380288
0.0386345
0.0391836
0.0396696
0.0400843
0.0404176
0.0406574
0.0407899
0.0407993
0.0406687
0.040381
0.0399189
0.0392666
0.0384089
0.0373344
0.0361497
0.0349564
0.0336774
0.0323289
0.0309259
0.0294822
0.0280107
0.0265227
0.0250282
0.0235364
0.0220547
0.0205899
0.0191475
0.0177322
0.0163477
0.0149971
0.0136829
0.012407
0.0111707
0.00997498
0.00882028
0.00770678
0.00663438
0.0056027
0.00461122
0.00365927
0.00274597
0.00186943
0.00102865
0.000226197
0.0366664
0.0375676
0.0384305
0.0392506
0.0400233
0.0407438
0.0414066
0.0420056
0.0425335
0.0429817
0.0433396
0.0435945
0.043732
0.0437356
0.043588
0.0432712
0.0427674
0.0420599
0.041133
0.0399748
0.0387004
0.0374182
0.0360452
0.0345985
0.0330942
0.0315471
0.0299708
0.0283774
0.0267777
0.0251811
0.0235958
0.0220286
0.0204855
0.0189712
0.01749
0.0160449
0.0146386
0.0132731
0.0119499
0.0106697
0.00943326
0.00824059
0.00709159
0.0059859
0.00492296
0.00390212
0.00292247
0.0019821
0.00107999
0.000218323
0.0390138
0.040001
0.0409463
0.0418446
0.0426906
0.0434786
0.0442026
0.0448559
0.0454305
0.0459172
0.0463047
0.0465797
0.0467272
0.04673
0.0465699
0.0462282
0.0456864
0.044927
0.0439335
0.0426933
0.04133
0.0399589
0.0384913
0.0369454
0.0353383
0.033686
0.0320028
0.0303017
0.0285941
0.02689
0.0251979
0.0235251
0.021878
0.0202615
0.0186802
0.0171373
0.0156357
0.0141775
0.012764
0.0113962
0.0100747
0.0087995
0.00757052
0.00638734
0.00524937
0.00415592
0.00310608
0.00209797
0.00113058
0.000205682
0.0413662
0.0424423
0.0434732
0.0444532
0.0453764
0.0462362
0.047026
0.0477384
0.0483648
0.0488952
0.0493176
0.0496182
0.0497809
0.0497878
0.04962
0.0492578
0.0486818
0.0478736
0.0468159
0.0454953
0.0440437
0.0425838
0.0410209
0.0393747
0.0376634
0.035904
0.0341117
0.0323003
0.0304819
0.028667
0.0268648
0.0250831
0.0233285
0.0216064
0.0199216
0.0182777
0.0166775
0.0151232
0.0136164
0.0121579
0.0107482
0.00938734
0.00807512
0.00681099
0.00559425
0.00442414
0.00329968
0.00221901
0.00118123
0.000187796
0.0437242
0.0448924
0.0460126
0.0470784
0.0480829
0.0490193
0.04988
0.0506568
0.0513405
0.0519203
0.0523834
0.0527151
0.0528984
0.0529147
0.052744
0.0523657
0.0517593
0.0509055
0.049786
0.0483867
0.0468474
0.0452984
0.0436397
0.0418921
0.040075
0.0382064
0.0363025
0.034378
0.0324456
0.0305166
0.0286008
0.0267065
0.0248407
0.0230095
0.0212178
0.0194694
0.0177674
0.0161141
0.0145109
0.0129588
0.0114583
0.0100092
0.00861107
0.0072632
0.00596459
0.00471419
0.00351072
0.00235192
0.0012366
0.000165944
0.0460884
0.0473524
0.0485658
0.0497217
0.0508126
0.0518306
0.0527676
0.0536147
0.0543617
0.0549969
0.0555067
0.0558754
0.0560852
0.0561163
0.0559477
0.0555578
0.054925
0.0540288
0.0528502
0.0513737
0.0497473
0.0481093
0.0463541
0.0445039
0.0425792
0.0405992
0.038581
0.0365401
0.0344902
0.0324434
0.0304101
0.0283992
0.0264186
0.0244745
0.0225722
0.0207158
0.0189088
0.0171533
0.0154511
0.0138031
0.0122096
0.0106706
0.00918542
0.00775291
0.00637162
0.00503981
0.00375538
0.00251477
0.00131341
0.000145696
0.0484589
0.0498226
0.0511339
0.0523848
0.0535672
0.0546726
0.055692
0.0566155
0.0574322
0.0581292
0.0586922
0.0591043
0.0593466
0.0593983
0.0592372
0.0588404
0.0581854
0.0572504
0.0560152
0.0544633
0.0527505
0.0510233
0.0491709
0.0472167
0.0451824
0.0430883
0.0409527
0.038792
0.0366209
0.0344522
0.0322973
0.0301659
0.0280662
0.0260051
0.0239883
0.0220203
0.0201045
0.0182436
0.0164394
0.0146931
0.0130051
0.0113756
0.00980389
0.00828918
0.00683002
0.00542444
0.00407033
0.00276706
0.00151331
0.000251615
0.0508357
0.0523037
0.0537176
0.055069
0.0563488
0.0575477
0.0586559
0.0596626
0.0605557
0.0613216
0.0619445
0.0624067
0.062688
0.0627664
0.0626184
0.0622201
0.0615473
0.0605773
0.0592884
0.057663
0.0558645
0.0540481
0.0520975
0.0500376
0.0478914
0.0456804
0.0434239
0.0411396
0.0388432
0.0365485
0.0342677
0.0320112
0.029788
0.0276055
0.0254697
0.0233855
0.0213568
0.0193865
0.0174767
0.0156288
0.0138439
0.0121226
0.0104652
0.00887215
0.00734392
0.00588086
0.00448398
0.00316036
0.00192629
0.000714788
0.0532186
0.0547957
0.0563177
0.0577753
0.0591588
0.0604579
0.0616619
0.0627589
0.0637358
0.0645779
0.0652682
0.0657876
0.0661148
0.0662265
0.0660979
0.0657036
0.0650181
0.0640171
0.0626776
0.0609809
0.0590974
0.0571915
0.0551417
0.0529741
0.0507133
0.0483821
0.0460011
0.0435892
0.0411632
0.038738
0.0363266
0.0339403
0.0315886
0.0292795
0.0270197
0.0248142
0.0226674
0.0205823
0.0185613
0.016606
0.0147177
0.012897
0.0111443
0.00945939
0.00784179
0.00629005
0.00480091
0.00337306
0.0020172
0.000712059
0.0556071
0.0572988
0.0589346
0.0605048
0.0619987
0.0634051
0.0647123
0.0659073
0.0669759
0.067902
0.0686675
0.0692519
0.0696326
0.0697848
0.0696822
0.069298
0.0686052
0.0675777
0.0661912
0.0644252
0.0624575
0.0604617
0.0583113
0.0560339
0.0536557
0.0512008
0.0486914
0.0461477
0.0435876
0.041027
0.03848
0.0359586
0.033473
0.0310319
0.0286422
0.0263095
0.0240383
0.0218319
0.0196927
0.0176227
0.0156229
0.013694
0.0118359
0.0100481
0.00832938
0.00667832
0.00509224
0.00356829
0.00211174
0.000719295
0.0580007
0.0598124
0.0615684
0.0632579
0.0648694
0.0663908
0.0678092
0.0691105
0.0702791
0.0712977
0.0721469
0.0728047
0.0732469
0.0734475
0.0733783
0.0730109
0.0723167
0.0712675
0.0698374
0.0680045
0.0659535
0.0638674
0.0616149
0.0592254
0.0567267
0.0541445
0.0515027
0.0488226
0.0461235
0.0434225
0.0407345
0.0380723
0.035447
0.0328677
0.0303418
0.0278754
0.0254732
0.0231387
0.0208748
0.0186835
0.016566
0.0145232
0.0125548
0.0106603
0.00883889
0.00708919
0.00540958
0.00379737
0.00224998
0.000758237
0.0603981
0.0623361
0.064219
0.066035
0.0677719
0.0694164
0.0709545
0.0723707
0.0736484
0.0747687
0.0757106
0.0764509
0.0769637
0.0772211
0.0771933
0.0768498
0.0761607
0.0750949
0.0736253
0.071728
0.0695943
0.0674174
0.0650613
0.0625573
0.0599349
0.0572218
0.0544431
0.051622
0.0487788
0.0459318
0.0430969
0.0402879
0.0375166
0.0347926
0.0321239
0.0295171
0.0269771
0.0245082
0.0221135
0.0197951
0.0175546
0.0153926
0.0133089
0.0113032
0.00937439
0.00752161
0.00574491
0.00404864
0.00243689
0.000870503
0.0627983
0.064869
0.0668857
0.068836
0.0707064
0.0724827
0.0741496
0.0756903
0.0770867
0.0783185
0.0793633
0.0801959
0.0807888
0.0811123
0.0811346
0.0808231
0.0801451
0.0790687
0.0775638
0.0756048
0.0733893
0.0711212
0.0686601
0.0660392
0.06329
0.0604419
0.0575219
0.0545546
0.0515617
0.0485628
0.0455748
0.0426125
0.0396883
0.0368127
0.0339943
0.03124
0.0285557
0.0259459
0.0234141
0.0209628
0.0185934
0.0163068
0.0141028
0.0119812
0.00994126
0.00798145
0.00610024
0.00430282
0.00260152
0.000950026
0.0651995
0.0674096
0.0695677
0.0716604
0.0736731
0.0755905
0.0773959
0.0790713
0.0805969
0.0819509
0.0831092
0.0840448
0.0847284
0.085128
0.0852096
0.0849385
0.0842792
0.083198
0.0816624
0.0796447
0.0773486
0.0749891
0.0724216
0.0696813
0.066802
0.0638148
0.0607487
0.0576296
0.0544811
0.0513239
0.0481761
0.0450535
0.0419692
0.0389346
0.0359589
0.03305
0.0302141
0.0274563
0.0247802
0.0221885
0.0196827
0.0172635
0.0149309
0.0126847
0.0105239
0.00844689
0.00645042
0.00453495
0.00271605
0.000965565
0.0675997
0.0699564
0.0722638
0.0745074
0.0766717
0.0787401
0.0806944
0.0825153
0.0841814
0.0856693
0.0869528
0.0880031
0.0887886
0.0892751
0.0894261
0.0892043
0.0885719
0.0874924
0.0859312
0.0838581
0.0814828
0.0790319
0.0763567
0.0734948
0.0704818
0.0673512
0.0641337
0.0608571
0.0575466
0.0542242
0.0509094
0.0476188
0.0443668
0.0411654
0.0380248
0.0349535
0.0319583
0.0290446
0.0262161
0.0234754
0.020824
0.0182629
0.0157921
0.0134111
0.0111191
0.0089147
0.00679567
0.0047613
0.00282022
0.000965703
0.0699965
0.0725072
0.0749721
0.0773758
0.0797015
0.0819313
0.0840458
0.0860239
0.0878428
0.089477
0.0908984
0.0920759
0.0929756
0.0935606
0.0937918
0.0936294
0.0930323
0.0919619
0.0903806
0.0882561
0.0858033
0.0832612
0.0804771
0.077491
0.0743409
0.0710623
0.0676879
0.0642476
0.0607682
0.0572733
0.0537837
0.0503172
0.0468893
0.043513
0.0401996
0.0369579
0.0337954
0.0307175
0.0277282
0.0248306
0.0220265
0.0193171
0.016703
0.0141839
0.0117591
0.00942736
0.007187
0.0050375
0.00298228
0.00101232
0.0723869
0.0750595
0.0776905
0.0802637
0.0827611
0.0851636
0.0874503
0.0895984
0.0915831
0.0933771
0.0949501
0.0962685
0.0972955
0.0979917
0.0983151
0.0982224
0.0976704
0.0966169
0.0950219
0.0928503
0.0903221
0.0876891
0.0847951
0.0816823
0.0783912
0.0749597
0.0714227
0.0678121
0.0641567
0.0604815
0.056809
0.0531582
0.049546
0.0459866
0.0424918
0.0390713
0.0357327
0.032482
0.0293238
0.0262615
0.0232976
0.0204335
0.01767
0.0150067
0.0124426
0.00997641
0.00760615
0.00533174
0.00315677
0.00106973
0.0747676
0.0776099
0.0804161
0.0831688
0.085849
0.0884361
0.0909076
0.0932392
0.0954041
0.0973725
0.0991118
0.100586
0.101754
0.102575
0.103004
0.102993
0.102496
0.101469
0.0998668
0.0976532
0.0950519
0.0923285
0.0893233
0.0860811
0.0826451
0.0790556
0.07535
0.0715623
0.0677231
0.0638596
0.0599956
0.056152
0.0523468
0.0485953
0.0449101
0.0413014
0.0377775
0.034345
0.031009
0.0277737
0.0246418
0.0216149
0.0186935
0.0158772
0.0131652
0.010556
0.00804796
0.00564117
0.00333991
0.00113214
0.0771344
0.0801548
0.0831455
0.0860882
0.0889626
0.091747
0.0944171
0.0969467
0.0993068
0.101465
0.103387
0.105032
0.106358
0.107319
0.107867
0.10795
0.107521
0.106529
0.104928
0.102677
0.100006
0.0971925
0.0940749
0.0907007
0.0871156
0.0833628
0.0794822
0.0755102
0.0714793
0.0674189
0.0633547
0.0593092
0.0553016
0.0513484
0.0474629
0.043656
0.039937
0.0363131
0.0327903
0.029373
0.0260641
0.0228651
0.0197766
0.0167984
0.0139298
0.0111697
0.00851638
0.00597002
0.0035351
0.00119895
0.0794828
0.0826898
0.0858745
0.0890181
0.092099
0.095094
0.0979771
0.10072
0.103292
0.105658
0.107779
0.109612
0.111113
0.11223
0.112912
0.113105
0.112755
0.111809
0.110218
0.107937
0.105198
0.102295
0.0990638
0.0955546
0.0918162
0.0878946
0.0838323
0.0796683
0.0754375
0.0711714
0.0668978
0.0626406
0.0584207
0.0542552
0.0501588
0.0461433
0.042219
0.038394
0.0346746
0.0310655
0.0275696
0.0241887
0.0209234
0.017774
0.01474
0.0118204
0.00901348
0.00631925
0.00374247
0.00126994
0.0818073
0.0852096
0.0885984
0.0919542
0.0952543
0.098474
0.101586
0.104559
0.10736
0.10995
0.112289
0.114331
0.116024
0.117316
0.118149
0.118467
0.11821
0.117323
0.11575
0.113445
0.110642
0.10765
0.104304
0.100657
0.0967607
0.0926645
0.0884136
0.0840497
0.0796104
0.0751295
0.0706366
0.0661575
0.0617142
0.0573255
0.053007
0.048772
0.0446318
0.0405951
0.0366685
0.0328568
0.0291632
0.0255897
0.0221376
0.0188073
0.0155987
0.0125104
0.00954081
0.00668976
0.00396249
0.00134531
0.084102
0.0877083
0.0913115
0.0948913
0.098424
0.101883
0.10524
0.108461
0.111509
0.114345
0.116922
0.119191
0.121097
0.122583
0.123587
0.124047
0.1239
0.123083
0.12154
0.119217
0.116353
0.113273
0.109811
0.106023
0.101964
0.0976868
0.09324
0.0886681
0.0840113
0.0793058
0.0745832
0.0698711
0.065193
0.0605693
0.0560173
0.0515517
0.0471842
0.0429243
0.0387787
0.0347527
0.0308499
0.0270731
0.0234238
0.0199027
0.0165094
0.0132426
0.0101005
0.00708315
0.00419625
0.00142557
0.0863598
0.0901791
0.0940073
0.0978233
0.101603
0.105317
0.108936
0.112423
0.11574
0.118841
0.121679
0.124197
0.126339
0.128041
0.129237
0.129858
0.129836
0.129105
0.127601
0.125268
0.122346
0.11918
0.1156
0.111667
0.10744
0.102976
0.0983257
0.0935372
0.0886534
0.083713
0.0787496
0.0737928
0.0688681
0.0639976
0.0592003
0.0544919
0.0498849
0.0453891
0.0410121
0.0367596
0.0326361
0.0286446
0.0247871
0.0210641
0.0174752
0.0140193
0.0106945
0.00750094
0.00444479
0.00151114
0.0885732
0.0926145
0.0966783
0.100743
0.104784
0.10877
0.11267
0.116443
0.120049
0.12344
0.126561
0.129354
0.131756
0.133698
0.135107
0.135911
0.136033
0.135403
0.13395
0.131615
0.12864
0.125387
0.121687
0.117605
0.113206
0.108547
0.103685
0.0986706
0.0935498
0.0883634
0.0831477
0.0779342
0.0727507
0.0676212
0.0625661
0.057602
0.0527422
0.0479974
0.0433758
0.0388844
0.0345281
0.0303102
0.0262325
0.0222957
0.0184994
0.0148429
0.0113244
0.00794432
0.00470888
0.00160237
0.0907332
0.0950056
0.0993162
0.103643
0.10796
0.112236
0.116435
0.120517
0.124435
0.128139
0.13157
0.134665
0.137354
0.139562
0.141211
0.14222
0.142507
0.141993
0.140605
0.138277
0.135251
0.131911
0.128089
0.123855
0.119275
0.114414
0.109332
0.104081
0.0987127
0.0932688
0.0877885
0.082306
0.0768512
0.07145
0.0661238
0.0608903
0.0557639
0.0507564
0.0458773
0.0411341
0.0365321
0.032075
0.0277644
0.0236012
0.0195854
0.0157164
0.0119927
0.00841473
0.00498934
0.00169968
0.0928303
0.0973428
0.101911
0.106514
0.111123
0.115706
0.120225
0.124638
0.128894
0.132938
0.136708
0.140134
0.143139
0.145644
0.14756
0.1488
0.149274
0.148896
0.147586
0.145273
0.1422
0.138773
0.134825
0.130432
0.125665
0.120593
0.11528
0.109783
0.104154
0.09844
0.0926826
0.0869184
0.0811794
0.0754928
0.0698815
0.0643645
0.0589575
0.0536737
0.0485236
0.0435151