/*--------------------------------*- C++ -*----------------------------------*\
  =========                 |
  \\      /  F ield         | OpenFOAM: The Open Source CFD Toolbox
   \\    /   O peration     | Website:  https://openfoam.org
    \\  /    A nd           | Version:  9
     \\/     M anipulation  |
\*---------------------------------------------------------------------------*/
FoamFile
{
    format      ascii;
    class       surfaceScalarField;
    location    "0.04";
    object      phi;
}
// * * * * * * * * * * * * * * * * * * * * * * * * * * * * * * * * * * * * * //

dimensions      [0 3 -1 0 0 0 0];

internalField   nonuniform List<scalar> 
9850
(
-1.29807e-07
6.2049e-06
-1.29248e-07
6.11975e-06
-1.28627e-07
6.02874e-06
-1.28069e-07
5.93068e-06
-1.27833e-07
5.82642e-06
-1.2832e-07
5.7207e-06
-1.29957e-07
5.62388e-06
-1.32894e-07
5.55232e-06
-1.36664e-07
5.5248e-06
-1.4031e-07
5.55429e-06
-1.42824e-07
5.64175e-06
-1.43834e-07
5.77367e-06
-1.43629e-07
5.9298e-06
-1.42752e-07
6.09225e-06
-1.41652e-07
6.24998e-06
-1.4058e-07
6.39828e-06
-1.39634e-07
6.53636e-06
-1.38828e-07
6.66517e-06
-1.38146e-07
6.7861e-06
-1.37558e-07
6.9003e-06
-1.37108e-07
5.71855e-06
-1.36737e-07
5.51443e-06
-1.36434e-07
5.3109e-06
-1.36183e-07
5.10969e-06
-1.35971e-07
4.91196e-06
-1.35789e-07
4.71848e-06
-1.3563e-07
4.52971e-06
-1.35491e-07
4.34597e-06
-1.35369e-07
4.1675e-06
-1.35261e-07
3.99442e-06
-1.35166e-07
3.82682e-06
-1.35082e-07
3.66476e-06
-1.35009e-07
3.50824e-06
-1.34944e-07
3.35724e-06
-1.34887e-07
3.2117e-06
-1.34837e-07
3.07156e-06
-1.34794e-07
2.93673e-06
-1.34756e-07
2.80711e-06
-1.34723e-07
2.68259e-06
-1.34695e-07
2.56304e-06
-1.34671e-07
2.44833e-06
-1.3465e-07
2.33834e-06
-1.34633e-07
2.23293e-06
-1.3462e-07
2.13196e-06
-1.34609e-07
2.03528e-06
-1.34601e-07
1.94276e-06
-1.34597e-07
1.85423e-06
-1.34601e-07
1.76957e-06
-1.34624e-07
1.68872e-06
1.61168e-06
-1.21456e-07
6.2037e-06
-1.2015e-07
6.11844e-06
-1.18854e-07
6.02744e-06
-1.17912e-07
5.92974e-06
-1.17945e-07
5.82645e-06
-1.19787e-07
5.72254e-06
-1.24201e-07
5.6283e-06
-1.31312e-07
5.55943e-06
-1.40072e-07
5.53356e-06
-1.48539e-07
5.56276e-06
-1.5472e-07
5.64793e-06
-1.57725e-07
5.77668e-06
-1.57934e-07
5.93001e-06
-1.56358e-07
6.09068e-06
-1.53972e-07
6.24759e-06
-1.51417e-07
6.39572e-06
-1.49014e-07
6.53396e-06
-1.46874e-07
6.66303e-06
-1.45001e-07
6.78423e-06
-1.43355e-07
6.89865e-06
-1.42118e-07
5.71731e-06
-1.41073e-07
5.51339e-06
-1.402e-07
5.31003e-06
-1.39468e-07
5.10896e-06
-1.38845e-07
4.91134e-06
-1.38309e-07
4.71794e-06
-1.37843e-07
4.52924e-06
-1.37435e-07
4.34557e-06
-1.37077e-07
4.16714e-06
-1.36762e-07
3.9941e-06
-1.36484e-07
3.82655e-06
-1.3624e-07
3.66452e-06
-1.36025e-07
3.50803e-06
-1.35837e-07
3.35705e-06
-1.35672e-07
3.21154e-06
-1.35528e-07
3.07142e-06
-1.35402e-07
2.93661e-06
-1.35294e-07
2.807e-06
-1.352e-07
2.68249e-06
-1.3512e-07
2.56296e-06
-1.35052e-07
2.44827e-06
-1.34996e-07
2.33829e-06
-1.34951e-07
2.23289e-06
-1.34916e-07
2.13192e-06
-1.3489e-07
2.03526e-06
-1.34873e-07
1.94274e-06
-1.34866e-07
1.85422e-06
-1.34875e-07
1.76958e-06
-1.34916e-07
1.68876e-06
1.61172e-06
-1.14167e-07
6.20202e-06
-1.12447e-07
6.11672e-06
-1.10919e-07
6.02591e-06
-1.10095e-07
5.92892e-06
-1.10807e-07
5.82716e-06
-1.14081e-07
5.72581e-06
-1.20756e-07
5.63497e-06
-1.30824e-07
5.5695e-06
-1.42903e-07
5.54563e-06
-1.5457e-07
5.57443e-06
-1.63373e-07
5.65673e-06
-1.68105e-07
5.78141e-06
-1.69073e-07
5.93098e-06
-1.67432e-07
6.08904e-06
-1.64418e-07
6.24458e-06
-1.60928e-07
6.39223e-06
-1.57472e-07
6.5305e-06
-1.54276e-07
6.65984e-06
-1.51403e-07
6.78135e-06
-1.48829e-07
6.89608e-06
-1.46895e-07
5.71538e-06
-1.45242e-07
5.51173e-06
-1.43844e-07
5.30863e-06
-1.42658e-07
5.10777e-06
-1.41643e-07
4.91033e-06
-1.40767e-07
4.71706e-06
-1.40003e-07
4.52848e-06
-1.39336e-07
4.3449e-06
-1.38749e-07
4.16655e-06
-1.38233e-07
3.99359e-06
-1.37779e-07
3.82609e-06
-1.3738e-07
3.66412e-06
-1.37029e-07
3.50768e-06
-1.36722e-07
3.35674e-06
-1.36453e-07
3.21127e-06
-1.36218e-07
3.07118e-06
-1.36013e-07
2.9364e-06
-1.35837e-07
2.80683e-06
-1.35685e-07
2.68234e-06
-1.35555e-07
2.56283e-06
-1.35446e-07
2.44816e-06
-1.35356e-07
2.3382e-06
-1.35283e-07
2.23281e-06
-1.35227e-07
2.13187e-06
-1.35185e-07
2.03522e-06
-1.35154e-07
1.94271e-06
-1.35133e-07
1.8542e-06
-1.35124e-07
1.76957e-06
-1.35132e-07
1.68877e-06
1.61173e-06
-1.07812e-07
6.20004e-06
-1.05917e-07
6.11483e-06
-1.04428e-07
6.02442e-06
-1.03978e-07
5.92847e-06
-1.05519e-07
5.82871e-06
-1.10147e-07
5.73044e-06
-1.18667e-07
5.64349e-06
-1.30928e-07
5.58176e-06
-1.45345e-07
5.56005e-06
-1.59269e-07
5.58835e-06
-1.70031e-07
5.66749e-06
-1.76226e-07
5.78761e-06
-1.78035e-07
5.93278e-06
-1.76628e-07
6.08763e-06
-1.7336e-07
6.24131e-06
-1.69291e-07
6.38816e-06
-1.65078e-07
6.52629e-06
-1.61054e-07
6.65581e-06
-1.57348e-07
6.77765e-06
-1.5397e-07
6.8927e-06
-1.51418e-07
5.71282e-06
-1.49215e-07
5.50953e-06
-1.47333e-07
5.30675e-06
-1.45724e-07
5.10616e-06
-1.44338e-07
4.90894e-06
-1.43136e-07
4.71586e-06
-1.42087e-07
4.52743e-06
-1.41168e-07
4.34398e-06
-1.4036e-07
4.16574e-06
-1.39649e-07
3.99287e-06
-1.39024e-07
3.82547e-06
-1.38473e-07
3.66357e-06
-1.3799e-07
3.50719e-06
-1.37566e-07
3.35632e-06
-1.37194e-07
3.2109e-06
-1.36871e-07
3.07086e-06
-1.36589e-07
2.93612e-06
-1.36346e-07
2.80658e-06
-1.36137e-07
2.68213e-06
-1.35958e-07
2.56265e-06
-1.35808e-07
2.44801e-06
-1.35682e-07
2.33807e-06
-1.3558e-07
2.23271e-06
-1.35499e-07
2.13179e-06
-1.35436e-07
2.03515e-06
-1.35386e-07
1.94266e-06
-1.35345e-07
1.85416e-06
-1.35309e-07
1.76954e-06
-1.35283e-07
1.68874e-06
1.61171e-06
-1.0238e-07
6.19792e-06
-1.00495e-07
6.11294e-06
-9.92415e-08
6.02317e-06
-9.9328e-08
5.92855e-06
-1.01754e-07
5.83113e-06
-1.07602e-07
5.73629e-06
-1.17581e-07
5.65347e-06
-1.31403e-07
5.59558e-06
-1.47385e-07
5.57603e-06
-1.62827e-07
5.60379e-06
-1.75018e-07
5.67968e-06
-1.82436e-07
5.79502e-06
-1.85116e-07
5.93546e-06
-1.84148e-07
6.08666e-06
-1.80907e-07
6.23807e-06
-1.76544e-07
6.3838e-06
-1.71824e-07
6.52157e-06
-1.67176e-07
6.65116e-06
-1.62796e-07
6.77327e-06
-1.58736e-07
6.88864e-06
-1.55645e-07
5.70973e-06
-1.52953e-07
5.50684e-06
-1.50631e-07
5.30443e-06
-1.48631e-07
5.10416e-06
-1.46898e-07
4.90721e-06
-1.45388e-07
4.71435e-06
-1.44068e-07
4.52611e-06
-1.42908e-07
4.34282e-06
-1.41887e-07
4.16472e-06
-1.40989e-07
3.99198e-06
-1.40197e-07
3.82468e-06
-1.395e-07
3.66287e-06
-1.38888e-07
3.50658e-06
-1.38351e-07
3.35578e-06
-1.37881e-07
3.21043e-06
-1.37471e-07
3.07045e-06
-1.37114e-07
2.93577e-06
-1.36806e-07
2.80628e-06
-1.3654e-07
2.68187e-06
-1.36314e-07
2.56242e-06
-1.36122e-07
2.44782e-06
-1.35962e-07
2.33791e-06
-1.3583e-07
2.23258e-06
-1.35724e-07
2.13168e-06
-1.3564e-07
2.03507e-06
-1.35572e-07
1.94259e-06
-1.35514e-07
1.8541e-06
-1.35462e-07
1.76949e-06
-1.35422e-07
1.6887e-06
1.6117e-06
-9.78611e-08
6.1958e-06
-9.6135e-08
6.11122e-06
-9.52549e-08
6.02229e-06
-9.59688e-08
5.92927e-06
-9.92707e-08
5.83443e-06
-1.06171e-07
5.74319e-06
-1.17253e-07
5.66455e-06
-1.32113e-07
5.61044e-06
-1.49046e-07
5.59296e-06
-1.65422e-07
5.62017e-06
-1.78596e-07
5.69286e-06
-1.86998e-07
5.80342e-06
-1.90521e-07
5.93899e-06
-1.90118e-07
6.08626e-06
-1.87113e-07
6.23506e-06
-1.82686e-07
6.37937e-06
-1.77676e-07
6.51656e-06
-1.72588e-07
6.64608e-06
-1.67685e-07
6.76836e-06
-1.63065e-07
6.88402e-06
-1.59518e-07
5.70619e-06
-1.56399e-07
5.50372e-06
-1.53686e-07
5.30171e-06
-1.5133e-07
5.1018e-06
-1.49277e-07
4.90516e-06
-1.47483e-07
4.71256e-06
-1.45908e-07
4.52453e-06
-1.44521e-07
4.34143e-06
-1.433e-07
4.1635e-06
-1.42223e-07
3.9909e-06
-1.41274e-07
3.82373e-06
-1.40437e-07
3.66204e-06
-1.39702e-07
3.50585e-06
-1.39057e-07
3.35514e-06
-1.38493e-07
3.20986e-06
-1.38e-07
3.06996e-06
-1.37571e-07
2.93534e-06
-1.37201e-07
2.80591e-06
-1.36882e-07
2.68155e-06
-1.36609e-07
2.56215e-06
-1.36379e-07
2.44759e-06
-1.36186e-07
2.33772e-06
-1.36027e-07
2.23242e-06
-1.35898e-07
2.13155e-06
-1.35795e-07
2.03497e-06
-1.35712e-07
1.94251e-06
-1.35643e-07
1.85404e-06
-1.35586e-07
1.76943e-06
-1.35545e-07
1.68866e-06
1.61168e-06
-9.41818e-08
6.19378e-06
-9.27162e-08
6.10975e-06
-9.22906e-08
6.02186e-06
-9.36614e-08
5.93064e-06
-9.77811e-08
5.83855e-06
-1.0556e-07
5.75097e-06
-1.1745e-07
5.67644e-06
-1.32959e-07
5.62595e-06
-1.50411e-07
5.61042e-06
-1.67301e-07
5.63706e-06
-1.81112e-07
5.70667e-06
-1.90276e-07
5.81259e-06
-1.94561e-07
5.94327e-06
-1.94767e-07
6.08646e-06
-1.92123e-07
6.23242e-06
-1.87795e-07
6.37504e-06
-1.82662e-07
6.51142e-06
-1.7729e-07
6.6407e-06
-1.71996e-07
6.76307e-06
-1.66928e-07
6.87895e-06
-1.63001e-07
5.70226e-06
-1.59515e-07
5.50023e-06
-1.56457e-07
5.29866e-06
-1.53783e-07
5.09913e-06
-1.51441e-07
4.90281e-06
-1.49384e-07
4.7105e-06
-1.47573e-07
4.52272e-06
-1.45976e-07
4.33983e-06
-1.44567e-07
4.16209e-06
-1.43322e-07
3.98965e-06
-1.42225e-07
3.82263e-06
-1.41257e-07
3.66107e-06
-1.40406e-07
3.505e-06
-1.39658e-07
3.35439e-06
-1.39004e-07
3.20921e-06
-1.38433e-07
3.06939e-06
-1.37937e-07
2.93484e-06
-1.37507e-07
2.80548e-06
-1.37138e-07
2.68118e-06
-1.36822e-07
2.56184e-06
-1.36555e-07
2.44732e-06
-1.36332e-07
2.3375e-06
-1.36147e-07
2.23224e-06
-1.35998e-07
2.1314e-06
-1.35878e-07
2.03485e-06
-1.35782e-07
1.94241e-06
-1.35705e-07
1.85396e-06
-1.35646e-07
1.76937e-06
-1.35607e-07
1.68862e-06
1.61167e-06
-9.12376e-08
6.19194e-06
-9.0095e-08
6.10861e-06
-9.01584e-08
6.02193e-06
-9.21712e-08
5.93265e-06
-9.70245e-08
5.84341e-06
-1.0552e-07
5.75946e-06
-1.17987e-07
5.68891e-06
-1.33871e-07
5.64183e-06
-1.51549e-07
5.62809e-06
-1.68671e-07
5.65418e-06
-1.82868e-07
5.72086e-06
-1.92603e-07
5.82232e-06
-1.97545e-07
5.94821e-06
-1.98346e-07
6.08726e-06
-1.96122e-07
6.2302e-06
-1.91997e-07
6.37092e-06
-1.86861e-07
6.50629e-06
-1.81323e-07
6.63516e-06
-1.75747e-07
6.75749e-06
-1.70325e-07
6.87353e-06
-1.66084e-07
5.69802e-06
-1.62285e-07
5.49643e-06
-1.58926e-07
5.2953e-06
-1.55968e-07
5.09617e-06
-1.53365e-07
4.90021e-06
-1.51069e-07
4.7082e-06
-1.49041e-07
4.52069e-06
-1.47249e-07
4.33804e-06
-1.45664e-07
4.16051e-06
-1.44263e-07
3.98825e-06
-1.43025e-07
3.82139e-06
-1.41934e-07
3.65998e-06
-1.40973e-07
3.50404e-06
-1.40129e-07
3.35355e-06
-1.3939e-07
3.20847e-06
-1.38745e-07
3.06874e-06
-1.38184e-07
2.93428e-06
-1.37699e-07
2.80499e-06
-1.37281e-07
2.68076e-06
-1.36925e-07
2.56148e-06
-1.36623e-07
2.44702e-06
-1.36371e-07
2.33725e-06
-1.36163e-07
2.23203e-06
-1.35994e-07
2.13123e-06
-1.35858e-07
2.03471e-06
-1.35751e-07
1.94231e-06
-1.35667e-07
1.85388e-06
-1.35605e-07
1.76931e-06
-1.35566e-07
1.68858e-06
1.61166e-06
-8.8941e-08
6.19032e-06
-8.81553e-08
6.10782e-06
-8.87124e-08
6.02248e-06
-9.13277e-08
5.93527e-06
-9.6821e-08
5.8489e-06
-1.05886e-07
5.76853e-06
-1.18745e-07
5.70177e-06
-1.348e-07
5.65789e-06
-1.525e-07
5.64579e-06
-1.69652e-07
5.67133e-06
-1.84046e-07
5.73526e-06
-1.94195e-07
5.83247e-06
-1.99689e-07
5.95371e-06
-2.01044e-07
6.08862e-06
-1.99259e-07
6.22841e-06
-1.95399e-07
6.36706e-06
-1.90345e-07
6.50123e-06
-1.84732e-07
6.62955e-06
-1.78962e-07
6.75173e-06
-1.73266e-07
6.86783e-06
-1.68767e-07
5.69352e-06
-1.64703e-07
5.49237e-06
-1.61081e-07
5.29168e-06
-1.57873e-07
5.09296e-06
-1.55033e-07
4.89737e-06
-1.5252e-07
4.70569e-06
-1.50293e-07
4.51847e-06
-1.4832e-07
4.33607e-06
-1.46571e-07
4.15876e-06
-1.45023e-07
3.98671e-06
-1.43655e-07
3.82002e-06
-1.42446e-07
3.65877e-06
-1.41382e-07
3.50297e-06
-1.40447e-07
3.35261e-06
-1.39627e-07
3.20765e-06
-1.38912e-07
3.06803e-06
-1.38289e-07
2.93366e-06
-1.37751e-07
2.80445e-06
-1.37288e-07
2.6803e-06
-1.36893e-07
2.56109e-06
-1.36559e-07
2.44668e-06
-1.36279e-07
2.33697e-06
-1.36048e-07
2.2318e-06
-1.35861e-07
2.13105e-06
-1.3571e-07
2.03456e-06
-1.35592e-07
1.94219e-06
-1.355e-07
1.85378e-06
-1.35434e-07
1.76924e-06
-1.35394e-07
1.68854e-06
1.61164e-06
-8.72262e-08
6.18896e-06
-8.68117e-08
6.10741e-06
-8.78481e-08
6.02352e-06
-9.10135e-08
5.93843e-06
-9.7052e-08
5.85494e-06
-1.06554e-07
5.77803e-06
-1.19651e-07
5.71487e-06
-1.35719e-07
5.67395e-06
-1.53286e-07
5.66336e-06
-1.70318e-07
5.68836e-06
-1.8476e-07
5.7497e-06
-1.95187e-07
5.8429e-06
-2.01133e-07
5.95965e-06
-2.0299e-07
6.09048e-06
-2.01642e-07
6.22706e-06
-1.98081e-07
6.3635e-06
-1.93168e-07
6.49632e-06
-1.8755e-07
6.62393e-06
-1.81659e-07
6.74584e-06
-1.75755e-07
6.86193e-06
-1.71048e-07
5.68881e-06
-1.66761e-07
5.48808e-06
-1.62912e-07
5.28783e-06
-1.59482e-07
5.08953e-06
-1.56431e-07
4.89432e-06
-1.5372e-07
4.70298e-06
-1.51311e-07
4.51606e-06
-1.4917e-07
4.33393e-06
-1.4727e-07
4.15686e-06
-1.45586e-07
3.98502e-06
-1.44094e-07
3.81853e-06
-1.42776e-07
3.65745e-06
-1.41613e-07
3.50181e-06
-1.40592e-07
3.35159e-06
-1.39696e-07
3.20675e-06
-1.38913e-07
3.06724e-06
-1.38233e-07
2.93298e-06
-1.37645e-07
2.80387e-06
-1.37138e-07
2.6798e-06
-1.36706e-07
2.56065e-06
-1.3634e-07
2.44632e-06
-1.36035e-07
2.33666e-06
-1.35782e-07
2.23155e-06
-1.35577e-07
2.13084e-06
-1.35412e-07
2.0344e-06
-1.35283e-07
1.94206e-06
-1.35185e-07
1.85369e-06
-1.35115e-07
1.76917e-06
-1.35072e-07
1.6885e-06
1.61163e-06
-8.60353e-08
6.18788e-06
-8.59913e-08
6.10736e-06
-8.74797e-08
6.02501e-06
-9.11353e-08
5.94209e-06
-9.76262e-08
5.86143e-06
-1.07449e-07
5.78785e-06
-1.20656e-07
5.72807e-06
-1.36612e-07
5.68991e-06
-1.53929e-07
5.68068e-06
-1.70725e-07
5.70516e-06
-1.85097e-07
5.76407e-06
-1.95687e-07
5.85349e-06
-2.01988e-07
5.96596e-06
-2.04288e-07
6.09278e-06
-2.03356e-07
6.22613e-06
-2.00109e-07
6.36025e-06
-1.95378e-07
6.49159e-06
-1.89808e-07
6.61836e-06
-1.83852e-07
6.73988e-06
-1.77798e-07
6.85588e-06
-1.72925e-07
5.68394e-06
-1.68451e-07
5.48361e-06
-1.64408e-07
5.28379e-06
-1.60783e-07
5.08591e-06
-1.57544e-07
4.89108e-06
-1.54654e-07
4.70009e-06
-1.52078e-07
4.51348e-06
-1.49784e-07
4.33164e-06
-1.47743e-07
4.15482e-06
-1.45931e-07
3.98321e-06
-1.44324e-07
3.81692e-06
-1.42903e-07
3.65603e-06
-1.41648e-07
3.50056e-06
-1.40545e-07
3.35049e-06
-1.39577e-07
3.20579e-06
-1.38731e-07
3.0664e-06
-1.37996e-07
2.93224e-06
-1.37359e-07
2.80323e-06
-1.36812e-07
2.67925e-06
-1.36344e-07
2.56019e-06
-1.35949e-07
2.44592e-06
-1.35618e-07
2.33633e-06
-1.35345e-07
2.23128e-06
-1.35123e-07
2.13062e-06
-1.34946e-07
2.03422e-06
-1.34807e-07
1.94192e-06
-1.34702e-07
1.85358e-06
-1.34628e-07
1.7691e-06
-1.34584e-07
1.68845e-06
1.61161e-06
-8.53111e-08
6.18708e-06
-8.5625e-08
6.10768e-06
-8.75292e-08
6.02691e-06
-9.16118e-08
5.94617e-06
-9.84673e-08
5.86829e-06
-1.08507e-07
5.79789e-06
-1.21721e-07
5.74129e-06
-1.3747e-07
5.70566e-06
-1.54451e-07
5.69766e-06
-1.70925e-07
5.72163e-06
-1.85133e-07
5.77828e-06
-1.95787e-07
5.86414e-06
-2.02355e-07
5.97252e-06
-2.05032e-07
6.09545e-06
-2.04484e-07
6.22558e-06
-2.01551e-07
6.35732e-06
-1.97022e-07
6.48706e-06
-1.91537e-07
6.61288e-06
-1.8556e-07
6.7339e-06
-1.79401e-07
6.84972e-06
-1.74398e-07
5.67894e-06
-1.69771e-07
5.47898e-06
-1.65561e-07
5.27958e-06
-1.61765e-07
5.08211e-06
-1.58358e-07
4.88767e-06
-1.55307e-07
4.69704e-06
-1.52578e-07
4.51075e-06
-1.50143e-07
4.3292e-06
-1.47973e-07
4.15265e-06
-1.46042e-07
3.98128e-06
-1.44328e-07
3.81521e-06
-1.4281e-07
3.65451e-06
-1.41469e-07
3.49921e-06
-1.40288e-07
3.3493e-06
-1.39252e-07
3.20475e-06
-1.38347e-07
3.06549e-06
-1.37559e-07
2.93146e-06
-1.36877e-07
2.80255e-06
-1.3629e-07
2.67866e-06
-1.35789e-07
2.55969e-06
-1.35366e-07
2.4455e-06
-1.35011e-07
2.33598e-06
-1.34719e-07
2.23098e-06
-1.34481e-07
2.13038e-06
-1.34292e-07
2.03403e-06
-1.34144e-07
1.94177e-06
-1.34034e-07
1.85347e-06
-1.33956e-07
1.76902e-06
-1.3391e-07
1.6884e-06
1.6116e-06
-8.49981e-08
6.18656e-06
-8.56491e-08
6.10833e-06
-8.79273e-08
6.02919e-06
-9.23735e-08
5.95062e-06
-9.95131e-08
5.87542e-06
-1.09682e-07
5.80806e-06
-1.22818e-07
5.75442e-06
-1.38289e-07
5.72113e-06
-1.54873e-07
5.71425e-06
-1.70963e-07
5.73772e-06
-1.84934e-07
5.79225e-06
-1.95569e-07
5.87478e-06
-2.02322e-07
5.97928e-06
-2.0531e-07
6.09844e-06
-2.05105e-07
6.22538e-06
-2.02469e-07
6.35468e-06
-1.9815e-07
6.48274e-06
-1.92773e-07
6.6075e-06
-1.86807e-07
6.72794e-06
-1.80579e-07
6.84349e-06
-1.75475e-07
5.67384e-06
-1.70721e-07
5.47423e-06
-1.66368e-07
5.27522e-06
-1.62422e-07
5.07817e-06
-1.58864e-07
4.88412e-06
-1.55667e-07
4.69384e-06
-1.52801e-07
4.50789e-06
-1.50235e-07
4.32664e-06
-1.47945e-07
4.15036e-06
-1.45903e-07
3.97924e-06
-1.44089e-07
3.8134e-06
-1.4248e-07
3.6529e-06
-1.41058e-07
3.49779e-06
-1.39804e-07
3.34805e-06
-1.38704e-07
3.20365e-06
-1.37741e-07
3.06453e-06
-1.36904e-07
2.93062e-06
-1.36179e-07
2.80182e-06
-1.35555e-07
2.67804e-06
-1.35022e-07
2.55915e-06
-1.34572e-07
2.44505e-06
-1.34195e-07
2.3356e-06
-1.33884e-07
2.23067e-06
-1.33632e-07
2.13013e-06
-1.33432e-07
2.03383e-06
-1.33276e-07
1.94162e-06
-1.3316e-07
1.85335e-06
-1.33079e-07
1.76894e-06
-1.33031e-07
1.68836e-06
1.61158e-06
-8.50459e-08
6.1863e-06
-8.60077e-08
6.10929e-06
-8.86158e-08
6.0318e-06
-9.33645e-08
5.95536e-06
-1.00715e-07
5.88278e-06
-1.10938e-07
5.81828e-06
-1.2393e-07
5.76741e-06
-1.39069e-07
5.73627e-06
-1.55211e-07
5.73039e-06
-1.70873e-07
5.75338e-06
-1.8455e-07
5.80593e-06
-1.95098e-07
5.88533e-06
-2.01962e-07
5.98614e-06
-2.05196e-07
6.10168e-06
-2.05288e-07
6.22547e-06
-2.02926e-07
6.35232e-06
-1.98813e-07
6.47863e-06
-1.93554e-07
6.60224e-06
-1.8762e-07
6.722e-06
-1.81349e-07
6.83722e-06
-1.76166e-07
5.66865e-06
-1.71305e-07
5.46937e-06
-1.66828e-07
5.27075e-06
-1.6275e-07
5.07409e-06
-1.59058e-07
4.88043e-06
-1.55728e-07
4.69051e-06
-1.52734e-07
4.50489e-06
-1.50049e-07
4.32395e-06
-1.47646e-07
4.14795e-06
-1.45502e-07
3.97709e-06
-1.43593e-07
3.81149e-06
-1.41899e-07
3.65121e-06
-1.404e-07
3.49629e-06
-1.39077e-07
3.34673e-06
-1.37916e-07
3.20249e-06
-1.36899e-07
3.06351e-06
-1.36014e-07
2.92973e-06
-1.35248e-07
2.80105e-06
-1.34588e-07
2.67738e-06
-1.34025e-07
2.55859e-06
-1.33549e-07
2.44457e-06
-1.33151e-07
2.3352e-06
-1.32823e-07
2.23034e-06
-1.32556e-07
2.12986e-06
-1.32345e-07
2.03362e-06
-1.32181e-07
1.94145e-06
-1.3206e-07
1.85323e-06
-1.31976e-07
1.76885e-06
-1.31925e-07
1.68831e-06
1.61156e-06
-8.54112e-08
6.18629e-06
-8.66541e-08
6.11053e-06
-8.95476e-08
6.03469e-06
-9.45412e-08
5.96036e-06
-1.02038e-07
5.89027e-06
-1.12251e-07
5.8285e-06
-1.25044e-07
5.78021e-06
-1.3981e-07
5.75104e-06
-1.5548e-07
5.74606e-06
-1.70681e-07
5.76858e-06
-1.84021e-07
5.81927e-06
-1.94423e-07
5.89573e-06
-2.01333e-07
5.99305e-06
-2.04753e-07
6.1051e-06
-2.05093e-07
6.22581e-06
-2.02975e-07
6.3502e-06
-1.99055e-07
6.47471e-06
-1.93917e-07
6.59711e-06
-1.88025e-07
6.71611e-06
-1.81728e-07
6.83092e-06
-1.76482e-07
5.66341e-06
-1.71531e-07
5.46442e-06
-1.66946e-07
5.26616e-06
-1.62749e-07
5.06989e-06
-1.58935e-07
4.87661e-06
-1.55484e-07
4.68706e-06
-1.52372e-07
4.50178e-06
-1.49575e-07
4.32115e-06
-1.47067e-07
4.14545e-06
-1.44826e-07
3.97485e-06
-1.42828e-07
3.80949e-06
-1.41053e-07
3.64943e-06
-1.3948e-07
3.49472e-06
-1.38092e-07
3.34534e-06
-1.36872e-07
3.20127e-06
-1.35804e-07
3.06244e-06
-1.34873e-07
2.9288e-06
-1.34067e-07
2.80025e-06
-1.33373e-07
2.67668e-06
-1.32781e-07
2.558e-06
-1.32279e-07
2.44407e-06
-1.3186e-07
2.33478e-06
-1.31514e-07
2.23e-06
-1.31234e-07
2.12958e-06
-1.31012e-07
2.03339e-06
-1.3084e-07
1.94128e-06
-1.30713e-07
1.85311e-06
-1.30625e-07
1.76877e-06
-1.30572e-07
1.68825e-06
1.61154e-06
-8.60577e-08
6.18652e-06
-8.75503e-08
6.11203e-06
-9.06856e-08
6.03783e-06
-9.58703e-08
5.96554e-06
-1.03455e-07
5.89786e-06
-1.13603e-07
5.83865e-06
-1.26152e-07
5.79275e-06
-1.40516e-07
5.7654e-06
-1.5569e-07
5.76123e-06
-1.70406e-07
5.7833e-06
-1.83375e-07
5.83224e-06
-1.93582e-07
5.90593e-06
-2.00481e-07
5.99995e-06
-2.04028e-07
6.10864e-06
-2.04569e-07
6.22635e-06
-2.02662e-07
6.3483e-06
-1.98917e-07
6.47097e-06
-1.93893e-07
6.59208e-06
-1.88048e-07
6.71027e-06
-1.81735e-07
6.82461e-06
-1.76437e-07
5.65811e-06
-1.71407e-07
5.45939e-06
-1.66725e-07
5.26148e-06
-1.6242e-07
5.06559e-06
-1.58493e-07
4.87268e-06
-1.54929e-07
4.6835e-06
-1.51708e-07
4.49856e-06
-1.48805e-07
4.31825e-06
-1.46199e-07
4.14284e-06
-1.43865e-07
3.97252e-06
-1.41782e-07
3.80741e-06
-1.39929e-07
3.64758e-06
-1.38287e-07
3.49308e-06
-1.36836e-07
3.34389e-06
-1.35559e-07
3.19999e-06
-1.34441e-07
3.06133e-06
-1.33466e-07
2.92783e-06
-1.32621e-07
2.7994e-06
-1.31894e-07
2.67595e-06
-1.31272e-07
2.55737e-06
-1.30746e-07
2.44354e-06
-1.30306e-07
2.33434e-06
-1.29943e-07
2.22963e-06
-1.29648e-07
2.12929e-06
-1.29415e-07
2.03316e-06
-1.29234e-07
1.9411e-06
-1.29101e-07
1.85297e-06
-1.29007e-07
1.76867e-06
-1.28951e-07
1.6882e-06
1.61152e-06
-8.6955e-08
6.18695e-06
-8.86654e-08
6.11374e-06
-9.20002e-08
6.04116e-06
-9.73262e-08
5.97087e-06
-1.04947e-07
5.90548e-06
-1.14982e-07
5.84868e-06
-1.27252e-07
5.80502e-06
-1.41187e-07
5.77933e-06
-1.5585e-07
5.7759e-06
-1.70064e-07
5.79751e-06
-1.82634e-07
5.84481e-06
-1.92605e-07
5.9159e-06
-1.99441e-07
6.00679e-06
-2.03063e-07
6.11227e-06
-2.03758e-07
6.22705e-06
-2.02026e-07
6.34656e-06
-1.98434e-07
6.46738e-06
-1.93513e-07
6.58716e-06
-1.87712e-07
6.70447e-06
-1.81387e-07
6.81829e-06
-1.76043e-07
5.65276e-06
-1.70942e-07
5.45429e-06
-1.6617e-07
5.25671e-06
-1.61765e-07
5.06118e-06
-1.57733e-07
4.86865e-06
-1.54062e-07
4.67983e-06
-1.50736e-07
4.49523e-06
-1.47733e-07
4.31525e-06
-1.45032e-07
4.14014e-06
-1.4261e-07
3.97009e-06
-1.40445e-07
3.80524e-06
-1.38518e-07
3.64565e-06
-1.36807e-07
3.49137e-06
-1.35295e-07
3.34238e-06
-1.33963e-07
3.19866e-06
-1.32796e-07
3.06016e-06
-1.31778e-07
2.92681e-06
-1.30896e-07
2.79852e-06
-1.30135e-07
2.67519e-06
-1.29485e-07
2.55672e-06
-1.28934e-07
2.44299e-06
-1.28473e-07
2.33388e-06
-1.28092e-07
2.22925e-06
-1.27783e-07
2.12898e-06
-1.27537e-07
2.03291e-06
-1.27347e-07
1.94091e-06
-1.27206e-07
1.85283e-06
-1.27108e-07
1.76857e-06
-1.27048e-07
1.68814e-06
1.6115e-06
-8.80778e-08
6.18757e-06
-8.99742e-08
6.11563e-06
-9.34681e-08
6.04466e-06
-9.88894e-08
5.97629e-06
-1.06499e-07
5.91309e-06
-1.16381e-07
5.85856e-06
-1.2834e-07
5.81698e-06
-1.41828e-07
5.79282e-06
-1.55968e-07
5.79004e-06
-1.69666e-07
5.81121e-06
-1.81814e-07
5.85696e-06
-1.91514e-07
5.9256e-06
-1.98242e-07
6.01352e-06
-2.0189e-07
6.11591e-06
-2.02694e-07
6.22785e-06
-2.01101e-07
6.34497e-06
-1.97634e-07
6.46391e-06
-1.92801e-07
6.58233e-06
-1.87038e-07
6.6987e-06
-1.80701e-07
6.81195e-06
-1.75312e-07
5.64738e-06
-1.70143e-07
5.44912e-06
-1.65287e-07
5.25185e-06
-1.60787e-07
5.05668e-06
-1.56653e-07
4.86452e-06
-1.5288e-07
4.67605e-06
-1.49453e-07
4.49181e-06
-1.46354e-07
4.31215e-06
-1.43561e-07
4.13734e-06
-1.41052e-07
3.96759e-06
-1.38808e-07
3.803e-06
-1.36807e-07
3.64365e-06
-1.3503e-07
3.48959e-06
-1.33458e-07
3.3408e-06
-1.32072e-07
3.19727e-06
-1.30857e-07
3.05894e-06
-1.29797e-07
2.92575e-06
-1.28877e-07
2.7976e-06
-1.28083e-07
2.6744e-06
-1.27405e-07
2.55604e-06
-1.26829e-07
2.44242e-06
-1.26347e-07
2.3334e-06
-1.25948e-07
2.22885e-06
-1.25624e-07
2.12865e-06
-1.25365e-07
2.03265e-06
-1.25165e-07
1.94071e-06
-1.25016e-07
1.85268e-06
-1.24911e-07
1.76847e-06
-1.24848e-07
1.68807e-06
1.61148e-06
-8.94052e-08
6.18835e-06
-9.14561e-08
6.11768e-06
-9.50708e-08
6.04827e-06
-1.00545e-07
5.98176e-06
-1.08102e-07
5.92064e-06
-1.17794e-07
5.86826e-06
-1.29417e-07
5.8286e-06
-1.42443e-07
5.80585e-06
-1.5605e-07
5.80364e-06
-1.69223e-07
5.82439e-06
-1.80931e-07
5.86867e-06
-1.90328e-07
5.935e-06
-1.96907e-07
6.02009e-06
-2.00535e-07
6.11954e-06
-2.01405e-07
6.22872e-06
-1.99914e-07
6.34348e-06
-1.96546e-07
6.46054e-06
-1.91782e-07
6.57756e-06
-1.86045e-07
6.69297e-06
-1.79689e-07
6.80559e-06
-1.74255e-07
5.64194e-06
-1.69019e-07
5.44388e-06
-1.6408e-07
5.24691e-06
-1.59486e-07
5.05209e-06
-1.55254e-07
4.86028e-06
-1.51381e-07
4.67218e-06
-1.47856e-07
4.48828e-06
-1.44661e-07
4.30895e-06
-1.41778e-07
4.13446e-06
-1.39185e-07
3.96499e-06
-1.36862e-07
3.80067e-06
-1.34789e-07
3.64158e-06
-1.32946e-07
3.48775e-06
-1.31314e-07
3.33917e-06
-1.29875e-07
3.19583e-06
-1.28612e-07
3.05768e-06
-1.27509e-07
2.92464e-06
-1.26551e-07
2.79664e-06
-1.25725e-07
2.67357e-06
-1.25018e-07
2.55534e-06
-1.24418e-07
2.44182e-06
-1.23914e-07
2.33289e-06
-1.23497e-07
2.22843e-06
-1.23157e-07
2.12831e-06
-1.22885e-07
2.03238e-06
-1.22674e-07
1.9405e-06
-1.22516e-07
1.85252e-06
-1.22405e-07
1.76836e-06
-1.22338e-07
1.68801e-06
1.61146e-06
-9.09193e-08
6.18928e-06
-9.30943e-08
6.11986e-06
-9.67938e-08
6.05197e-06
-1.02282e-07
5.98725e-06
-1.09748e-07
5.92811e-06
-1.19221e-07
5.87773e-06
-1.30485e-07
5.83987e-06
-1.43037e-07
5.8184e-06
-1.56104e-07
5.81671e-06
-1.68744e-07
5.83702e-06
-1.79996e-07
5.87992e-06
-1.89065e-07
5.94407e-06
-1.95457e-07
6.02649e-06
-1.99023e-07
6.12311e-06
-1.99916e-07
6.22961e-06
-1.9849e-07
6.34205e-06
-1.95191e-07
6.45724e-06
-1.90474e-07
6.57285e-06
-1.84749e-07
6.68724e-06
-1.78366e-07
6.79921e-06
-1.72882e-07
5.63646e-06
-1.67576e-07
5.43857e-06
-1.62553e-07
5.24189e-06
-1.57866e-07
5.0474e-06
-1.53535e-07
4.85595e-06
-1.49563e-07
4.66821e-06
-1.4594e-07
4.48466e-06
-1.4265e-07
4.30566e-06
-1.39677e-07
4.13149e-06
-1.37e-07
3.96232e-06
-1.34599e-07
3.79827e-06
-1.32454e-07
3.63944e-06
-1.30545e-07
3.48584e-06
-1.28853e-07
3.33748e-06
-1.27361e-07
3.19434e-06
-1.26049e-07
3.05637e-06
-1.24904e-07
2.9235e-06
-1.23908e-07
2.79564e-06
-1.23049e-07
2.67271e-06
-1.22313e-07
2.5546e-06
-1.21687e-07
2.44119e-06
-1.21162e-07
2.33237e-06
-1.20726e-07
2.228e-06
-1.20369e-07
2.12796e-06
-1.20084e-07
2.0321e-06
-1.19862e-07
1.94028e-06
-1.19695e-07
1.85236e-06
-1.19577e-07
1.76824e-06
-1.19505e-07
1.68793e-06
1.61143e-06
-9.26058e-08
6.19032e-06
-9.48756e-08
6.12213e-06
-9.86261e-08
6.05572e-06
-1.04093e-07
5.99272e-06
-1.11436e-07
5.93545e-06
-1.2066e-07
5.88695e-06
-1.31547e-07
5.85075e-06
-1.43615e-07
5.83047e-06
-1.56139e-07
5.82923e-06
-1.68239e-07
5.84912e-06
-1.79021e-07
5.8907e-06
-1.87737e-07
5.95279e-06
-1.93909e-07
6.03266e-06
-1.97373e-07
6.12657e-06
-1.98249e-07
6.23049e-06
-1.96851e-07
6.34065e-06
-1.93591e-07
6.45398e-06
-1.88898e-07
6.56815e-06
-1.83167e-07
6.68151e-06
-1.76744e-07
6.79278e-06
-1.71202e-07
5.63091e-06
-1.65822e-07
5.43319e-06
-1.60711e-07
5.23678e-06
-1.55928e-07
5.04262e-06
-1.51497e-07
4.85152e-06
-1.47424e-07
4.66413e-06
-1.43702e-07
4.48093e-06
-1.40317e-07
4.30228e-06
-1.37253e-07
4.12842e-06
-1.34491e-07
3.95955e-06
-1.32011e-07
3.79579e-06
-1.29793e-07
3.63722e-06
-1.27817e-07
3.48386e-06
-1.26065e-07
3.33573e-06
-1.24518e-07
3.19279e-06
-1.23158e-07
3.05501e-06
-1.21969e-07
2.92231e-06
-1.20935e-07
2.79461e-06
-1.20042e-07
2.67182e-06
-1.19276e-07
2.55383e-06
-1.18624e-07
2.44054e-06
-1.18077e-07
2.33182e-06
-1.17621e-07
2.22754e-06
-1.17249e-07
2.12758e-06
-1.1695e-07
2.0318e-06
-1.16716e-07
1.94004e-06
-1.1654e-07
1.85218e-06
-1.16415e-07
1.76812e-06
-1.16339e-07
1.68786e-06
1.61141e-06
-9.4453e-08
6.19145e-06
-9.67897e-08
6.12446e-06
-1.0056e-07
6.05949e-06
-1.05973e-07
5.99813e-06
-1.13162e-07
5.94264e-06
-1.22114e-07
5.89591e-06
-1.32609e-07
5.86125e-06
-1.44185e-07
5.84205e-06
-1.5616e-07
5.84121e-06
-1.67716e-07
5.86068e-06
-1.78017e-07
5.901e-06
-1.86358e-07
5.96113e-06
-1.92278e-07
6.03858e-06
-1.95603e-07
6.1299e-06
-1.96423e-07
6.23131e-06
-1.95017e-07
6.33925e-06
-1.91763e-07
6.45073e-06
-1.87067e-07
6.56346e-06
-1.81311e-07
6.67575e-06
-1.74833e-07
6.78631e-06
-1.69224e-07
5.62531e-06
-1.63762e-07
5.42773e-06
-1.58558e-07
5.23157e-06
-1.53674e-07
5.03773e-06
-1.4914e-07
4.84699e-06
-1.44963e-07
4.65996e-06
-1.41139e-07
4.47711e-06
-1.37657e-07
4.2988e-06
-1.345e-07
4.12527e-06
-1.3165e-07
3.9567e-06
-1.2909e-07
3.79323e-06
-1.26797e-07
3.63492e-06
-1.24754e-07
3.48182e-06
-1.2294e-07
3.33391e-06
-1.21337e-07
3.19119e-06
-1.19927e-07
3.0536e-06
-1.18693e-07
2.92107e-06
-1.17619e-07
2.79354e-06
-1.16691e-07
2.67089e-06
-1.15895e-07
2.55304e-06
-1.15217e-07
2.43986e-06
-1.14646e-07
2.33125e-06
-1.14171e-07
2.22707e-06
-1.13782e-07
2.12719e-06
-1.13469e-07
2.03149e-06
-1.13224e-07
1.9398e-06
-1.13038e-07
1.85199e-06
-1.12906e-07
1.76798e-06
-1.12825e-07
1.68778e-06
1.61138e-06
-9.64518e-08
6.19265e-06
-9.8829e-08
6.12684e-06
-1.0259e-07
6.06325e-06
-1.0792e-07
6.00346e-06
-1.14929e-07
5.94965e-06
-1.23588e-07
5.90456e-06
-1.33677e-07
5.87134e-06
-1.44753e-07
5.85312e-06
-1.56178e-07
5.85264e-06
-1.67185e-07
5.87169e-06
-1.76993e-07
5.91081e-06
-1.84939e-07
5.96907e-06
-1.90577e-07
6.04421e-06
-1.93727e-07
6.13305e-06
-1.94454e-07
6.23204e-06
-1.93003e-07
6.3378e-06
-1.89724e-07
6.44745e-06
-1.84999e-07
6.55873e-06
-1.79194e-07
6.66995e-06
-1.72643e-07
6.77975e-06
-1.66956e-07
5.61962e-06
-1.61402e-07
5.42218e-06
-1.56097e-07
5.22627e-06
-1.51106e-07
5.03274e-06
-1.46463e-07
4.84235e-06
-1.42178e-07
4.65567e-06
-1.38248e-07
4.47318e-06
-1.34664e-07
4.29521e-06
-1.31412e-07
4.12201e-06
-1.28472e-07
3.95377e-06
-1.25828e-07
3.79059e-06
-1.23459e-07
3.63256e-06
-1.21345e-07
3.4797e-06
-1.19467e-07
3.33204e-06
-1.17806e-07
3.18953e-06
-1.16344e-07
3.05214e-06
-1.15064e-07
2.91979e-06
-1.1395e-07
2.79242e-06
-1.12986e-07
2.66993e-06
-1.12158e-07
2.55221e-06
-1.11453e-07
2.43916e-06
-1.10858e-07
2.33065e-06
-1.10363e-07
2.22657e-06
-1.09956e-07
2.12679e-06
-1.09629e-07
2.03116e-06
-1.09372e-07
1.93954e-06
-1.09177e-07
1.8518e-06
-1.09038e-07
1.76785e-06
-1.08952e-07
1.68769e-06
1.61135e-06
-9.85956e-08
6.1939e-06
-1.00989e-07
6.12923e-06
-1.04713e-07
6.06697e-06
-1.09933e-07
6.00868e-06
-1.16738e-07
5.95645e-06
-1.25086e-07
5.91291e-06
-1.34756e-07
5.88101e-06
-1.45328e-07
5.86369e-06
-1.56199e-07
5.86351e-06
-1.66653e-07
5.88214e-06
-1.75959e-07
5.92012e-06
-1.8349e-07
5.9766e-06
-1.88819e-07
6.04954e-06
-1.9176e-07
6.13599e-06
-1.92357e-07
6.23263e-06
-1.90826e-07
6.33627e-06
-1.87488e-07
6.44411e-06
-1.82705e-07
6.55395e-06
-1.76828e-07
6.66407e-06
-1.70184e-07
6.77311e-06
-1.64404e-07
5.61384e-06
-1.58747e-07
5.41652e-06
-1.53331e-07
5.22085e-06
-1.48225e-07
5.02764e-06
-1.43466e-07
4.83759e-06
-1.39067e-07
4.65127e-06
-1.35026e-07
4.46914e-06
-1.31336e-07
4.29152e-06
-1.27983e-07
4.11866e-06
-1.2495e-07
3.95073e-06
-1.22219e-07
3.78786e-06
-1.19769e-07
3.63011e-06
-1.17582e-07
3.47752e-06
-1.15637e-07
3.33009e-06
-1.13916e-07
3.18781e-06
-1.124e-07
3.05062e-06
-1.11072e-07
2.91847e-06
-1.09915e-07
2.79127e-06
-1.08913e-07
2.66893e-06
-1.08052e-07
2.55135e-06
-1.07319e-07
2.43842e-06
-1.06699e-07
2.33003e-06
-1.06183e-07
2.22606e-06
-1.05758e-07
2.12636e-06
-1.05416e-07