/*--------------------------------*- C++ -*----------------------------------*\
  =========                 |
  \\      /  F ield         | OpenFOAM: The Open Source CFD Toolbox
   \\    /   O peration     | Website:  https://openfoam.org
    \\  /    A nd           | Version:  9
     \\/     M anipulation  |
\*---------------------------------------------------------------------------*/
FoamFile
{
    format      ascii;
    class       surfaceVectorField;
    location    "0.04";
    object      Uf;
}
// * * * * * * * * * * * * * * * * * * * * * * * * * * * * * * * * * * * * * //

dimensions      [0 1 -1 0 0 0 0];

internalField   nonuniform List<vector> 
9850
(
(0.00117656 0 -0.288526)
(0.00211153 0 -0.281576)
(0.00131642 0 -0.303186)
(0.00233249 0 -0.295768)
(0.00147158 0 -0.318926)
(0.0025728 0 -0.310937)
(0.00161124 0 -0.33579)
(0.00279685 0 -0.327279)
(0.00167011 0 -0.353332)
(0.00292178 0 -0.344656)
(0.00154833 0 -0.370305)
(0.0028128 0 -0.362276)
(0.00113918 0 -0.384473)
(0.00230681 0 -0.378413)
(0.000404876 0 -0.392856)
(0.00129345 0 -0.39034)
(-0.000537751 0 -0.392742)
(-0.000160127 0 -0.394927)
(-0.00144904 0 -0.382938)
(-0.00175936 0 -0.39001)
(-0.00207758 0 -0.364521)
(-0.00309867 0 -0.375435)
(-0.00233005 0 -0.34038)
(-0.00389311 0 -0.353447)
(-0.00227884 0 -0.313746)
(-0.00411822 0 -0.327426)
(-0.00205965 0 -0.287035)
(-0.00393616 0 -0.300351)
(-0.00178467 0 -0.261542)
(-0.00354538 0 -0.274063)
(-0.00151671 0 -0.237701)
(-0.00309155 0 -0.249346)
(-0.00128013 0 -0.215487)
(-0.00265291 0 -0.226333)
(-0.00107874 0 -0.194699)
(-0.00225991 0 -0.204864)
(-0.000908035 0 -0.175123)
(-0.00191759 0 -0.184709)
(-0.000761186 0 -0.156626)
(-0.0016211 0 -0.165676)
(-0.000648666 0 -0.142405)
(-0.00137738 0 -0.149336)
(-0.000555845 0 -0.129665)
(-0.00118283 0 -0.135896)
(-0.000480023 0 -0.118144)
(-0.00102154 0 -0.123804)
(-0.000417282 0 -0.107628)
(-0.000887319 0 -0.112811)
(-0.000364309 0 -0.0979697)
(-0.000774257 0 -0.102739)
(-0.000318778 0 -0.0890683)
(-0.000677582 0 -0.0934666)
(-0.000279159 0 -0.0808528)
(-0.000593898 0 -0.0849124)
(-0.000244431 0 -0.0732679)
(-0.00052085 0 -0.0770149)
(-0.000213871 0 -0.0662666)
(-0.000456763 0 -0.0697238)
(-0.000186934 0 -0.0598076)
(-0.000400387 0 -0.0629955)
(-0.000163179 0 -0.053853)
(-0.00035074 0 -0.0567903)
(-0.000142241 0 -0.0483679)
(-0.000307018 0 -0.0510719)
(-0.000123804 0 -0.0433198)
(-0.000268541 0 -0.0458068)
(-0.000107595 0 -0.0386786)
(-0.000234726 0 -0.0409636)
(-9.33721e-05 0 -0.0344158)
(-0.000205062 0 -0.0365131)
(-8.09212e-05 0 -0.030505)
(-0.000179102 0 -0.0324277)
(-7.00511e-05 0 -0.0269212)
(-0.000156449 0 -0.0286819)
(-6.05915e-05 0 -0.0236409)
(-0.00013675 0 -0.0252513)
(-5.23922e-05 0 -0.0206415)
(-0.000119698 0 -0.022113)
(-4.53239e-05 0 -0.0179017)
(-0.000105025 0 -0.0192451)
(-3.92796e-05 0 -0.0154002)
(-9.25121e-05 0 -0.0166262)
(-3.41765e-05 0 -0.0131166)
(-8.19844e-05 0 -0.0142357)
(-2.99525e-05 0 -0.0110307)
(-7.33142e-05 0 -0.0120529)
(-2.65529e-05 0 -0.00912339)
(-6.64037e-05 0 -0.0100581)
(-2.39038e-05 0 -0.00737809)
(-6.11431e-05 0 -0.00823298)
(-2.192e-05 0 -0.00578198)
(-5.73327e-05 0 -0.00656258)
(-2.08053e-05 0 -0.00432108)
(-5.47992e-05 0 -0.00503539)
(-2.19893e-05 0 -0.00295066)
(-5.45005e-05 0 -0.00363066)
(-2.77396e-05 0 -0.00154962)
(-5.95404e-05 0 -0.00227416)
(-7.08528e-05 0 -0.000816832)
(0.00326431 0 -0.28888)
(0.00398871 0 -0.281775)
(0.00359097 0 -0.303586)
(0.00435987 0 -0.295986)
(0.00391496 0 -0.319362)
(0.00473666 0 -0.311153)
(0.0041503 0 -0.336228)
(0.00504816 0 -0.327436)
(0.00414215 0 -0.353705)
(0.00515089 0 -0.344651)
(0.00368173 0 -0.370526)
(0.00483016 0 -0.361969)
(0.00257801 0 -0.384471)
(0.00384621 0 -0.377677)
(0.000800434 0 -0.392644)
(0.00205855 0 -0.389155)
(-0.00138959 0 -0.392437)
(-0.000402043 0 -0.393467)
(-0.00350629 0 -0.382713)
(-0.00307721 0 -0.388599)
(-0.00505155 0 -0.3645)
(-0.00535201 0 -0.374405)
(-0.00580284 0 -0.340569)
(-0.00678051 0 -0.352946)
(-0.00585515 0 -0.314066)
(-0.00729284 0 -0.327391)
(-0.00546125 0 -0.287393)
(-0.00710849 0 -0.300613)
(-0.00486462 0 -0.261876)
(-0.00652697 0 -0.27446)
(-0.00422597 0 -0.237984)
(-0.00578787 0 -0.249772)
(-0.00362524 0 -0.215714)
(-0.00503432 0 -0.226733)
(-0.0030902 0 -0.194877)
(-0.00433281 0 -0.205221)
(-0.002622 0 -0.175263)
(-0.00370421 0 -0.185022)
(-0.00221027 0 -0.15674)
(-0.00314893 0 -0.16595)
(-0.00190112 0 -0.142502)
(-0.00268971 0 -0.149588)
(-0.00163983 0 -0.129743)
(-0.00232179 0 -0.136119)
(-0.00142166 0 -0.118206)
(-0.00201268 0 -0.124)
(-0.00123853 0 -0.107679)
(-0.00175236 0 -0.112984)
(-0.00108285 0 -0.098011)
(-0.00153134 0 -0.102893)
(-0.000948826 0 -0.0891027)
(-0.00134155 0 -0.0936055)
(-0.000832304 0 -0.0808819)
(-0.001177 0 -0.0850391)
(-0.00073035 0 -0.0732925)
(-0.00103333 0 -0.0771311)
(-0.000640807 0 -0.0662876)
(-0.000907328 0 -0.0698309)
(-0.00056202 0 -0.0598255)
(-0.000796561 0 -0.0630943)
(-0.000492659 0 -0.0538682)
(-0.000699084 0 -0.0568815)
(-0.000431618 0 -0.0483807)
(-0.000613299 0 -0.0511561)
(-0.000377955 0 -0.0433307)
(-0.000537862 0 -0.0458844)
(-0.000330856 0 -0.0386876)
(-0.000471617 0 -0.041035)
(-0.000289607 0 -0.0344233)
(-0.000413559 0 -0.0365786)
(-0.00025358 0 -0.0305112)
(-0.000362804 0 -0.0324878)
(-0.000222218 0 -0.0269263)
(-0.000318576 0 -0.0287367)
(-0.000195034 0 -0.0236449)
(-0.000280188 0 -0.0253011)
(-0.000171601 0 -0.0206446)
(-0.000247039 0 -0.022158)
(-0.000151565 0 -0.0179038)
(-0.000218612 0 -0.0192854)
(-0.000134636 0 -0.0154014)
(-0.000194475 0 -0.016662)
(-0.000120601 0 -0.0131167)
(-0.000174281 0 -0.0142668)
(-0.000109298 0 -0.0110296)
(-0.000157759 0 -0.0120792)
(-0.000100582 0 -0.00912099)
(-0.000144686 0 -0.0100793)
(-9.42458e-05 0 -0.00737442)
(-0.000134811 0 -0.00824914)
(-9.00044e-05 0 -0.00577631)
(-0.000127695 0 -0.0065739)
(-8.80219e-05 0 -0.00430815)
(-0.000122736 0 -0.00504091)
(-9.04844e-05 0 -0.00291859)
(-0.000120539 0 -0.00362329)
(-0.000100592 0 -0.00150444)
(-0.000124293 0 -0.00224266)
(-0.000132736 0 -0.000783862)
(0.0050867 0 -0.289087)
(0.00564703 0 -0.282056)
(0.00551664 0 -0.303787)
(0.00610843 0 -0.296272)
(0.00589869 0 -0.319505)
(0.00654263 0 -0.311408)
(0.00610462 0 -0.336208)
(0.00684828 0 -0.327573)
(0.00592671 0 -0.353371)
(0.00684085 0 -0.344532)
(0.0051081 0 -0.369717)
(0.00626337 0 -0.361424)
(0.0034393 0 -0.383106)
(0.00484979 0 -0.376564)
(0.000922252 0 -0.39083)
(0.00246835 0 -0.387477)
(-0.00209747 0 -0.390492)
(-0.00069694 0 -0.391454)
(-0.00501412 0 -0.381049)
(-0.00410211 0 -0.386655)
(-0.00721479 0 -0.36342)
(-0.00703407 0 -0.372938)
(-0.00839801 0 -0.340132)
(-0.00896088 0 -0.352158)
(-0.0086398 0 -0.314132)
(-0.00976688 0 -0.32723)
(-0.00822973 0 -0.287759)
(-0.00967639 0 -0.300887)
(-0.00747609 0 -0.262368)
(-0.00903174 0 -0.274963)
(-0.00660354 0 -0.238497)
(-0.00812816 0 -0.250354)
(-0.00573951 0 -0.216197)
(-0.00715748 0 -0.22731)
(-0.00494062 0 -0.195312)
(-0.00622024 0 -0.205754)
(-0.00422232 0 -0.17565)
(-0.00535718 0 -0.1855)
(-0.00357888 0 -0.157089)
(-0.00457959 0 -0.166379)
(-0.00309533 0 -0.142821)
(-0.00393082 0 -0.149982)
(-0.00268208 0 -0.130026)
(-0.00340802 0 -0.136473)
(-0.00233258 0 -0.118457)
(-0.00296399 0 -0.124314)
(-0.00203613 0 -0.107903)
(-0.00258633 0 -0.113263)
(-0.00178245 0 -0.0982134)
(-0.00226332 0 -0.103143)
(-0.00156329 0 -0.0892873)
(-0.00198466 0 -0.0938326)
(-0.0013725 0 -0.0810515)
(-0.0017424 0 -0.0852465)
(-0.00120551 0 -0.073449)
(-0.00153058 0 -0.0773215)
(-0.0010589 0 -0.0664325)
(-0.0013447 0 -0.0700062)
(-0.000929945 0 -0.0599597)
(-0.00118124 0 -0.063256)
(-0.000816479 0 -0.0539925)
(-0.00103739 0 -0.0570307)
(-0.000716677 0 -0.0484958)
(-0.000910811 0 -0.0512938)
(-0.00062899 0 -0.0434371)
(-0.000799513 0 -0.0460113)
(-0.00055208 0 -0.0387858)
(-0.000701799 0 -0.0411517)
(-0.000484777 0 -0.0345137)
(-0.000616188 0 -0.0366857)
(-0.000426055 0 -0.0305942)
(-0.00054138 0 -0.0325857)
(-0.000375007 0 -0.0270022)
(-0.000476229 0 -0.028826)
(-0.000330838 0 -0.023714)
(-0.000419723 0 -0.0253821)
(-0.000292857 0 -0.0207071)
(-0.000370973 0 -0.022231)
(-0.000260475 0 -0.0179598)
(-0.000329206 0 -0.0193507)
(-0.000233202 0 -0.0154509)
(-0.00029376 0 -0.0167196)
(-0.000210639 0 -0.0131596)
(-0.000264082 0 -0.0143167)
(-0.000192456 0 -0.0110657)
(-0.000239705 0 -0.0121214)
(-0.000178324 0 -0.0091502)
(-0.000220212 0 -0.0101137)
(-0.000167793 0 -0.00739696)
(-0.000205133 0 -0.008276)
(-0.000160184 0 -0.00579219)
(-0.000193741 0 -0.00659424)
(-0.000154901 0 -0.00431448)
(-0.000184902 0 -0.0050557)
(-0.000152577 0 -0.00290874)
(-0.000178134 0 -0.00363007)
(-0.000154631 0 -0.00148431)
(-0.000175055 0 -0.0022362)
(-0.000172623 0 -0.000775304)
(0.00667525 0 -0.289309)
(0.00709827 0 -0.282387)
(0.00714919 0 -0.303971)
(0.00760168 0 -0.296588)
(0.00752146 0 -0.319572)
(0.00803591 0 -0.311656)
(0.00763378 0 -0.336024)
(0.0082759 0 -0.327648)
(0.00724858 0 -0.352756)
(0.00811183 0 -0.344275)
(0.00609173 0 -0.3685)
(0.00726932 0 -0.360652)
(0.00396172 0 -0.381223)
(0.00548406 0 -0.375144)
(0.000896295 0 -0.38843)
(0.00264972 0 -0.385433)
(-0.00270784 0 -0.387951)
(-0.0010094 0 -0.389051)
(-0.00618879 0 -0.378842)
(-0.00491097 0 -0.384334)
(-0.00887951 0 -0.361904)
(-0.0083069 0 -0.371144)
(-0.0104281 0 -0.339406)
(-0.0106244 0 -0.351125)
(-0.0108804 0 -0.314064)
(-0.0117078 0 -0.326929)
(-0.0105287 0 -0.28812)
(-0.0117602 0 -0.301121)
(-0.00971163 0 -0.262947)
(-0.0111328 0 -0.275508)
(-0.00869436 0 -0.239149)
(-0.0101499 0 -0.251032)
(-0.00764109 0 -0.216842)
(-0.00903748 0 -0.228012)
(-0.00663519 0 -0.195915)
(-0.00792523 0 -0.206424)
(-0.0057087 0 -0.176201)
(-0.00687402 0 -0.186118)
(-0.0048642 0 -0.157594)
(-0.00590831 0 -0.166943)
(-0.00422605 0 -0.143285)
(-0.00509442 0 -0.150503)
(-0.00367534 0 -0.130444)
(-0.00443406 0 -0.136944)
(-0.00320496 0 -0.118832)
(-0.00386758 0 -0.124736)
(-0.00280262 0 -0.10824)
(-0.00338154 0 -0.113642)
(-0.00245619 0 -0.0985194)
(-0.00296302 0 -0.103486)
(-0.0021557 0 -0.0895672)
(-0.00260023 0 -0.094144)
(-0.00189346 0 -0.0813089)
(-0.00228382 0 -0.0855315)
(-0.00166363 0 -0.0736867)
(-0.0020066 0 -0.0775835)
(-0.00146166 0 -0.0666523)
(-0.00176301 0 -0.0702477)
(-0.00128395 0 -0.0601631)
(-0.00154863 0 -0.0634788)
(-0.00112754 0 -0.0541807)
(-0.00135985 0 -0.0572364)
(-0.000989952 0 -0.0486698)
(-0.00119366 0 -0.0514836)
(-0.000869059 0 -0.0435976)
(-0.00104751 0 -0.0461861)
(-0.000763028 0 -0.0389336)
(-0.000919168 0 -0.0413125)
(-0.000670254 0 -0.0346494)
(-0.000806715 0 -0.0368333)
(-0.000589322 0 -0.0307183)
(-0.000708451 0 -0.0327207)
(-0.000518985 0 -0.0271152)
(-0.000622874 0 -0.028949)
(-0.000458142 0 -0.0238163)
(-0.000548653 0 -0.0254937)
(-0.000405826 0 -0.0207992)
(-0.000484614 0 -0.0223316)
(-0.000361195 0 -0.0180418)
(-0.000429723 0 -0.0194407)
(-0.000323527 0 -0.015523)
(-0.000383081 0 -0.0167992)
(-0.000292202 0 -0.0132219)
(-0.000343911 0 -0.0143862)
(-0.00026667 0 -0.0111181)
(-0.000311535 0 -0.0121807)
(-0.000246368 0 -0.009193)
(-0.000285319 0 -0.0101632)
(-0.000230567 0 -0.00743123)
(-0.000264561 0 -0.00831636)
(-0.000218165 0 -0.00581983)
(-0.000248261 0 -0.00662746)
(-0.000207807 0 -0.00433676)
(-0.00023494 0 -0.00508482)
(-0.000198868 0 -0.00292433)
(-0.000223427 0 -0.00365645)
(-0.000192312 0 -0.00149256)
(-0.000214378 0 -0.00225651)
(-0.000205528 0 -0.000784886)
(0.00803347 0 -0.289626)
(0.00834037 0 -0.28274)
(0.00850457 0 -0.304229)
(0.00884595 0 -0.296902)
(0.008818 0 -0.319682)
(0.00923659 0 -0.311865)
(0.00879637 0 -0.335845)
(0.00937061 0 -0.327634)
(0.00818981 0 -0.35211)
(0.00902613 0 -0.343871)
(0.00672798 0 -0.36723)
(0.00792936 0 -0.359678)
(0.00423323 0 -0.379284)
(0.00583526 0 -0.373481)
(0.000777534 0 -0.385982)
(0.00267006 0 -0.383129)
(-0.00321783 0 -0.385364)
(-0.00131484 0 -0.386388)
(-0.00707839 0 -0.376574)
(-0.00553169 0 -0.381761)
(-0.0101262 0 -0.360312)
(-0.0092388 0 -0.369112)
(-0.0119805 0 -0.338606)
(-0.0118543 0 -0.349889)
(-0.0126506 0 -0.313953)
(-0.0131895 0 -0.326482)
(-0.0124087 0 -0.288483)
(-0.0134123 0 -0.301283)
(-0.0115984 0 -0.263573)
(-0.0128591 0 -0.276048)
(-0.0105076 0 -0.239881)
(-0.0118631 0 -0.25176)
(-0.00932771 0 -0.217585)
(-0.0106717 0 -0.228798)
(-0.00816571 0 -0.196622)
(-0.00943817 0 -0.207199)
(-0.00707063 0 -0.176857)
(-0.00824215 0 -0.186848)
(-0.00605551 0 -0.158198)
(-0.00712199 0 -0.167619)
(-0.00528298 0 -0.143841)
(-0.00616772 0 -0.151133)
(-0.00460981 0 -0.130948)
(-0.00538759 0 -0.137521)
(-0.0040295 0 -0.119285)
(-0.00471178 0 -0.125257)
(-0.00352928 0 -0.10865)
(-0.00412712 0 -0.114113)
(-0.00309607 0 -0.0988918)
(-0.00362045 0 -0.103913)
(-0.00271875 0 -0.0899077)
(-0.00317914 0 -0.094535)
(-0.00238855 0 -0.0816216)
(-0.00279295 0 -0.0858904)
(-0.0020986 0 -0.0739747)
(-0.00245382 0 -0.0779141)
(-0.00184347 0 -0.066918)
(-0.00215533 0 -0.0705528)
(-0.00161878 0 -0.0604084)
(-0.00189232 0 -0.0637607)
(-0.00142089 0 -0.0544071)
(-0.00166051 0 -0.0574968)
(-0.00124673 0 -0.0488785)
(-0.00145632 0 -0.0517238)
(-0.00109365 0 -0.0437896)
(-0.00127666 0 -0.0464076)
(-0.000959361 0 -0.0391099)
(-0.00111884 0 -0.0415163)
(-0.000841837 0 -0.0348109)
(-0.000980532 0 -0.0370203)
(-0.000739302 0 -0.0308656)
(-0.000859652 0 -0.0328918)
(-0.000650176 0 -0.027249)
(-0.000754366 0 -0.0291049)
(-0.000573062 0 -0.0239373)
(-0.000663042 0 -0.0256352)
(-0.000506721 0 -0.0209077)
(-0.000584231 0 -0.0224593)
(-0.000450066 0 -0.0181384)
(-0.000516652 0 -0.019555)
(-0.000402146 0 -0.0156079)
(-0.000459179 0 -0.0169006)
(-0.00036213 0 -0.0132952)
(-0.000410825 0 -0.0144749)
(-0.000329255 0 -0.0111803)
(-0.000370714 0 -0.0122572)
(-0.000302744 0 -0.00924477)
(-0.000338013 0 -0.0102278)
(-0.000281643 0 -0.00747427)
(-0.000311813 0 -0.00837031)
(-0.000264626 0 -0.00585724)
(-0.000290934 0 -0.00667309)
(-0.000250099 0 -0.00437162)
(-0.000273809 0 -0.00512569)
(-0.000237178 0 -0.00295596)
(-0.000259196 0 -0.00369462)
(-0.000227079 0 -0.00151402)
(-0.000247514 0 -0.00228783)
(-0.000237914 0 -0.000798847)
(0.00916309 0 -0.289977)
(0.00937927 0 -0.283093)
(0.00959462 0 -0.304494)
(0.00985584 0 -0.29719)
(0.00981465 0 -0.319766)
(0.0101719 0 -0.312011)
(0.00963617 0 -0.335604)
(0.0101757 0 -0.327515)
(0.00881068 0 -0.351374)
(0.00964379 0 -0.34332)
(0.00708569 0 -0.365858)
(0.00831505 0 -0.358528)
(0.00431519 0 -0.377251)
(0.00597319 0 -0.371634)
(0.000600143 0 -0.383456)
(0.00257789 0 -0.380653)
(-0.00363323 0 -0.382707)
(-0.00160385 0 -0.383565)
(-0.00772704 0 -0.374227)
(-0.00599977 0 -0.379031)
(-0.0110205 0 -0.358625)
(-0.0098993 0 -0.366917)
(-0.013121 0 -0.337712)
(-0.0127324 0 -0.348489)
(-0.0140018 0 -0.31377)
(-0.014286 0 -0.325895)
(-0.0139012 0 -0.288815)
(-0.0146874 0 -0.30135)
(-0.0131498 0 -0.264211)
(-0.0142443 0 -0.276549)
(-0.0120431 0 -0.240661)
(-0.0132837 0 -0.252497)
(-0.0107906 0 -0.218402)
(-0.0120637 0 -0.229634)
(-0.0095187 0 -0.197418)
(-0.0107545 0 -0.208047)
(-0.00829287 0 -0.177607)
(-0.00945259 0 -0.187665)
(-0.00713778 0 -0.158895)
(-0.00820972 0 -0.168389)
(-0.00625125 0 -0.144489)
(-0.00713901 0 -0.151857)
(-0.00547137 0 -0.131539)
(-0.00625662 0 -0.138188)
(-0.00479305 0 -0.119821)
(-0.00548486 0 -0.125866)
(-0.00420401 0 -0.109137)
(-0.00481193 0 -0.114668)
(-0.00369099 0 -0.0993361)
(-0.00422512 0 -0.10442)
(-0.00324232 0 -0.0903149)
(-0.00371159 0 -0.0949999)
(-0.00284851 0 -0.0819962)
(-0.00326068 0 -0.0863185)
(-0.00250197 0 -0.0743202)
(-0.00286371 0 -0.0783092)
(-0.00219659 0 -0.067237)
(-0.00251368 0 -0.070918)
(-0.00192734 0 -0.060703)
(-0.00220483 0 -0.0640984)
(-0.00169001 0 -0.0546791)
(-0.00193236 0 -0.057809)
(-0.00148101 0 -0.0491293)
(-0.00169215 0 -0.0520122)
(-0.00129722 0 -0.0440206)
(-0.00148068 0 -0.0466736)
(-0.00113593 0 -0.0393221)
(-0.00129485 0 -0.0417611)
(-0.000994757 0 -0.0350052)
(-0.00113194 0 -0.037245)
(-0.000871568 0 -0.031043)
(-0.000989542 0 -0.0330974)
(-0.00076448 0 -0.0274103)
(-0.0008655 0 -0.0292924)
(-0.000671816 0 -0.0240832)
(-0.000757906 0 -0.0258053)
(-0.000592087 0 -0.0210389)
(-0.000665057 0 -0.0226127)
(-0.000523978 0 -0.0182553)
(-0.000585439 0 -0.0196924)
(-0.000466332 0 -0.015711)
(-0.000517721 0 -0.0170226)
(-0.000418122 0 -0.0133849)
(-0.000460724 0 -0.0145819)
(-0.000378397 0 -0.0112571)
(-0.000413388 0 -0.0123496)
(-0.000346189 0 -0.00930963)
(-0.000374697 0 -0.0103064)
(-0.000320382 0 -0.00752904)
(-0.000343565 0 -0.00843635)
(-0.000299596 0 -0.00590486)
(-0.0003187 0 -0.00672888)
(-0.000282384 0 -0.00441465)
(-0.000298616 0 -0.00517416)
(-0.000268066 0 -0.00299288)
(-0.000282316 0 -0.00373694)
(-0.000257781 0 -0.00153703)
(-0.000270175 0 -0.00231973)
(-0.000261566 0 -0.00081142)
(0.0100829 0 -0.290298)
(0.0102329 0 -0.28343)
(0.0104493 0 -0.304699)
(0.0106582 0 -0.297434)
(0.0105557 0 -0.319752)
(0.0108807 0 -0.312082)
(0.010213 0 -0.335226)
(0.010744 0 -0.327286)
(0.00918311 0 -0.350473)
(0.0100302 0 -0.342634)
(0.00723842 0 -0.364309)
(0.00849788 0 -0.357231)
(0.00426585 0 -0.375049)
(0.00596236 0 -0.369653)
(0.000388573 0 -0.380779)
(0.00241376 0 -0.378068)
(-0.00397435 0 -0.379909)
(-0.0018742 0 -0.380657)
(-0.00819683 0 -0.371736)
(-0.00635557 0 -0.376216)
(-0.0116497 0 -0.356787)
(-0.0103622 0 -0.364615)
(-0.0139407 0 -0.336671)
(-0.0133475 0 -0.346961)
(-0.0150119 0 -0.313467)
(-0.0150825 0 -0.325181)
(-0.0150633 0 -0.289072)
(-0.0156551 0 -0.301315)
(-0.0144023 0 -0.264823)
(-0.0153386 0 -0.27699)
(-0.0133204 0 -0.241458)
(-0.0144441 0 -0.253219)
(-0.0120372 0 -0.219268)
(-0.0132316 0 -0.230489)
(-0.0106941 0 -0.198285)
(-0.0118825 0 -0.208942)
(-0.00937068 0 -0.17844)
(-0.0105072 0 -0.188548)
(-0.00810352 0 -0.159681)
(-0.00916933 0 -0.169234)
(-0.00712188 0 -0.145224)
(-0.0080035 0 -0.152658)
(-0.00625035 0 -0.132216)
(-0.00703477 0 -0.138934)
(-0.00548586 0 -0.120441)
(-0.00617968 0 -0.126552)
(-0.00481729 0 -0.109704)
(-0.00542853 0 -0.115297)
(-0.00423178 0 -0.0998563)
(-0.00476956 0 -0.104999)
(-0.00371762 0 -0.0907937)
(-0.00419021 0 -0.0955327)
(-0.00326496 0 -0.0824381)
(-0.00367974 0 -0.0868105)
(-0.00286574 0 -0.0747286)
(-0.00322917 0 -0.0787644)
(-0.00251334 0 -0.0676148)
(-0.0028311 0 -0.0713395)
(-0.00220225 0 -0.0610525)
(-0.00247934 0 -0.0644886)
(-0.00192777 0 -0.0550022)
(-0.00216866 0 -0.0581701)
(-0.00168588 0 -0.0494276)
(-0.00189453 0 -0.052346)
(-0.00147306 0 -0.0442955)
(-0.00165303 0 -0.0469816)
(-0.00128623 0 -0.0395749)
(-0.00144071 0 -0.0420447)
(-0.00112266 0 -0.0352369)
(-0.00125452 0 -0.0375054)
(-0.000979905 0 -0.0312548)
(-0.00109174 0 -0.0333358)
(-0.00085581 0 -0.027603)
(-0.000949927 0 -0.0295097)
(-0.000748437 0 -0.0242576)
(-0.000826925 0 -0.0260024)
(-0.000656066 0 -0.0211957)
(-0.000720791 0 -0.0227906)
(-0.000577169 0 -0.0183952)
(-0.0006298 0 -0.0198518)
(-0.000510398 0 -0.0158345)
(-0.000552425 0 -0.017164)
(-0.000454546 0 -0.0134926)
(-0.000487307 0 -0.014706)
(-0.000408485 0 -0.0113495)
(-0.000433215 0 -0.0124569)
(-0.000371078 0 -0.00938793)
(-0.000388959 0 -0.0103978)
(-0.000341079 0 -0.00759495)
(-0.000353297 0 -0.00851318)
(-0.000317124 0 -0.00596069)
(-0.000324854 0 -0.00679323)
(-0.000297979 0 -0.00446189)
(-0.000302243 0 -0.00522811)
(-0.00028314 0 -0.00302981)
(-0.000284715 0 -0.00378081)
(-0.000273351 0 -0.00155804)
(-0.000272604 0 -0.00235011)
(-0.000264454 0 -0.000822547)
(0.010819 0 -0.290569)
(0.0109211 0 -0.283737)
(0.0111046 0 -0.304823)
(0.0112807 0 -0.297625)
(0.0110888 0 -0.319625)
(0.0113999 0 -0.312072)
(0.0105856 0 -0.334707)
(0.0111222 0 -0.326951)
(0.00937225 0 -0.349413)
(0.0102399 0 -0.341825)
(0.00724849 0 -0.362604)
(0.00853408 0 -0.355816)
(0.00413161 0 -0.37271)
(0.00585119 0 -0.367575)
(0.00016071 0 -0.37799)
(0.00220701 0 -0.375421)
(-0.00425893 0 -0.37701)
(-0.00212437 0 -0.37771)
(-0.00853926 0 -0.369136)
(-0.00662807 0 -0.373363)
(-0.0120886 0 -0.354821)
(-0.0106818 0 -0.362249)
(-0.0145224 0 -0.335492)
(-0.0137681 0 -0.345339)
(-0.015758 0 -0.313039)
(-0.0156488 0 -0.324357)
(-0.0159581 0 -0.289235)
(-0.0163771 0 -0.301182)
(-0.015402 0 -0.265382)
(-0.0161904 0 -0.27736)
(-0.0143708 0 -0.242244)
(-0.0153791 0 -0.253906)
(-0.0130869 0 -0.220156)
(-0.0141985 0 -0.231345)
(-0.0117023 0 -0.199198)
(-0.0128364 0 -0.209865)
(-0.0103085 0 -0.179335)
(-0.0114135 0 -0.189477)
(-0.00895289 0 -0.160537)
(-0.0100037 0 -0.170138)
(-0.00789262 0 -0.146034)
(-0.00876101 0 -0.153523)
(-0.0069429 0 -0.132969)
(-0.00771988 0 -0.139747)
(-0.00610309 0 -0.121135)
(-0.00679284 0 -0.127306)
(-0.00536371 0 -0.110342)
(-0.00597274 0 -0.115994)
(-0.00471277 0 -0.100445)
(-0.00524909 0 -0.105642)
(-0.0041388 0 -0.0913379)
(-0.00461001 0 -0.0961274)
(-0.00363193 0 -0.0829417)
(-0.00404495 0 -0.0873614)
(-0.00318385 0 -0.0751952)
(-0.00354486 0 -0.0792753)
(-0.0027876 0 -0.0680472)
(-0.00310213 0 -0.0718133)
(-0.00243732 0 -0.0614531)
(-0.00271027 0 -0.064928)
(-0.00212794 0 -0.0553728)
(-0.00236374 0 -0.0585772)
(-0.00185506 0 -0.0497701)
(-0.00205768 0 -0.0527227)
(-0.00161483 0 -0.0446112)
(-0.00178786 0 -0.0473294)
(-0.00140385 0 -0.0398653)
(-0.0015505 0 -0.0423651)
(-0.00121907 0 -0.0355033)
(-0.00134226 0 -0.0377997)
(-0.00105779 0 -0.0314981)
(-0.00116015 0 -0.0336052)
(-0.00091758 0 -0.0278243)
(-0.00100149 0 -0.0297553)
(-0.000796273 0 -0.0244579)
(-0.000863867 0 -0.0262253)
(-0.00069193 0 -0.0213758)
(-0.000745126 0 -0.0229917)
(-0.00060283 0 -0.0185558)
(-0.000643346 0 -0.0200319)
(-0.000527442 0 -0.0159762)
(-0.000556816 0 -0.0173238)
(-0.000464385 0 -0.0136161)
(-0.000484005 0 -0.0148461)
(-0.000412366 0 -0.0114556)
(-0.000423514 0 -0.0125782)
(-0.000370089 0 -0.00947772)
(-0.000373993 0 -0.0105011)
(-0.000336196 0 -0.00767016)
(-0.000334057 0 -0.00860008)
(-0.000309328 0 -0.00602311)
(-0.000302263 0 -0.00686548)
(-0.000288367 0 -0.00451238)
(-0.000277265 0 -0.00528724)
(-0.000272829 0 -0.00306691)
(-0.000258448 0 -0.0038268)
(-0.000263061 0 -0.00157813)
(-0.000246086 0 -0.00238044)
(-0.000237692 0 -0.000833426)
(0.0113931 0 -0.290792)
(0.0114602 0 -0.284006)
(0.0115895 0 -0.304874)
(0.0117452 0 -0.297756)
(0.0114503 0 -0.319401)
(0.0117577 0 -0.311979)
(0.0107964 0 -0.334075)
(0.0113445 0 -0.326515)
(0.00942311 0 -0.348238)
(0.0103107 0 -0.340909)
(0.00715693 0 -0.360801)
(0.00846097 0 -0.354305)
(0.00394213 0 -0.370305)
(0.00567047 0 -0.365431)
(-7.15899e-05 0 -0.375164)
(0.00197577 0 -0.372745)
(-0.00449664 0 -0.374087)
(-0.00235309 0 -0.37476)
(-0.00878468 0 -0.366497)
(-0.00683401 0 -0.370504)
(-0.0123832 0 -0.352784)
(-0.0108909 0 -0.35985)
(-0.0149203 0 -0.334216)
(-0.0140371 0 -0.343647)
(-0.0162939 0 -0.312506)
(-0.0160312 0 -0.323441)
(-0.0166326 0 -0.289309)
(-0.0168965 0 -0.300956)
(-0.0161865 0 -0.265882)
(-0.0168359 0 -0.277658)
(-0.0152213 0 -0.243003)
(-0.0161162 0 -0.25455)
(-0.0139579 0 -0.221049)
(-0.0149837 0 -0.232187)
(-0.0125545 0 -0.200139)
(-0.0136284 0 -0.210801)
(-0.0111123 0 -0.180275)
(-0.0121784 0 -0.190438)
(-0.0096881 0 -0.161447)
(-0.010716 0 -0.171087)
(-0.00856338 0 -0.146902)
(-0.00941213 0 -0.15444)
(-0.00754733 0 -0.133783)
(-0.00831077 0 -0.140616)
(-0.00664198 0 -0.121891)
(-0.007322 0 -0.128119)
(-0.0058398 0 -0.111043)
(-0.00644137 0 -0.116749)
(-0.00512994 0 -0.101094)
(-0.00566 0 -0.106343)
(-0.00450153 0 -0.0919395)
(-0.00496688 0 -0.0967786)
(-0.00394483 0 -0.0835)
(-0.00435192 0 -0.0879665)
(-0.00345151 0 -0.0757136)
(-0.0038062 0 -0.0798377)
(-0.00301444 0 -0.0685283)
(-0.00332203 0 -0.072336)
(-0.00262748 0 -0.0618993)
(-0.00289278 0 -0.0654135)
(-0.00228531 0 -0.0557862)
(-0.00251266 0 -0.0590275)
(-0.00198324 0 -0.0501522)
(-0.00217658 0 -0.0531396)
(-0.00171712 0 -0.0449638)
(-0.00188004 0 -0.0477147)
(-0.00148327 0 -0.0401897)
(-0.001619 0 -0.0427202)
(-0.00127839 0 -0.0358008)
(-0.00138988 0 -0.0381261)
(-0.00109951 0 -0.03177)
(-0.00118944 0 -0.0339041)
(-0.00094399 0 -0.0280716)
(-0.00101477 0 -0.0300279)
(-0.000809434 0 -0.0246816)
(-0.000863241 0 -0.0264727)
(-0.000693707 0 -0.0215769)
(-0.000732507 0 -0.0232149)
(-0.000594903 0 -0.0187351)
(-0.000620459 0 -0.0202317)
(-0.000511317 0 -0.0161344)
(-0.000525213 0 -0.0175011)
(-0.000441402 0 -0.0137539)
(-0.000445075 0 -0.0150017)
(-0.000383703 0 -0.011574)
(-0.000378484 0 -0.0127128)
(-0.00033678 0 -0.00957804)
(-0.000323939 0 -0.010616)
(-0.000299178 0 -0.00775394)
(-0.000279936 0 -0.00869661)
(-0.000269518 0 -0.00609189)
(-0.000244972 0 -0.00694535)
(-0.000246706 0 -0.00456677)
(-0.000217702 0 -0.00535168)
(-0.000230179 0 -0.00310578)
(-0.000197531 0 -0.00387578)
(-0.00022001 0 -0.00159878)
(-0.000184667 0 -0.00241206)
(-0.00017578 0 -0.000844709)
(0.0118218 0 -0.290966)
(0.0118635 0 -0.284232)
(0.0119254 0 -0.304857)
(0.0120693 0 -0.297825)
(0.0116663 0 -0.319091)
(0.0119762 0 -0.311806)
(0.010875 0 -0.333349)
(0.0114364 0 -0.325987)
(0.00936537 0 -0.346978)
(0.0102699 0 -0.339903)
(0.00698977 0 -0.358939)
(0.00830412 0 -0.352721)
(0.0037155 0 -0.367877)
(0.00544027 0 -0.363248)
(-0.000301298 0 -0.372348)
(0.00173124 0 -0.370067)
(-0.00469323 0 -0.371185)
(-0.00256012 0 -0.371832)
(-0.00895113 0 -0.363863)
(-0.00698461 0 -0.367666)
(-0.0125617 0 -0.350718)
(-0.0110108 0 -0.357443)
(-0.0151685 0 -0.332876)
(-0.0141836 0 -0.34191)
(-0.0166549 0 -0.311891)
(-0.0162619 0 -0.32245)
(-0.0171192 0 -0.289303)
(-0.0172445 0 -0.300647)
(-0.0167822 0 -0.266322)
(-0.017302 0 -0.277882)
(-0.0158918 0 -0.243729)
(-0.0166765 0 -0.255143)
(-0.0146637 0 -0.221935)
(-0.0156024 0 -0.233006)
(-0.0132592 0 -0.201096)
(-0.0142684 0 -0.211737)
(-0.0117864 0 -0.181247)
(-0.0128077 0 -0.19142)
(-0.0103105 0 -0.162401)
(-0.0113088 0 -0.172071)
(-0.00913364 0 -0.14782)
(-0.00995705 0 -0.1554)
(-0.00806179 0 -0.13465)
(-0.00880616 0 -0.141533)
(-0.00709976 0 -0.122702)
(-0.00776479 0 -0.128982)
(-0.00624214 0 -0.111798)
(-0.00683134 0 -0.117557)
(-0.00547947 0 -0.101797)
(-0.00599865 0 -0.107096)
(-0.00480163 0 -0.0925934)
(-0.00525684 0 -0.0974808)
(-0.00419929 0 -0.0841086)
(-0.00459643 0 -0.0886211)
(-0.00366421 0 -0.0762798)
(-0.00400878 0 -0.0804477)
(-0.00318921 0 -0.0690548)
(-0.00348628 0 -0.0729041)
(-0.00276801 0 -0.0623882)
(-0.00302223 0 -0.0659419)
(-0.00239509 0 -0.0562396)
(-0.00261071 0 -0.0595182)
(-0.00206554 0 -0.0505718)
(-0.00224646 0 -0.0535945)
(-0.00177499 0 -0.0453512)
(-0.00192476 0 -0.0481354)
(-0.00151951 0 -0.0405464)
(-0.00164138 0 -0.0431083)
(-0.00129557 0 -0.0361281)
(-0.0013925 0 -0.0384829)
(-0.0011 0 -0.0320691)
(-0.00117468 0 -0.034231)
(-0.00092992 0 -0.0283438)
(-0.000984807 0 -0.0303261)
(-0.000782758 0 -0.0249279)
(-0.000820066 0 -0.0267433)
(-0.000656194 0 -0.0217982)
(-0.000677925 0 -0.023459)
(-0.000548146 0 -0.0189324)
(-0.000556105 0 -0.0204503)
(-0.000456746 0 -0.0163085)
(-0.000452563 0 -0.0176951)
(-0.00038029 0 -0.0139057)
(-0.000365448 0 -0.0151719)
(-0.000317172 0 -0.0117046)
(-0.000293051 0 -0.0128602)
(-0.000265824 0 -0.00968862)
(-0.000233734 0 -0.0107418)
(-0.000224715 0 -0.00784611)
(-0.000185894 0 -0.00880225)
(-0.000192438 0 -0.00616701)
(-0.000147982 0 -0.00703237)
(-0.000167865 0 -0.00462539)
(-0.000118613 0 -0.00542118)
(-0.000150313 0 -0.00314705)
(-9.71315e-05 0 -0.00392786)
(-0.00013966 0 -0.0016205)
(-8.37132e-05 0 -0.00244524)
(-7.43365e-05 0 -0.000856482)
(0.0121195 0 -0.291088)
(0.0121435 0 -0.284412)
(0.0121306 0 -0.304771)
(0.012269 0 -0.297832)
(0.0117584 0 -0.318701)
(0.0120746 0 -0.311558)
(0.0108445 0 -0.332541)
(0.0114197 0 -0.325378)
(0.00922182 0 -0.345648)
(0.0101395 0 -0.338821)
(0.00676618 0 -0.357034)
(0.00808348 0 -0.351084)
(0.00346435 0 -0.365444)
(0.0051755 0 -0.361047)
(-0.000524564 0 -0.369557)
(0.00148099 0 -0.367408)
(-0.004854 0 -0.368319)
(-0.00274649 0 -0.368946)
(-0.0090529 0 -0.361251)
(-0.00708965 0 -0.364866)
(-0.0126459 0 -0.348638)
(-0.0110592 0 -0.355047)
(-0.0152933 0 -0.331487)
(-0.014231 0 -0.340145)
(-0.0168687 0 -0.311206)
(-0.0163676 0 -0.3214)
(-0.0174436 0 -0.289224)
(-0.0174475 0 -0.300263)
(-0.0172107 0 -0.266701)
(-0.0176121 0 -0.278037)
(-0.016399 0 -0.244416)
(-0.0170789 0 -0.255684)
(-0.0152161 0 -0.222805)
(-0.0160687 0 -0.233794)
(-0.0138236 0 -0.202058)
(-0.0147661 0 -0.212666)
(-0.0123346 0 -0.182241)
(-0.0133069 0 -0.192413)
(-0.0108211 0 -0.163389)
(-0.0117845 0 -0.17308)
(-0.00960282 0 -0.148779)
(-0.0103964 0 -0.156394)
(-0.00848448 0 -0.135563)
(-0.00920518 0 -0.14249)
(-0.00747373 0 -0.123561)
(-0.00811929 0 -0.12989)
(-0.0065674 0 -0.112603)
(-0.00713993 0 -0.11841)
(-0.00575757 0 -0.102549)
(-0.00626178 0 -0.107896)
(-0.00503506 0 -0.0932953)
(-0.00547623 0 -0.0982294)
(-0.00439104 0 -0.0847636)
(-0.00477453 0 -0.089321)
(-0.00381752 0 -0.0768906)
(-0.00414846 0 -0.0811015)
(-0.00330739 0 -0.0696238)
(-0.00359058 0 -0.0735142)
(-0.00285431 0 -0.0629175)
(-0.00309422 0 -0.0665103)
(-0.00245263 0 -0.0567309)
(-0.00265342 0 -0.0600468)
(-0.00209729 0 -0.051027)
(-0.00226278 0 -0.0540851)
(-0.00178373 0 -0.0457718)
(-0.00191744 0 -0.0485895)
(-0.00150782 0 -0.0409338)
(-0.001613 0 -0.0435274)
(-0.00126586 0 -0.0364837)
(-0.00134545 0 -0.0388685)
(-0.00105445 0 -0.0323943)
(-0.00111118 0 -0.0345844)
(-0.000870559 0 -0.0286397)
(-0.000906896 0 -0.0306485)
(-0.000711421 0 -0.0251957)
(-0.000729612 0 -0.0270361)
(-0.000574551 0 -0.022039)
(-0.000576633 0 -0.0237231)
(-0.000457712 0 -0.019147)
(-0.000445525 0 -0.0206868)
(-0.000358883 0 -0.016498)
(-0.000334097 0 -0.017905)
(-0.000276212 0 -0.014071)
(-0.000240357 0 -0.0153561)
(-0.000207959 0 -0.0118467)
(-0.000162458 0 -0.0130197)
(-0.000152449 0 -0.00980896)
(-9.86453e-05 0 -0.0108779)
(-0.000108081 0 -0.00794615)
(-4.72297e-05 0 -0.00891639)
(-7.34034e-05 0 -0.00624799)
(-6.60754e-06 0 -0.00712596)
(-4.72245e-05 0 -0.00468793)
(2.46641e-05 0 -0.00549531)
(-2.87245e-05 0 -0.00319061)
(4.73332e-05 0 -0.00398282)
(-1.75648e-05 0 -0.00164325)
(6.12913e-05 0 -0.00248003)
(7.1192e-05 0 -0.000868771)
(0.0123006 0 -0.291155)
(0.0123129 0 -0.284546)
(0.0122221 0 -0.304618)
(0.0123597 0 -0.29778)
(0.0117461 0 -0.318236)
(0.0120706 0 -0.311241)
(0.0107254 0 -0.33166)
(0.0113134 0 -0.324698)
(0.00901154 0 -0.344261)
(0.00993828 0 -0.337679)
(0.00650157 0 -0.355103)
(0.00781516 0 -0.349411)
(0.00319821 0 -0.363019)
(0.00488754 0 -0.358845)
(-0.00073901 0 -0.366805)
(0.00123012 0 -0.364783)
(-0.00498444 0 -0.365501)
(-0.00291408 0 -0.366116)
(-0.00910293 0 -0.358671)
(-0.007158 0 -0.362121)
(-0.0126549 0 -0.346559)