/*--------------------------------*- C++ -*----------------------------------*\
  =========                 |
  \\      /  F ield         | OpenFOAM: The Open Source CFD Toolbox
   \\    /   O peration     | Website:  https://openfoam.org
    \\  /    A nd           | Version:  9
     \\/     M anipulation  |
\*---------------------------------------------------------------------------*/
FoamFile
{
    format      ascii;
    class       surfaceScalarField;
    location    "0.01";
    object      alphaPhi0.water;
}
// * * * * * * * * * * * * * * * * * * * * * * * * * * * * * * * * * * * * * //

dimensions      [0 3 -1 0 0 0 0];

internalField   nonuniform List<scalar> 
9850
(
-4.35357e-72
-2.6236e-71
-1.20126e-71
-7.59641e-71
-4.9206e-71
-3.26546e-70
-2.091e-70
-1.45636e-69
-9.18495e-70
-6.71453e-69
-4.17182e-69
-3.20135e-68
-1.94976e-68
-1.57076e-67
-9.36193e-68
-7.91901e-67
-4.61707e-67
-4.10122e-66
-2.32698e-66
-2.17095e-65
-1.18771e-65
-1.16402e-64
-6.09471e-65
-6.27604e-64
-3.13113e-64
-3.38858e-63
-1.57353e-63
-1.79015e-62
-7.35702e-63
-8.8012e-62
-2.85073e-62
-3.58728e-61
-6.13634e-62
-8.12554e-61
-4.77104e-61
-6.65077e-60
-1.70801e-59
-2.50769e-58
-3.53733e-58
-5.47286e-57
-5.93492e-57
-9.68224e-56
-9.19936e-56
-1.58358e-54
-1.37339e-54
-2.49656e-53
-1.94479e-53
-3.7366e-52
-2.53159e-52
-5.14637e-51
-3.15219e-51
-6.78797e-50
-3.87901e-50
-8.86062e-49
-4.67797e-49
-1.1353e-47
-5.5049e-48
-1.42208e-46
-6.27606e-47
-1.7296e-45
-6.88164e-46
-2.37451e-44
-8.27495e-45
-2.92987e-43
-9.04107e-44
-3.29534e-42
-8.81183e-43
-3.31854e-41
-7.29421e-42
-2.85047e-40
-4.74307e-41
-1.93299e-39
-2.11182e-40
-9.02892e-39
-3.5493e-40
-1.60334e-38
3.04635e-39
1.37186e-37
6.07046e-38
2.9407e-36
9.75363e-37
4.95439e-35
1.41669e-35
7.61545e-34
2.06606e-34
1.21306e-32
2.80516e-33
1.83273e-31
3.88535e-32
2.92435e-30
5.07964e-31
4.79267e-29
5.79121e-30
8.5356e-28
3.31432e-29
1.66942e-26
-4.70295e-28
2.33828e-25
1.05194e-24
-3.04669e-71
-1.81231e-70
-9.34978e-71
-5.83616e-70
-4.00574e-70
-2.62398e-69
-1.79179e-69
-1.23182e-68
-8.29484e-69
-5.98533e-68
-3.96979e-68
-3.00683e-67
-1.96137e-67
-1.55959e-66
-9.99211e-67
-8.34195e-66
-5.241e-66
-4.59458e-65
-2.82455e-65
-2.60057e-64
-1.56103e-64
-1.50971e-63
-8.83655e-64
-8.97871e-63
-5.12033e-63
-5.46729e-62
-3.03162e-62
-3.40251e-61
-1.8287e-61
-2.15792e-60
-1.12118e-60
-1.39148e-59
-6.99269e-60
-9.13063e-59
-4.49238e-59
-6.17393e-58
-3.03669e-58
-4.39448e-57
-2.20214e-57
-3.35731e-56
-1.76671e-56
-2.83923e-55
-1.62272e-55
-2.75071e-54
-1.73151e-54
-3.09822e-53
-2.04715e-53
-3.86975e-52
-2.45656e-52
-4.91045e-51
-2.9068e-51
-6.151e-50
-3.47837e-50
-7.80177e-49
-4.12712e-49
-9.82623e-48
-4.78764e-48
-1.21207e-46
-5.356e-47
-1.44475e-45
-5.71087e-46
-1.92539e-44
-6.59499e-45
-2.27693e-43
-6.84526e-44
-2.42711e-42
-6.28711e-43
-2.29686e-41
-4.79243e-42
-1.81073e-40
-2.60208e-41
-1.02124e-39
-8.27195e-41
-3.38961e-39
3.85922e-40
2.40019e-38
1.91862e-38
7.37427e-37
3.19447e-37
1.3065e-35
4.68815e-36
2.06335e-34
6.58007e-35
3.1638e-33
9.11391e-34
4.85713e-32
1.15026e-32
6.96762e-31
1.29191e-31
8.99558e-30
1.31967e-30
1.07054e-28
1.45591e-29
1.49899e-27
1.73226e-28
3.05481e-26
4.88551e-28
3.04516e-25
2.6665e-24
-1.04872e-70
-6.15608e-70
-3.36905e-70
-2.07526e-69
-1.47941e-69
-9.56319e-69
-6.7791e-69
-4.59901e-68
-3.21404e-68
-2.28852e-67
-1.57486e-67
-1.17706e-66
-7.96684e-67
-6.25081e-66
-4.15637e-66
-3.42381e-65
-2.23372e-65
-1.93208e-64
-1.23518e-64
-1.12199e-63
-7.02209e-64
-6.69978e-63
-4.10297e-63
-4.1125e-62
-2.46352e-62
-2.59458e-61
-1.51857e-61
-1.68092e-60
-9.59104e-61
-1.11607e-59
-6.19311e-60
-7.57834e-59
-4.08365e-59
-5.25648e-58
-2.75134e-58
-3.72676e-57
-1.89838e-57
-2.70701e-56
-1.34463e-56
-2.01943e-55
-9.80431e-56
-1.55165e-54
-7.3924e-55
-1.23359e-53
-5.82566e-54
-1.02572e-52
-4.84825e-53
-9.01371e-52
-4.24589e-52
-8.3426e-51
-3.87996e-51
-8.06512e-50
-3.74602e-50
-8.2472e-49
-3.78025e-49
-8.82655e-48
-3.89985e-48
-9.6723e-47
-4.00516e-47
-1.05708e-45
-4.00468e-46
-1.31875e-44
-4.39907e-45
-1.48046e-43
-4.31519e-44
-1.48789e-42
-3.6194e-43
-1.2823e-41
-2.26387e-42
-8.26804e-41
-6.99366e-42
-2.64295e-40
4.95626e-41
3.76153e-39
3.7429e-39
1.26386e-37
6.82953e-38
2.28048e-36
1.10056e-36
3.86506e-35
1.63653e-35
6.1664e-34
2.34852e-34
9.59395e-33
3.27069e-33
1.46411e-31
4.19336e-32
2.1072e-30
4.69254e-31
2.72625e-29
4.66578e-30
3.20336e-28
5.356e-29
4.48557e-27
8.56077e-28
9.97913e-26
4.51843e-27
8.66061e-25
5.79795e-24
-2.50287e-70
-1.44954e-69
-8.29426e-70
-5.04066e-69
-3.7014e-69
-2.3606e-68
-1.72234e-68
-1.15278e-67
-8.29032e-68
-5.82376e-67
-4.12398e-67
-3.04081e-66
-2.11844e-66
-1.63972e-65
-1.1229e-65
-9.12479e-65
-6.13728e-65
-5.23647e-64
-3.45668e-64
-3.09713e-63
-2.00556e-63
-1.88729e-62
-1.19852e-62
-1.18475e-61
-7.375e-62
-7.65957e-61
-4.6681e-61
-5.0949e-60
-3.03357e-60
-3.48022e-59
-2.01977e-59
-2.43628e-58
-1.37577e-58
-1.74532e-57
-9.5812e-58
-1.27879e-56
-6.82271e-57
-9.5841e-56
-4.96645e-56
-7.34586e-55
-3.69026e-55
-5.74995e-54
-2.79298e-54
-4.58694e-53
-2.1513e-53
-3.72625e-52
-1.68349e-52
-3.07753e-51
-1.33181e-51
-2.57157e-50
-1.05803e-50
-2.15983e-49
-8.42275e-50
-1.81967e-48
-6.69041e-49
-1.53157e-47
-5.26303e-48
-1.27842e-46
-4.05975e-47
-1.0481e-45
-3.06301e-46
-9.84934e-45
-2.65481e-45
-8.70681e-44
-2.28612e-44
-7.66392e-43
-1.56437e-43
-5.37398e-42
-6.05021e-43
-2.13576e-41
1.73934e-41
5.85605e-40
5.26365e-40
1.52197e-38
1.04304e-38
2.88179e-37
1.71284e-37
4.9059e-36
2.6914e-36
8.08743e-35
4.0824e-35
1.30177e-33
5.9947e-34
2.0474e-32
8.46639e-33
3.12701e-31
1.12328e-31
4.5722e-30
1.36404e-30
6.29654e-29
1.53621e-29
8.22551e-28
1.98976e-28
1.2394e-26
3.38426e-27
2.53719e-25
2.33212e-26
2.5475e-24
1.44012e-23
-4.70125e-70
-2.6858e-69
-1.59551e-69
-9.56485e-69
-7.20385e-69
-4.53195e-68
-3.38974e-68
-2.23797e-67
-1.65e-67
-1.14332e-66
-8.30233e-67
-6.03825e-66
-4.3161e-66
-3.29511e-65
-2.31719e-65
-1.85716e-64
-1.28421e-64
-1.08065e-63
-7.34496e-64
-6.49006e-63
-4.33449e-63
-4.02227e-62
-2.6388e-62
-2.57206e-61
-1.65647e-61
-1.6962e-60
-1.07098e-60
-1.15232e-59
-7.11908e-60
-8.05039e-59
-4.85615e-59
-5.77286e-58
-3.39405e-58
-4.2427e-57
-2.42779e-57
-3.19224e-56
-1.77557e-56
-2.4566e-55
-1.32566e-55
-1.93067e-54
-1.00791e-54
-1.54586e-53
-7.78354e-54
-1.2578e-52
-6.09487e-53
-1.03832e-51
-4.8278e-52
-8.67603e-51
-3.84969e-51
-7.30325e-50
-3.06736e-50
-6.14796e-49
-2.41986e-49
-5.1291e-48
-1.8674e-48
-4.1903e-47
-1.38465e-47
-3.29341e-46
-9.59606e-47
-2.42289e-45
-5.95278e-46
-1.86884e-44
-3.51059e-45
-1.12187e-43
-1.57344e-44
-5.12805e-43
-4.32535e-44
-1.44073e-42
5.2586e-43
8.30616e-42
4.72778e-41
8.88175e-40
1.0881e-39
2.24466e-38
1.90025e-38
4.26481e-37
3.12884e-37
7.4144e-36
4.96402e-36
1.24025e-34
7.62202e-35
2.0121e-33
1.13813e-33
3.18463e-32
1.63851e-32
4.90078e-31
2.25538e-31
7.30854e-30
2.95284e-30
1.05669e-28
3.70229e-29
1.48687e-27
5.0741e-28
2.27132e-26
8.21106e-27
4.12438e-25
7.80609e-26
5.22201e-24
4.52182e-23
-7.38777e-70
-4.16279e-69
-2.55993e-69
-1.51361e-68
-1.16775e-68
-7.24559e-68
-5.54984e-68
-3.61381e-67
-2.72894e-67
-1.86494e-66
-1.38752e-66
-9.95237e-66
-7.29243e-66
-5.4905e-65
-3.96084e-65
-3.13054e-64
-2.22294e-64
-1.84457e-63
-1.28906e-63
-1.12313e-62
-7.72346e-63
-7.06657e-62
-4.78003e-62
-4.59338e-61
-3.05376e-61
-3.08256e-60
-2.01149e-60
-2.13327e-59
-1.36384e-59
-1.51997e-58
-9.5018e-59
-1.11304e-57
-6.79069e-58
-8.3631e-57
-4.97026e-57
-6.43727e-56
-3.71869e-56
-5.06663e-55
-2.83718e-55
-4.06796e-54
-2.20084e-54
-3.32209e-53
-1.73129e-53
-2.75244e-52
-1.37918e-52
-2.31055e-51
-1.11119e-51
-1.96279e-50
-9.02924e-51
-1.68271e-49
-7.35939e-50
-1.44808e-48
-5.96731e-49
-1.24075e-47
-4.76304e-48
-1.04751e-46
-3.68875e-47
-8.59026e-46
-2.71295e-46
-6.6985e-45
-1.83085e-45
-5.61136e-44
-1.20721e-44
-3.75903e-43
-5.82698e-44
-1.84633e-42
-1.26114e-43
-4.07357e-42
5.55393e-43
7.25127e-42
5.1676e-41
8.93459e-40
1.26323e-39
2.28761e-38
2.40219e-38
4.51388e-37
4.10274e-37
8.06899e-36
6.69304e-36
1.38504e-34
1.0512e-34
2.2837e-33
1.59493e-33
3.64351e-32
2.34203e-32
5.6538e-31
3.32457e-31
8.55841e-30
4.57286e-30
1.26757e-28
6.12799e-29
1.85077e-27
8.69998e-28
2.85958e-26
1.39308e-26
5.0655e-25
1.77258e-25
7.95334e-24
1.04121e-22
-1.00547e-69
-5.58739e-69
-3.55313e-69
-2.07188e-68
-1.63738e-68
-1.00192e-67
-7.86103e-68
-5.04798e-67
-3.90602e-67
-2.63238e-66
-2.00781e-66
-1.42017e-65
-1.06746e-65
-7.92515e-65
-5.86923e-65
-4.57415e-64
-3.33749e-64
-2.73063e-63
-1.96293e-63
-1.6862e-62
-1.19407e-62
-1.07707e-61
-7.50975e-62
-7.11389e-61
-4.87877e-61
-4.85427e-60
-3.27003e-60
-3.41797e-59
-2.25786e-59
-2.47967e-58
-1.60337e-58
-1.85055e-57
-1.16895e-57
-1.41818e-56
-8.73043e-57
-1.11365e-55
-6.66245e-56
-8.93821e-55
-5.17916e-55
-7.30997e-54
-4.08777e-54
-6.07207e-53
-3.26713e-53
-5.10957e-52
-2.64099e-52
-4.35056e-51
-2.15845e-51
-3.74716e-50
-1.78208e-50
-3.26223e-49
-1.48159e-49
-2.8617e-48
-1.23242e-48
-2.51353e-47
-1.01698e-47
-2.19195e-46
-8.23592e-47
-1.87776e-45
-6.44812e-46
-1.55688e-44
-4.7733e-45
-1.42826e-43
-3.65427e-44
-1.10879e-42
-2.3035e-43
-7.09709e-42
-1.04332e-42
-3.26878e-41
-1.87048e-42
-5.96888e-41
3.01419e-41
4.70294e-40
1.20174e-39
1.88759e-38
2.43193e-38
4.22933e-37
4.35746e-37
8.03641e-36
7.28028e-36
1.39088e-34
1.1618e-34
2.29763e-33
1.78786e-33
3.67103e-32
2.66628e-32
5.70442e-31
3.86752e-31
8.65712e-30
5.47009e-30
1.28678e-28
7.62902e-29
1.89181e-27
1.12213e-27
2.94898e-26
1.88188e-26
5.30201e-25
2.96041e-25
9.50032e-24
1.50639e-22
-1.21433e-69
-6.65459e-69
-4.37447e-69
-2.51547e-68
-2.03729e-68
-1.22934e-67
-9.8866e-68
-6.26054e-67
-4.9681e-67
-3.30157e-66
-2.58435e-66
-1.80249e-65
-1.39153e-65
-1.01868e-64
-7.7558e-65
-5.95969e-64
-4.47497e-64
-3.60977e-63
-2.67318e-63
-2.26386e-62
-1.65308e-62
-1.46993e-61
-1.05763e-61
-9.87564e-61
-6.99319e-61
-6.85797e-60
-4.77218e-60
-4.91574e-59
-3.35556e-59
-3.63129e-58
-2.42698e-58
-2.75971e-57
-1.80198e-57
-2.15347e-56
-1.37008e-56
-1.72116e-55
-1.06371e-55
-1.40507e-54
-8.40487e-55
-1.16769e-53
-6.73412e-54
-9.84312e-53
-5.45606e-53
-8.39345e-52
-4.46493e-52
-7.23195e-51
-3.69186e-51
-6.29879e-50
-3.08674e-50
-5.55009e-49
-2.6066e-49
-4.94204e-48
-2.21277e-48
-4.42665e-47
-1.87502e-47
-3.96066e-46
-1.57288e-46
-3.51106e-45
-1.29197e-45
-3.05062e-44
-1.02379e-44
-2.991e-43
-8.68966e-44
-2.56969e-42
-6.46022e-43
-1.93582e-41
-3.97711e-42
-1.20902e-40
-1.78779e-41
-5.52052e-40
-3.00213e-41
-9.42938e-40
6.04386e-40
9.72389e-39
2.05938e-38
2.86052e-37
4.18369e-37
6.79141e-36
7.23942e-36
1.24765e-34
1.18201e-34
2.1235e-33
1.84256e-33
3.4295e-32
2.78292e-32
5.36594e-31
4.09111e-31
8.18782e-30
5.88323e-30
1.22621e-28
8.40409e-29
1.833e-27
1.27729e-27
2.91509e-26
2.22047e-26
5.314e-25
3.84448e-25
9.68821e-24
1.63412e-22
-1.32615e-69
-7.1665e-69
-4.87076e-69
-2.76196e-68
-2.29463e-68
-1.36538e-67
-1.12683e-67
-7.03618e-67
-5.7336e-67
-3.75717e-66
-3.02233e-66
-2.07851e-65
-1.65059e-65
-1.19139e-64
-9.34075e-65
-7.07674e-64
-5.47834e-64
-4.35682e-63
-3.33004e-63
-2.7802e-62
-2.09729e-62
-1.83836e-61
-1.36748e-61
-1.2586e-60
-9.2187e-61
-8.9101e-60
-6.41478e-60
-6.51173e-59
-4.59861e-59
-4.9035e-58
-3.38894e-58
-3.79646e-57
-2.56108e-57
-3.01475e-56
-1.9793e-56
-2.44872e-55
-1.56001e-55
-2.02886e-54
-1.25008e-54
-1.70948e-53
-1.01461e-53
-1.4593e-52
-8.31613e-53
-1.25841e-51
-6.87588e-52
-1.09504e-50
-5.74032e-51
-9.62506e-50
-4.84898e-50
-8.56385e-49
-4.14668e-49
-7.71757e-48
-3.57837e-48
-7.02198e-47
-3.09754e-47
-6.41286e-46
-2.67223e-46
-5.84075e-45
-2.27863e-45
-5.26226e-44
-1.90094e-44
-5.42338e-43
-1.7374e-43
-5.00851e-42
-1.44013e-42
-4.19845e-41
-1.05221e-41
-3.10495e-40
-6.45787e-41
-1.93072e-39
-2.96219e-40
-8.98178e-39
-5.76624e-40
-1.77514e-38
8.14006e-39
1.32898e-37
3.01746e-37
3.54148e-36
6.30943e-36
9.16172e-35
1.07219e-34
1.68386e-33
1.72605e-33
2.82828e-32
2.64675e-32
4.48283e-31
3.96195e-31
6.9268e-30
5.82923e-30
1.05507e-28
8.62603e-29
1.62497e-27
1.36282e-27
2.6712e-26
2.44757e-26
4.98073e-25
4.42297e-25
9.4813e-24
1.63842e-22
-1.31972e-69
-7.03284e-69
-4.96235e-69
-2.77484e-68
-2.37354e-68
-1.39271e-67
-1.18357e-67
-7.28766e-67
-6.11544e-67
-3.95152e-66
-3.27248e-66
-2.2191e-65
-1.81588e-65
-1.29234e-64
-1.04581e-64
-7.81192e-64
-6.24991e-64
-4.90033e-63
-3.87509e-63
-3.18943e-62
-2.49134e-62
-2.15268e-61
-1.65902e-61
-1.50507e-60
-1.14246e-60
-1.0883e-59
-8.11995e-60
-8.12293e-59
-5.94246e-59
-6.24358e-58
-4.46518e-58
-4.92805e-57
-3.43415e-57
-3.98192e-56
-2.69502e-56
-3.28357e-55
-2.15253e-55
-2.75631e-54
-1.74562e-54
-2.34971e-53
-1.43224e-53
-2.02707e-52
-1.18522e-52
-1.76422e-51
-9.88343e-52
-1.5477e-50
-8.31848e-51
-1.37085e-49
-7.08923e-50
-1.22989e-48
-6.12852e-49
-1.11974e-47
-5.36278e-48
-1.03238e-46
-4.72648e-47
-9.59175e-46
-4.17394e-46
-8.9343e-45
-3.66995e-45
-8.29099e-44
-3.19012e-44
-8.89012e-43
-3.0858e-43
-8.67452e-42
-2.76682e-42
-7.85068e-41
-2.26217e-41
-6.48307e-40
-1.64762e-40
-4.77238e-39
-1.02463e-39
-3.00171e-38
-4.92458e-39
-1.46017e-37
-1.2377e-38
-3.71708e-37
9.72458e-38
1.57851e-36
3.48651e-36
3.13176e-35
8.34715e-35
1.06623e-33
1.39768e-33
1.97623e-32
2.22958e-32
3.28935e-31
3.40463e-31
5.18466e-30
5.15406e-30
8.07995e-29
7.91884e-29
1.28018e-27
1.30582e-27
2.17277e-26
2.43415e-26
4.15625e-25
4.62428e-25
8.21465e-24
1.41085e-22
-1.19586e-69
-6.28452e-69
-4.66891e-69
-2.57459e-68
-2.26812e-68
-1.3124e-67
-1.15112e-67
-6.98944e-67
-6.06748e-67
-3.866e-66
-3.31459e-66
-2.21633e-65
-1.88005e-65
-1.31931e-64
-1.10826e-64
-8.16238e-64
-6.78468e-64
-5.24477e-63
-4.30773e-63
-3.49541e-62
-2.83285e-62
-2.41301e-61
-1.93141e-61
-1.72715e-60
-1.36157e-60
-1.27837e-59
-9.89837e-60
-9.75852e-59
-7.399e-59
-7.66028e-58
-5.66804e-58
-6.16323e-57
-4.43314e-57
-5.06347e-56
-3.52799e-56
-4.23339e-55
-2.85051e-55
-3.59402e-54
-2.33483e-54
-3.09374e-53
-1.93236e-53
-2.69139e-52
-1.61119e-52
-2.35931e-51
-1.35284e-51
-2.08325e-50
-1.14665e-50
-1.85735e-49
-9.8511e-50
-1.67898e-48
-8.60094e-49
-1.54292e-47
-7.62088e-48
-1.43945e-46
-6.8245e-47
-1.35779e-45
-6.15069e-46
-1.28957e-44
-5.55138e-45
-1.22716e-43
-4.99335e-44
-1.35965e-42
-5.05448e-43
-1.38607e-41
-4.8117e-42
-1.32944e-40
-4.26256e-41
-1.18709e-39
-3.4671e-40
-9.73646e-39
-2.53536e-39
-7.18249e-38
-1.60408e-38
-4.586e-37
-8.07193e-38
-2.3298e-36
-2.42613e-37
-7.07189e-36
9.04377e-37
1.42041e-35
3.90405e-35
2.95926e-34
9.96537e-34
1.13921e-32
1.66779e-32
2.15605e-31
2.67118e-31
3.59941e-30
4.15947e-30
5.76369e-29
6.60347e-29
9.33511e-28
1.11838e-27
1.59957e-26
2.11721e-26
3.042e-25
4.07749e-25
5.90971e-24
1.01352e-22
-9.46441e-70
-4.90521e-69
-3.88521e-69
-2.11287e-68
-1.95566e-68
-1.11598e-67
-1.0313e-67
-6.1753e-67
-5.64737e-67
-3.54847e-66
-3.18943e-66
-2.10303e-65
-1.8589e-65
-1.28631e-64
-1.12777e-64
-8.19008e-64
-7.13277e-64
-5.43661e-63
-4.67629e-63
-3.74109e-62
-3.16508e-62
-2.65789e-61
-2.21005e-61
-1.94822e-60
-1.59711e-60
-1.47806e-59
-1.18797e-59
-1.15429e-58
-9.06298e-59
-9.24651e-58
-7.06769e-58
-7.57224e-57
-5.61012e-57
-6.31258e-56
-4.51752e-56
-5.33919e-55
-3.68457e-55
-4.57467e-54
-3.04156e-54
-3.96763e-53
-2.53328e-53
-3.47256e-52
-2.12383e-52
-3.05979e-51
-1.79289e-51
-2.71528e-50
-1.52901e-50
-2.43473e-49
-1.32364e-49
-2.21661e-48
-1.1666e-48
-2.05509e-47
-1.04569e-47
-1.93831e-46
-9.50061e-47
-1.85358e-45
-8.71893e-46
-1.79104e-44
-8.04991e-45
-1.7417e-43
-7.45235e-44
-1.98343e-42
-7.82711e-43
-2.09476e-41
-7.80674e-42
-2.10142e-40
-7.33777e-41
-1.98706e-39
-6.44103e-40
-1.75504e-38
-5.21129e-39
-1.42898e-37
-3.80532e-38
-1.0502e-36
-2.41604e-37
-6.7113e-36
-1.23457e-36
-3.45174e-35
-4.02605e-36
-1.13286e-34
1.11373e-35
1.56804e-34
4.22136e-34
2.85411e-33
1.13467e-32
1.20349e-31
1.91698e-31
2.29409e-30
3.12878e-30
3.87733e-29
5.07942e-29
6.36832e-28
8.69146e-28
1.08701e-26
1.64135e-26
2.03005e-25
3.16138e-25
3.89098e-24
6.62322e-23
-6.51354e-70
-3.32956e-69
-2.81201e-69
-1.50826e-68
-1.47475e-68
-8.29998e-68
-8.14575e-68
-4.81052e-67
-4.70276e-67
-2.91425e-66
-2.82522e-66
-1.83718e-65
-1.77188e-65
-1.20914e-64
-1.15525e-64
-8.27324e-64
-7.45593e-64
-5.6038e-63
-5.08167e-63
-4.00857e-62
-3.55694e-62
-2.94499e-61
-2.54557e-61
-2.21229e-60
-1.8846e-60
-1.71932e-59
-1.43177e-59
-1.37126e-58
-1.11183e-58
-1.11796e-57
-8.79811e-58
-9.28867e-57
-7.06346e-57
-7.83066e-56
-5.73735e-56
-6.6796e-55
-4.71152e-55
-5.76108e-54
-3.90951e-54
-5.02134e-53
-3.26883e-53
-4.4106e-52
-2.74996e-52
-3.89849e-51
-2.33075e-51
-3.47211e-50
-1.99849e-50
-3.12893e-49
-1.74257e-49
-2.86783e-48
-1.54959e-48
-2.68122e-47
-1.40393e-47
-2.55442e-46
-1.29228e-46
-2.47302e-45
-1.20496e-45
-2.42587e-44
-1.1343e-44
-2.40296e-43
-1.07555e-43
-2.79912e-42
-1.1636e-42
-3.04067e-41
-1.2032e-41
-3.15724e-40
-1.18177e-40
-3.11396e-39
-1.09483e-39
-2.8969e-38
-9.47554e-39
-2.51745e-37
-7.55255e-38
-2.01447e-36
-5.41997e-37
-1.45104e-35
-3.36873e-36
-9.04961e-35
-1.67711e-35
-4.51876e-34
-5.2217e-35
-1.41034e-33
1.28796e-34
1.66466e-33
4.98559e-33
3.29589e-32
1.27219e-31
1.29219e-30
2.19354e-30
2.42153e-29
3.63629e-29
4.08308e-28
6.22664e-28
6.91138e-27
1.16418e-26
1.26693e-25
2.23888e-25
2.40781e-24
4.07556e-23
-3.98301e-70
-2.00832e-69
-1.8061e-69
-9.55547e-69
-9.91766e-69
-5.50567e-68
-5.8118e-68
-3.38538e-67
-3.63328e-67
-2.22075e-66
-2.42456e-66
-1.55506e-65
-1.70714e-65
-1.14898e-64
-1.19412e-64
-8.43396e-64
-8.03053e-64
-5.95234e-63
-5.68788e-63
-4.42457e-62
-4.1037e-62
-3.35036e-61
-3.00956e-61
-2.57891e-60
-2.27429e-60
-2.04559e-59
-1.75709e-59
-1.65894e-58
-1.38277e-58
-1.37048e-57
-1.10505e-57
-1.14981e-56
-8.93401e-57
-9.75965e-56
-7.29364e-56
-8.36586e-55
-6.01271e-55
-7.24186e-54
-5.001e-54
-6.32537e-53
-4.18755e-53
-5.5626e-52
-3.52848e-52
-4.92305e-51
-2.99891e-51
-4.39525e-50
-2.58342e-50
-3.97773e-49
-2.26748e-49
-3.66819e-48
-2.03281e-48
-3.4556e-47
-1.85932e-47
-3.32162e-46
-1.73092e-46
-3.2501e-45
-1.63583e-45
-3.22874e-44
-1.56471e-44
-3.2468e-43
-1.51248e-43
-3.85076e-42
-1.67448e-42
-4.27476e-41
-1.77937e-41
-4.5544e-40
-1.80497e-40
-4.63133e-39
-1.73754e-39
-4.46841e-38
-1.57494e-38
-4.0583e-37
-1.32954e-37
-3.43151e-36
-1.02857e-36
-2.65781e-35
-7.11148e-36
-1.83869e-34
-4.20977e-35
-1.08833e-33
-1.95079e-34
-5.03844e-33
-5.30912e-34
-1.36851e-32
1.4659e-33
1.88717e-32
6.49895e-32
4.65584e-31
1.39843e-30
1.355e-29
2.4414e-29
2.45756e-28
4.16377e-28
4.1553e-27
7.71521e-27
7.53519e-26
1.48307e-25
1.42649e-24
2.42394e-23
-2.23196e-70
-1.11025e-69
-1.07287e-69
-5.59973e-69
-6.31218e-69
-3.45688e-68
-4.0847e-68
-2.34722e-67
-2.91933e-67
-1.76024e-66
-2.27003e-66
-1.43623e-65
-1.80662e-65
-1.19942e-64
-1.2953e-64
-9.02404e-64
-9.18326e-64
-6.71375e-63
-6.69846e-63
-5.13921e-62
-4.93043e-62
-3.96984e-61
-3.69005e-61
-3.11821e-60
-2.82872e-60
-2.50878e-59
-2.20872e-59
-2.05605e-58
-1.75141e-58
-1.71127e-57
-1.40596e-57
-1.44198e-56
-1.13948e-56
-1.2268e-55
-9.31708e-56
-1.05305e-54
-7.68666e-55
-9.12078e-54
-6.39101e-54
-7.96183e-53
-5.34782e-53
-6.9951e-52
-4.50636e-52
-6.18929e-51
-3.83661e-51
-5.53335e-50
-3.31768e-50
-5.02486e-49
-2.92839e-49
-4.65794e-48
-2.64342e-48
-4.41599e-47
-2.43704e-47
-4.27606e-46
-2.28978e-46
-4.21998e-45
-2.18734e-45
-4.23428e-44
-2.11852e-44
-4.3077e-43
-2.07822e-43
-5.17881e-42
-2.34084e-42
-5.84141e-41
-2.53769e-41
-6.34004e-40
-2.63462e-40
-6.58792e-39
-2.60583e-39
-6.51915e-38
-2.439e-38
-6.10202e-37
-2.14096e-37
-5.35362e-36
-1.74049e-36
-4.3471e-35
-1.28649e-35
-3.20686e-34
-8.40088e-35
-2.08804e-33
-4.6079e-34
-1.14072e-32
-1.9033e-33
-4.68697e-32
-3.99045e-33
-9.76049e-32
1.93732e-32
2.61131e-31
8.07086e-31
6.18337e-30
1.51065e-29
1.34837e-28
2.6352e-28
2.40164e-27
4.88929e-27
4.38163e-26
9.45353e-26
8.36284e-25
1.46569e-23
-1.21089e-70
-5.94329e-70
-6.47449e-70
-3.33432e-69
-4.4027e-69
-2.37904e-68
-3.42602e-68
-1.94247e-67
-2.94973e-67
-1.75481e-66
-2.60487e-66
-1.62602e-65
-2.0965e-65
-1.3732e-64
-1.53508e-64
-1.05507e-63
-1.12416e-63
-8.10764e-63
-8.31257e-63
-6.29117e-62
-6.18813e-62
-4.91469e-61
-4.68748e-61
-3.90686e-60
-3.6189e-60
-3.1654e-59
-2.83775e-59
-2.60496e-58
-2.25399e-58
-2.17154e-57
-1.80853e-57
-1.8287e-56
-1.46369e-56
-1.55339e-55
-1.19495e-55
-1.33109e-54
-9.83776e-55
-1.15026e-53
-8.15776e-54
-1.00121e-52
-6.80991e-53
-8.77318e-52
-5.73175e-52
-7.75132e-51
-4.88363e-51
-6.93287e-50
-4.23497e-50
-6.31115e-49
-3.75444e-49
-5.87345e-48
-3.40709e-48
-5.59523e-47
-3.16016e-47
-5.44782e-46
-2.98991e-46
-5.41047e-45
-2.87902e-45
-5.46834e-44
-2.81406e-44
-5.60966e-43
-2.79026e-43
-6.80916e-42
-3.18178e-42
-7.76595e-41
-3.49849e-41
-8.53737e-40
-3.69179e-40
-9.00346e-39
-3.72123e-39
-9.06488e-38
-3.56173e-38
-8.66109e-37
-3.21235e-37
-7.79219e-36
-2.70197e-36
-6.53246e-35
-2.089e-35
-5.02886e-34
-1.45312e-34
-3.47916e-33
-8.7875e-34
-2.08986e-32
-4.33874e-33
-1.0234e-31
-1.50719e-32
-3.52005e-31
-1.75595e-32
-4.0529e-31
2.82144e-31
1.59747e-30
8.48305e-30
6.63785e-29
1.62115e-28
1.368e-27
3.05471e-27
2.57053e-26
6.04282e-26
5.07167e-25
9.46923e-24
-7.399e-71
-3.584e-70
-4.95311e-70
-2.51737e-69
-4.28059e-69
-2.28269e-68
-4.07711e-68
-2.28123e-67
-3.93805e-67
-2.31191e-66
-3.49381e-66
-2.15213e-65
-2.66844e-65
-1.72469e-64
-1.97249e-64
-1.33771e-63
-1.45407e-63
-1.03474e-62
-1.07616e-62
-8.03583e-62
-8.04671e-62
-6.30501e-61
-6.11707e-61
-5.02958e-60
-4.72555e-60
-4.07726e-59
-3.69983e-59
-3.34991e-58
-2.92871e-58
-2.78271e-57
-2.3396e-57
-2.33282e-56
-1.88539e-56
-1.97284e-55
-1.53279e-55
-1.68318e-54
-1.25629e-54
-1.44775e-53
-1.03712e-53
-1.25429e-52
-8.62616e-53
-1.09482e-51
-7.24528e-52
-9.65012e-51
-6.17244e-51
-8.62741e-50
-5.36181e-50
-7.86443e-49
-4.76753e-49
-7.33776e-48
-4.34205e-48
-7.01218e-47
-4.04405e-47
-6.85214e-46
-3.84437e-46
-6.83343e-45
-3.72194e-45
-6.9394e-44
-3.66063e-44
-7.15755e-43
-3.65638e-43
-8.74287e-42
-4.20436e-42
-1.00434e-40
-4.66758e-41
-1.11337e-39
-4.98072e-40
-1.18568e-38
-5.08642e-39
-1.20762e-37
-4.9447e-38
-1.16998e-36
-4.54522e-37
-1.07087e-35
-3.91591e-36
-9.17752e-35
-3.12452e-35
-7.27601e-34
-2.27002e-34
-5.24558e-33
-1.46344e-33
-3.35087e-32
-8.01836e-33
-1.8162e-31
-3.42798e-32
-7.66664e-31
-9.01026e-32
-1.98562e-30
1.15791e-31
7.09311e-31
4.37761e-30
2.68206e-29
9.7852e-29
7.50923e-28
1.93432e-27
1.55307e-26
4.03115e-26
3.27582e-25
6.59946e-24
-6.94509e-71
-3.32073e-70
-6.10646e-70
-3.06347e-69
-6.3188e-69
-3.32601e-68
-6.53627e-68
-3.60981e-67
-6.23336e-67
-3.61195e-66
-4.90152e-66
-2.98001e-65
-3.64154e-65
-2.32298e-64
-2.66664e-64
-1.78485e-63
-1.94908e-63
-1.36882e-62
-1.43518e-62
-1.05757e-61
-1.07095e-61
-8.28057e-61
-8.11699e-61
-6.58533e-60
-6.24013e-60
-5.31215e-59
-4.8545e-59
-4.33626e-58
-3.81487e-58
-3.57559e-57
-3.02602e-57
-2.97601e-56
-2.42253e-56
-2.49991e-55
-1.95688e-55
-2.11888e-54
-1.59376e-54
-1.8107e-53
-1.30815e-53
-1.55938e-52
-1.08307e-52
-1.3546e-51
-9.071e-52
-1.19028e-50
-7.72027e-51
-1.06277e-49
-6.71045e-50
-9.69049e-49
-5.97607e-49
-9.05227e-48
-5.45359e-48
-8.66409e-47
-5.09136e-47
-8.48225e-46
-4.85349e-46
-8.47795e-45
-4.71428e-45
-8.63205e-44
-4.65433e-44
-8.93091e-43
-4.67058e-43
-1.09492e-41
-5.39905e-42
-1.2631e-40
-6.03147e-41
-1.40736e-39
-6.48389e-40
-1.50794e-38
-6.68035e-39
-1.54734e-37
-6.56454e-38
-1.51303e-36
-6.11563e-37
-1.40125e-35
-5.36011e-36
-1.21951e-34
-4.37504e-35
-9.8715e-34
-3.27913e-34
-7.32699e-33
-2.2109e-33
-4.8843e-32
-1.29789e-32
-2.82983e-31
-6.25558e-32
-1.34342e-30
-2.17021e-31
-4.5805e-30
-3.26828e-31
-6.76322e-30
1.51493e-30
1.36529e-29
5.38624e-29
3.62945e-28
1.25979e-27
9.71121e-27
2.84339e-26
2.23994e-25
4.81416e-24
-1.19098e-70
-5.62228e-70
-1.17176e-69
-5.80377e-69
-1.23987e-68
-6.44326e-68
-1.19917e-67
-6.53837e-67
-9.58097e-67
-5.48093e-66
-7.11249e-66
-4.26898e-65
-5.15108e-65
-3.24386e-64
-3.69705e-64
-2.44276e-63
-2.66822e-63
-1.84974e-62
-1.94836e-62
-1.41717e-61
-1.44356e-61
-1.10167e-60
-1.08535e-60
-8.69063e-60
-8.26606e-60
-6.94446e-59
-6.36594e-59
-5.61125e-58
-4.95352e-58
-4.58103e-57
-3.89325e-57
-3.77752e-56
-3.08994e-56
-3.14544e-55
-2.47533e-55
-2.64354e-54
-2.00035e-54
-2.24113e-53
-1.63074e-53
-1.91661e-52
-1.34301e-52
-1.65573e-51
-1.12084e-51
-1.44939e-50
-9.52241e-51
-1.29146e-49
-8.27332e-50
-1.17669e-48
-7.37019e-49
-1.09914e-47
-6.72983e-48
-1.0522e-46
-6.28834e-47
-1.03054e-45
-6.00166e-46
-1.03069e-44
-5.83848e-45
-1.05041e-43
-5.77542e-44
-1.08814e-42
-5.81072e-43
-1.33632e-41
-6.73734e-42
-1.54471e-40
-7.55502e-41
-1.72576e-39
-8.15992e-40
-1.8556e-38
-8.45652e-39
-1.9128e-37
-8.37154e-38
-1.88164e-36
-7.87331e-37
-1.75658e-35
-6.9868e-36
-1.54536e-34
-5.79849e-35
-1.26972e-33
-4.4469e-34
-9.62542e-33
-3.09801e-33
-6.61709e-32
-1.91003e-32
-4.01809e-31
-9.96959e-32
-2.06129e-30
-4.03144e-31
-8.17344e-30
-9.89933e-31
-1.96312e-29
2.56139e-31
8.84544e-31
2.68819e-29
1.61216e-28
8.4584e-28
6.22094e-27
2.07947e-26
1.57098e-25
3.52873e-24
-2.85603e-70
-1.33145e-69
-2.70644e-69
-1.32379e-68
-2.56657e-68
-1.31712e-67
-2.00007e-67
-1.07689e-66
-1.46895e-66
-8.29814e-66
-1.0471e-65
-6.206e-65
-7.36793e-65
-4.5816e-64
-5.18896e-64
-3.38532e-63
-3.69567e-63
-2.52964e-62
-2.66859e-62
-1.91642e-61
-1.95543e-61
-1.4733e-60
-1.45254e-60
-1.14819e-59
-1.09215e-59
-9.05728e-59
-8.30575e-59
-7.2263e-58
-6.38639e-58
-5.82912e-57
-4.96342e-57
-4.75254e-56
-3.89767e-56
-3.915e-55
-3.09134e-55
-3.25713e-54
-2.47565e-54
-2.736e-53
-2.00279e-53
-2.3215e-52
-1.63958e-52
-1.99315e-51
-1.36268e-51
-1.73712e-50
-1.15481e-50
-1.54356e-49
-1.00199e-49
-1.40409e-48
-8.91933e-49
-1.3101e-47
-8.1399e-48
-1.25298e-46
-7.6035e-47
-1.22626e-45
-7.25636e-46
-1.22575e-44
-7.06055e-45
-1.24876e-43
-6.98804e-44
-1.2935e-42
-7.03851e-43
-1.58892e-41
-8.17208e-42
-1.83752e-40
-9.18226e-41
-2.05494e-39
-9.94486e-40
-2.21324e-38
-1.03448e-38
-2.28728e-37
-1.0292e-37
-2.25841e-36
-9.74443e-37
-2.11956e-35
-8.72575e-36
-1.8789e-34
-7.33188e-35
-1.56059e-33
-5.7207e-34
-1.20166e-32
-4.08477e-33
-8.45224e-32
-2.61179e-32
-5.3131e-31
-1.44341e-31
-2.88043e-30
-6.45422e-31
-1.26048e-29
-1.99905e-30
-3.81083e-29
-2.22003e-30
-4.11959e-29
1.46511e-29
5.83735e-29
5.66061e-28
3.87238e-27
1.5249e-26
1.09042e-25
2.52288e-24
-6.82664e-70
-3.14365e-69
-5.79954e-69
-2.80205e-68
-4.58999e-68
-2.32672e-67
-3.21536e-67
-1.71004e-66
-2.24035e-66
-1.25007e-65
-1.54067e-65
-9.01916e-65
-1.05728e-64
-6.4936e-64
-7.3241e-64
-4.71935e-63
-5.14338e-63
-3.47702e-62
-3.66424e-62
-2.59876e-61
-2.64713e-61
-1.96959e-60
-1.93688e-60
-1.51186e-59
-1.43442e-59
-1.17458e-58
-1.07514e-58
-9.23553e-58
-8.15284e-58
-7.34643e-57
-6.25289e-57
-5.91018e-56
-4.84923e-56
-4.80754e-55
-3.80196e-55
-3.95332e-54
-3.01389e-54
-3.28664e-53
-2.41758e-53
-2.76464e-52
-1.96612e-52
-2.35752e-51
-1.62638e-51
-2.04456e-50
-1.37398e-50
-1.81063e-49
-1.18968e-49
-1.64313e-48
-1.05727e-48
-1.53014e-47
-9.63481e-48
-1.46077e-46
-8.98874e-47
-1.42727e-45
-8.56962e-46
-1.42457e-44
-8.33191e-45
-1.44943e-43
-8.24228e-44
-1.49973e-42
-8.3019e-43
-1.84085e-41
-9.64067e-42
-2.12743e-40
-1.08403e-40
-2.37869e-39
-1.17569e-39
-2.56294e-38
-1.22568e-38
-2.65169e-37
-1.22343e-37
-2.62379e-36
-1.16378e-36
-2.47103e-35
-1.04904e-35
-2.20215e-34
-8.89722e-35
-1.84366e-33
-7.0343e-34
-1.4364e-32
-5.11883e-33
-1.0281e-31
-3.36557e-32
-6.63498e-31
-1.94164e-31
-3.74876e-30
-9.33024e-31
-1.75991e-29
-3.34048e-30
-6.13965e-29
-6.28344e-30
-1.12212e-28
8.87331e-30
3.50785e-29
3.5217e-28
2.12017e-27
1.08945e-26
7.30077e-26
1.74471e-24
-1.47619e-69
-6.71676e-69
-1.09404e-68
-5.22275e-68
-7.51393e-68
-3.76339e-67
-5.04134e-67
-2.64909e-66
-3.37606e-66
-1.8612e-65
-2.25396e-65
-1.30364e-64
-1.51671e-64
-9.20323e-64
-1.03422e-63
-6.5837e-63
-7.15483e-63
-4.77826e-62
-5.01895e-62
-3.51632e-61
-3.56634e-61
-2.62117e-60
-2.56533e-60
-1.97788e-59
-1.86836e-59
-1.51109e-58
-1.37779e-58
-1.16887e-57
-1.02838e-57
-9.15106e-57
-7.76843e-57
-7.25036e-56
-5.93942e-56
-5.8137e-55
-4.59692e-55
-4.71872e-54
-3.60332e-54
-3.87854e-53
-2.86368e-53
-3.23186e-52
-2.31223e-52
-2.73569e-51
-1.90276e-51
-2.35973e-50
-1.60165e-50
-2.08169e-49
-1.38307e-49
-1.88352e-48
-1.22626e-48
-1.74937e-47
-1.11509e-47
-1.66593e-46
-1.0383e-46
-1.62395e-45
-9.88179e-46
-1.61739e-44
-9.59332e-45
-1.64237e-43
-9.4784e-44
-1.69634e-42
-9.53957e-43
-2.07907e-41
-1.10705e-41
-2.39925e-40
-1.2446e-40
-2.67991e-39
-1.3504e-39
-2.88605e-38
-1.40941e-38
-2.98648e-37
-1.40971e-37
-2.95807e-36
-1.34535e-36
-2.79187e-35
-1.21865e-35
-2.49734e-34
-1.04095e-34
-2.10315e-33
-8.3149e-34
-1.65337e-32
-6.14144e-33
-1.19954e-31
-4.12739e-32
-7.90191e-31
-2.46194e-31
-4.60946e-30
-1.24904e-30
-2.28132e-29
-4.94839e-30
-8.79337e-29
-1.21786e-29
-2.09955e-28
-3.53341e-30
-5.89168e-29
1.82853e-28
9.23304e-28
7.47128e-27
4.67748e-26
1.18298e-24
-2.96792e-69
-1.33469e-68
-1.81077e-68
-8.54355e-68
-1.18652e-67
-5.87342e-67
-7.72363e-67
-4.01114e-66
-5.00938e-66
-2.72932e-65
-3.27231e-65
-1.87044e-64
-2.16537e-64
-1.29847e-63
-1.4535e-63
-9.14371e-63
-9.89704e-63
-6.53147e-62
-6.82578e-62
-4.72548e-61
-4.76394e-61
-3.45968e-60
-3.36527e-60
-2.5636e-59
-2.40752e-59
-1.92374e-58
-1.74403e-58
-1.46168e-57
-1.27912e-57
-1.12437e-56
-9.50116e-57
-8.75882e-56
-7.15108e-56
-6.91317e-55
-5.45713e-55
-5.53181e-54
-4.2259e-54
-4.49131e-53
-3.32526e-53
-3.7049e-52
-2.66449e-52
-3.1117e-51
-2.18046e-51
-2.66864e-50
-1.828e-50
-2.34418e-49
-1.57346e-49
-2.1137e-48
-1.39103e-48
-1.95694e-47
-1.26154e-47
-1.85803e-46
-1.17177e-46
-1.80612e-45
-1.11271e-45
-1.79407e-44
-1.07804e-44
-1.81729e-43
-1.06324e-43
-1.87276e-42
-1.06868e-42
-2.29072e-41
-1.23862e-41
-2.63827e-40
-1.3914e-40
-2.94226e-39
-1.50924e-39
-3.1651e-38
-1.57577e-38
-3.27356e-37
-1.57797e-37
-3.24325e-36
-1.5093e-36
-3.06486e-35
-1.37212e-35
-2.74866e-34
-1.17852e-34
-2.32508e-33
-9.49072e-34
-1.84071e-32
-7.0939e-33
-1.34989e-31
-4.85193e-32
-9.03902e-31
-2.97194e-31
-5.40793e-30
-1.5729e-30
-2.7886e-29
-6.71706e-30
-1.15715e-28
-1.96258e-29
-3.27578e-28
-1.92345e-29
-3.10109e-28
1.00177e-28
3.30998e-28
4.91849e-27
2.90122e-26
8.0846e-25
-5.23354e-69
-2.32679e-68
-2.85187e-68
-1.33025e-67
-1.81663e-67
-8.89006e-67
-1.15474e-66
-5.92851e-66
-7.30591e-66
-3.93507e-65
-4.69245e-65
-2.65148e-64
-3.05789e-64
-1.81265e-63
-2.021e-63
-1.25676e-62
-1.3536e-62
-8.83e-62
-9.17112e-62
-6.27572e-61
-6.28334e-61
-4.51013e-60
-4.35715e-60
-3.28051e-59
-3.05927e-59
-2.41588e-58
-2.17453e-58
-1.80102e-57
-1.5652e-57
-1.35953e-56
-1.14183e-56