/*--------------------------------*- C++ -*----------------------------------*\
  =========                 |
  \\      /  F ield         | OpenFOAM: The Open Source CFD Toolbox
   \\    /   O peration     | Website:  https://openfoam.org
    \\  /    A nd           | Version:  9
     \\/     M anipulation  |
\*---------------------------------------------------------------------------*/
FoamFile
{
    format      ascii;
    class       volScalarField;
    location    "0.01";
    object      alpha.water;
}
// * * * * * * * * * * * * * * * * * * * * * * * * * * * * * * * * * * * * * //

dimensions      [0 0 0 0 0 0 0];

internalField   nonuniform List<scalar> 
5000
(
-1.6903e-65
-4.66168e-65
-1.90998e-64
-8.11906e-64
-3.56763e-63
-1.62113e-62
-7.58079e-62
-3.64242e-61
-1.79781e-60
-9.06944e-60
-4.63395e-59
-2.38062e-58
-1.22459e-57
-6.16164e-57
-2.88247e-56
-1.11598e-55
-2.42207e-55
-1.89106e-54
-6.79407e-53
-1.4128e-51
-2.38141e-50
-3.71087e-49
-5.5736e-48
-7.94706e-47
-1.04267e-45
-1.31001e-44
-1.62877e-43
-1.98763e-42
-2.37107e-41
-2.74612e-40
-3.0765e-39
-3.79015e-38
-4.25588e-37
-4.27829e-36
-3.66795e-35
-2.48235e-34
-1.157e-33
-2.04981e-33
7.90014e-33
1.98013e-31
3.46391e-30
5.73953e-29
9.55915e-28
1.53031e-26
2.64616e-25
4.7401e-24
8.95719e-23
1.81623e-21
2.70529e-20
1.1038e-19
-1.1676e-64
-3.5837e-64
-1.5357e-63
-6.87123e-63
-3.18209e-62
-1.52358e-61
-7.53166e-61
-3.83945e-60
-2.01539e-59
-1.08714e-58
-6.01464e-58
-3.40894e-57
-1.97815e-56
-1.17316e-55
-7.09017e-55
-4.35661e-54
-2.72405e-53
-1.75511e-52
-1.19032e-51
-8.66461e-51
-6.9814e-50
-6.44397e-49
-6.91463e-48
-8.22747e-47
-9.94507e-46
-1.18661e-44
-1.43352e-43
-1.71954e-42
-2.01991e-41
-2.29261e-40
-2.49314e-39
-2.94358e-38
-3.13234e-37
-2.95882e-36
-2.32805e-35
-1.31026e-34
-4.33913e-34
6.74503e-34
5.39696e-32
9.88154e-31
1.57438e-29
2.41006e-28
3.72138e-27
5.38411e-26
7.22023e-25
9.27117e-24
1.39583e-22
2.80943e-21
3.20708e-20
2.15904e-19
-3.96606e-64
-1.27429e-63
-5.59675e-63
-2.56528e-62
-1.21663e-61
-5.96389e-61
-3.01849e-60
-1.57572e-59
-8.47426e-59
-4.68995e-58
-2.6689e-57
-1.56121e-56
-9.38639e-56
-5.79489e-55
-3.66646e-54
-2.37233e-53
-1.56794e-52
-1.05922e-51
-7.33084e-51
-5.21058e-50
-3.8144e-49
-2.88909e-48
-2.28854e-47
-1.9158e-46
-1.68904e-45
-1.5553e-44
-1.51476e-43
-1.54394e-42
-1.61113e-41
-1.67659e-40
-1.70668e-39
-1.91276e-38
-1.91895e-37
-1.65067e-36
-1.06218e-35
-3.388e-35
7.43629e-35
9.45034e-33
1.89059e-31
3.23908e-30
5.13972e-29
7.94079e-28
1.20913e-26
1.7302e-25
2.21748e-24
2.588e-23
3.61218e-22
7.91586e-21
7.07558e-20
4.80727e-19
-9.33853e-64
-3.09509e-63
-1.38147e-62
-6.42987e-62
-3.09591e-61
-1.54063e-60
-7.91768e-60
-4.19916e-59
-2.29658e-58
-1.29449e-57
-7.51742e-57
-4.49713e-56
-2.77067e-55
-1.75622e-54
-1.14314e-53
-7.62536e-53
-5.20518e-52
-3.63392e-51
-2.59495e-50
-1.89498e-49
-1.41317e-48
-1.074e-47
-8.31156e-47
-6.53913e-46
-5.20472e-45
-4.16364e-44
-3.34096e-43
-2.67795e-42
-2.12857e-41
-1.66158e-40
-1.27402e-39
-1.1243e-38
-9.87828e-38
-6.91323e-37
-2.74178e-36
3.55128e-35
1.24374e-33
2.663e-32
4.58311e-31
7.56464e-30
1.21109e-28
1.89214e-27
2.8754e-26
4.15965e-25
5.58644e-24
7.03885e-23
1.0403e-21
2.19447e-20
2.06599e-19
1.15978e-18
-1.73029e-63
-5.87294e-63
-2.65213e-62
-1.24823e-61
-6.07761e-61
-3.05914e-60
-1.59101e-59
-8.54599e-59
-4.73912e-58
-2.71241e-57
-1.602e-56
-9.76218e-56
-6.13492e-55
-3.97159e-54
-2.64395e-53
-1.8066e-52
-1.26513e-51
-9.06982e-51
-6.65014e-50
-4.97947e-49
-3.79847e-48
-2.94437e-47
-2.31543e-46
-1.84298e-45
-1.47771e-44
-1.18481e-43
-9.41396e-43
-7.32409e-42
-5.48139e-41
-3.83945e-40
-2.41624e-39
-1.44793e-38
-6.60608e-38
-1.85228e-37
1.06159e-36
1.10646e-34
2.66208e-33
4.76748e-32
8.11749e-31
1.33928e-29
2.15029e-28
3.37978e-27
5.16074e-26
7.59858e-25
1.07389e-23
1.46415e-22
2.2123e-21
4.14824e-20
4.72504e-19
3.53354e-18
-2.68179e-63
-9.29362e-63
-4.24006e-62
-2.01554e-61
-9.91323e-61
-5.04193e-60
-2.6509e-59
-1.44048e-58
-8.08873e-58
-4.69356e-57
-2.81426e-56
-1.74325e-55
-1.11481e-54
-7.35171e-54
-4.99134e-53
-3.48278e-52
-2.49344e-51
-1.82868e-50
-1.37133e-49
-1.04899e-48
-8.16137e-48
-6.44178e-47
-5.15132e-46
-4.16839e-45
-3.40384e-44
-2.78989e-43
-2.27657e-42
-1.83031e-41
-1.42921e-40
-1.06107e-39
-7.25198e-39
-4.84934e-38
-2.37731e-37
-5.2344e-37
9.12376e-37
1.15256e-34
2.95245e-33
5.82191e-32
1.02895e-30
1.7344e-29
2.82663e-28
4.47139e-27
6.88113e-26
1.02952e-24
1.50285e-23
2.1474e-22
3.27073e-21
5.72938e-20
8.08789e-19
9.18933e-18
-3.59952e-63
-1.27212e-62
-5.86305e-62
-2.81534e-61
-1.39922e-60
-7.19438e-60
-3.82622e-59
-2.10463e-58
-1.19735e-57
-7.04619e-57
-4.28912e-56
-2.6996e-55
-1.75539e-54
-1.17779e-53
-8.14199e-53
-5.78981e-52
-4.22773e-51
-3.16318e-50
-2.41885e-49
-1.8847e-48
-1.49146e-47
-1.19561e-46
-9.69747e-46
-7.95609e-45
-6.59737e-44
-5.51198e-43
-4.61066e-42
-3.82885e-41
-3.12316e-40
-2.46534e-39
-1.84517e-38
-1.42982e-37
-9.13413e-37
-4.19828e-36
-7.64921e-36
5.96975e-35
2.67028e-33
5.59099e-32
1.02368e-30
1.76194e-29
2.90402e-28
4.62599e-27
7.16402e-26
1.08354e-24
1.60505e-23
2.352e-22
3.63658e-21
6.46062e-20
1.09077e-18
1.57858e-17
-4.287e-63
-1.54446e-62
-7.19371e-62
-3.49152e-61
-1.75487e-60
-9.13082e-60
-4.91792e-59
-2.74201e-58
-1.58276e-57
-9.45955e-57
-5.85315e-56
-3.74736e-55
-2.47977e-54
-1.69375e-53
-1.19222e-52
-8.63335e-52
-6.41894e-51
-4.88811e-50
-3.80187e-49
-3.01015e-48
-2.41735e-47
-1.96368e-46
-1.61172e-45
-1.33712e-44
-1.12218e-43
-9.51683e-43
-8.11801e-42
-6.91659e-41
-5.83808e-40
-4.82923e-39
-3.86282e-38
-3.31254e-37
-2.49051e-36
-1.55218e-35
-7.07154e-35
-1.20496e-34
1.15328e-33
4.46135e-32
9.32884e-31
1.65743e-29
2.77473e-28
4.4424e-27
6.90364e-26
1.04667e-24
1.55558e-23
2.2973e-22
3.5953e-21
6.45941e-20
1.17865e-18
1.9608e-17
-4.61675e-63
-1.69578e-62
-7.98966e-62
-3.92402e-61
-1.99698e-60
-1.05288e-59
-5.75156e-59
-3.25582e-58
-1.91023e-57
-1.16165e-56
-7.31984e-56
-4.77553e-55
-3.22157e-54
-2.24348e-53
-1.60977e-52
-1.18756e-51
-8.98529e-51
-6.95361e-50
-5.48907e-49
-4.40625e-48
-3.58336e-47
-2.94366e-46
-2.44002e-45
-2.04287e-44
-1.73123e-43
-1.48587e-42
-1.28749e-41
-1.11964e-40
-9.7095e-40
-8.32821e-39
-7.00227e-38
-6.45447e-37
-5.39975e-36
-3.98489e-35
-2.47226e-34
-1.14732e-33
-2.26163e-33
1.42749e-32
6.46717e-31
1.37208e-29
2.37653e-28
3.9003e-27
6.10385e-26
9.32763e-25
1.40083e-23
2.11039e-22
3.39316e-21
6.22859e-20
1.15919e-18
1.96454e-17
-4.53061e-63
-1.70367e-62
-8.14944e-62
-4.06419e-61
-2.10023e-60
-1.12406e-59
-6.2387e-59
-3.59393e-58
-2.14845e-57
-1.33257e-56
-8.57094e-56
-5.71037e-55
-3.93466e-54
-2.7984e-53
-2.04955e-52
-1.5414e-51
-1.18668e-50
-9.32345e-50
-7.45643e-49
-6.0558e-48
-4.97697e-47
-4.12632e-46
-3.4482e-45
-2.90914e-44
-2.48589e-43
-2.15549e-42
-1.89255e-41
-1.67434e-40
-1.48492e-39
-1.31188e-38
-1.14757e-37
-1.11761e-36
-1.00944e-35
-8.31808e-35
-6.10921e-34
-3.83317e-33
-1.85975e-32
-4.72096e-32
1.38493e-31
7.2192e-30
1.74558e-28
2.97324e-27
4.8116e-26
7.44989e-25
1.14213e-23
1.77408e-22
2.94432e-21
5.52032e-20
1.05628e-18
1.80873e-17
-4.04852e-63
-1.58071e-62
-7.67945e-62
-3.89783e-61
-2.05474e-60
-1.12263e-59
-6.36871e-59
-3.75506e-58
-2.29939e-57
-1.46036e-56
-9.60703e-56
-6.55269e-55
-4.62161e-54
-3.36169e-53
-2.51445e-52
-1.92761e-51
-1.5089e-50
-1.20195e-49
-9.72179e-49
-7.97265e-48
-6.60737e-47
-5.51761e-46
-4.64086e-45
-3.94111e-44
-3.39319e-43
-2.96972e-42
-2.63841e-41
-2.3698e-40
-2.14298e-39
-1.9414e-38
-1.75476e-37
-1.78546e-36
-1.70905e-35
-1.52277e-34
-1.24611e-33
-9.16994e-33
-5.83964e-32
-2.95832e-31
-8.95253e-31
7.19134e-31
7.57116e-29
1.97188e-27
3.33993e-26
5.39433e-25
8.45213e-24
1.34702e-22
2.28374e-21
4.32665e-20
8.40446e-19
1.43078e-17
-3.15995e-63
-1.29722e-62
-6.53002e-62
-3.44377e-61
-1.88595e-60
-1.06523e-59
-6.20931e-59
-3.76772e-58
-2.38343e-57
-1.56296e-56
-1.05816e-55
-7.39113e-55
-5.3433e-54
-3.97621e-53
-3.03497e-52
-2.36817e-51
-1.88102e-50
-1.51581e-49
-1.23736e-48
-1.02239e-47
-8.52448e-47
-7.1552e-46
-6.04831e-45
-5.16576e-44
-4.47929e-43
-3.95509e-42
-3.55239e-41
-3.23475e-40
-2.97595e-39
-2.75508e-38
-2.55948e-37
-2.69798e-36
-2.70108e-35
-2.54859e-34
-2.24585e-33
-1.82413e-32
-1.33709e-31
-8.52071e-31
-4.36912e-30
-1.42927e-29
5.58312e-30
7.59627e-28
2.10362e-26
3.58459e-25
5.86255e-24
9.50585e-23
1.61699e-21
3.02935e-20
5.80788e-19
9.85286e-18
-2.14491e-63
-9.26013e-63
-4.85662e-62
-2.68265e-61
-1.54886e-60
-9.30559e-60
-5.83671e-59
-3.80591e-58
-2.45668e-57
-1.67467e-56
-1.17244e-55
-8.39272e-55
-6.21529e-54
-4.72343e-53
-3.66932e-52
-2.90485e-51
-2.33327e-50
-1.89626e-49
-1.55818e-48
-1.29385e-47
-1.08266e-46
-9.11591e-46
-7.73366e-45
-6.6382e-44
-5.79486e-43
-5.15971e-42
-4.6812e-41
-4.31543e-40
-4.03045e-39
-3.80075e-38
-3.61177e-37
-3.91596e-36
-4.05787e-35
-3.99365e-34
-3.70678e-33
-3.21339e-32
-2.56467e-31
-1.84219e-30
-1.14546e-29
-5.70118e-29
-1.77318e-28
4.54204e-29
8.3981e-27
2.20017e-25
3.81344e-24
6.28006e-23
1.06167e-21
1.9512e-20
3.69792e-19
6.22634e-18
-1.29376e-63
-5.86666e-63
-3.22155e-62
-1.8879e-61
-1.18027e-60
-7.87656e-60
-5.54625e-59
-3.87981e-58
-2.60945e-57
-1.84844e-56
-1.3338e-55
-9.78334e-55
-7.39459e-54
-5.71425e-53
-4.49803e-52
-3.5957e-51
-2.90796e-50
-2.3749e-49
-1.95862e-48
-1.6298e-47
-1.36538e-46
-1.15112e-45
-9.78942e-45
-8.4386e-44
-7.41177e-43
-6.64964e-42
-6.08689e-41
-5.67119e-40
-5.36413e-39
-5.13525e-38
-4.96855e-37
-5.50513e-36
-5.85344e-35
-5.9396e-34
-5.71764e-33
-5.1803e-32
-4.36889e-31
-3.37446e-30
-2.32755e-29
-1.37329e-28
-6.3358e-28
-1.71451e-27
5.44548e-28
1.0334e-25
2.24903e-24
3.90974e-23
6.54628e-22
1.18335e-20
2.22627e-19
3.7357e-18
-7.15223e-64
-3.438e-63
-2.02274e-62
-1.30895e-61
-9.35519e-61
-7.27462e-60
-5.7897e-59
-4.15123e-58
-2.94322e-57
-2.14697e-56
-1.5804e-55
-1.18291e-54
-9.06888e-54
-7.08199e-53
-5.61644e-52
-4.50933e-51
-3.65529e-50
-2.98935e-49
-2.46674e-48
-2.05141e-47
-1.71697e-46
-1.44717e-45
-1.23241e-44
-1.06599e-43
-9.41146e-43
-8.49762e-42
-7.83581e-41
-7.36349e-40
-7.03467e-39
-6.8132e-38
-6.68215e-37
-7.52284e-36
-8.14867e-35
-8.44931e-34
-8.34228e-33
-7.78978e-32
-6.8169e-31
-5.52013e-30
-4.06027e-29
-2.63539e-28
-1.43488e-27
-5.8741e-27
-1.21846e-26
1.30924e-26
1.19933e-24
2.24881e-23
3.83601e-22
6.91261e-21
1.30081e-19
2.21652e-18
-3.82868e-64
-2.04714e-63
-1.39206e-62
-1.08324e-61
-9.32637e-61
-8.23595e-60
-6.62859e-59
-4.85351e-58
-3.55428e-57
-2.62822e-56
-1.95654e-55
-1.48209e-54
-1.14424e-53
-8.9727e-53
-7.12706e-52
-5.71866e-51
-4.62835e-50
-3.77864e-49
-3.11091e-48
-2.57966e-47
-2.15341e-46
-1.81241e-45
-1.54412e-44
-1.33887e-43
-1.18676e-42
-1.0767e-41
-9.98324e-41
-9.44103e-40
-9.08519e-39
-8.8728e-38
-8.78623e-37
-1.0002e-35
-1.09738e-34
-1.15486e-33
-1.16016e-32
-1.10585e-31
-9.92403e-31
-8.29724e-30
-6.36903e-29
-4.39273e-28
-2.62987e-27
-1.28325e-26
-4.39684e-26
-5.04145e-26
3.19714e-25
1.15716e-23
2.19472e-22
4.0155e-21
7.70044e-20
1.3789e-18
-2.30883e-64
-1.54557e-63
-1.33569e-62
-1.27216e-61
-1.22873e-60
-1.09008e-59
-8.32532e-59
-6.15378e-58
-4.5362e-57
-3.3571e-56
-2.51005e-55
-1.90801e-54
-1.47388e-53
-1.15388e-52
-9.13303e-52
-7.29519e-51
-5.87819e-50
-4.77817e-49
-3.91555e-48
-3.2318e-47
-2.68732e-46
-2.25644e-45
-1.92159e-44
-1.66845e-43
-1.48268e-42
-1.34942e-41
-1.25573e-40
-1.19247e-39
-1.153e-38
-1.1322e-37
-1.12825e-36
-1.29368e-35
-1.43132e-34
-1.52112e-33
-1.54588e-32
-1.4942e-31
-1.36423e-30
-1.16608e-29
-9.21867e-29
-6.62604e-28
-4.21899e-27
-2.27877e-26
-9.58328e-26
-2.47202e-25
-4.98795e-42
5.52142e-24
1.2434e-22
2.38749e-21
4.81989e-20
9.30704e-19
-2.13923e-64
-1.88086e-63
-1.94619e-62
-2.01308e-61
-1.91969e-60
-1.50943e-59
-1.12134e-58
-8.21082e-58
-6.00086e-57
-4.41824e-56
-3.29657e-55
-2.49824e-54
-1.92031e-53
-1.49365e-52
-1.17355e-51
-9.30677e-51
-7.44879e-50
-6.0152e-49
-4.89732e-48
-4.01803e-47
-3.3251e-46
-2.78328e-45
-2.36724e-44
-2.05596e-43
-1.82923e-42
-1.66743e-41
-1.55459e-40
-1.47959e-39
-1.43439e-38
-1.41289e-37
-1.41317e-36
-1.62726e-35
-1.80961e-34
-1.935e-33
-1.98127e-32
-1.93292e-31
-1.78577e-30
-1.55015e-29
-1.25133e-28
-9.26044e-28
-6.15371e-27
-3.55324e-26
-1.68073e-25
-5.70823e-25
-8.39295e-25
9.64097e-25
6.34921e-23
1.46942e-21
3.22722e-20
6.70513e-19
-3.62193e-64
-3.56334e-63
-3.77025e-62
-3.64628e-61
-2.91305e-60
-2.16234e-59
-1.56589e-58
-1.12375e-57
-8.10931e-57
-5.92065e-56
-4.38594e-55
-3.29699e-54
-2.51044e-53
-1.93288e-52
-1.5036e-51
-1.18137e-50
-9.37257e-50
-7.50496e-49
-6.06175e-48
-4.93876e-47
-4.06452e-46
-3.38939e-45
-2.87683e-44
-2.4967e-43
-2.22127e-42
-2.02518e-41
-1.88893e-40
-1.79901e-39
-1.74571e-38
-1.72174e-37
-1.72505e-36
-1.99048e-35
-2.21956e-34
-2.38179e-33
-2.45002e-32
-2.40474e-31
-2.23958e-30
-1.96533e-29
-1.61044e-28
-1.21734e-27
-8.34317e-27
-5.04965e-26
-2.58141e-25
-1.01974e-24
-2.43934e-24
1.01653e-41
2.89948e-23
9.38216e-22
2.25533e-20
4.94264e-19
-8.57735e-64
-8.12772e-63
-7.7072e-62
-6.00562e-61
-4.41043e-60
-3.14354e-59
-2.21169e-58
-1.5574e-57
-1.10903e-56
-8.00663e-56
-5.86566e-55
-4.35606e-54
-3.27435e-53
-2.4893e-52
-1.91333e-51
-1.48637e-50
-1.16662e-49
-9.24742e-49
-7.40071e-48
-5.98249e-47
-4.89318e-46
-4.06257e-45
-3.43869e-44
-2.97948e-43
-2.64789e-42
-2.41192e-41
-2.24799e-40
-2.1398e-39
-2.07572e-38
-2.04706e-37
-2.05159e-36
-2.36838e-35
-2.6437e-34
-2.8418e-33
-2.93081e-32
-2.88752e-31
-2.70375e-30
-2.3909e-29
-1.98067e-28
-1.52091e-27
-1.06662e-26
-6.68369e-26
-3.61128e-25
-1.5746e-24
-4.74215e-24
-5.10513e-24
1.2628e-23
6.00568e-22
1.58432e-20
3.59357e-19
-2.0252e-63
-1.72041e-62
-1.36151e-61
-9.53675e-61
-6.64419e-60
-4.5686e-59
-3.13476e-58
-2.17117e-57
-1.52441e-56
-1.08577e-55
-7.8418e-55
-5.73601e-54
-4.24649e-53
-3.18159e-52
-2.41149e-51
-1.84852e-50
-1.43268e-49
-1.12248e-48
-8.89084e-48
-7.12505e-47
-5.78823e-46
-4.78205e-45
-4.0341e-44
-3.48715e-43
-3.09304e-42
-2.81234e-41
-2.61692e-40
-2.48733e-39
-2.40977e-38
-2.37398e-37
-2.37748e-36
-2.74285e-35
-3.06125e-34
-3.29208e-33
-3.39925e-32
-3.35638e-31
-3.1539e-30
-2.80405e-29
-2.34168e-28
-1.81954e-27
-1.29864e-26
-8.35563e-26
-4.70572e-25
-2.20158e-24
-7.65223e-24
-1.39308e-23
1.09493e-24
3.56393e-22
1.08428e-20
2.53083e-19
-4.32709e-63
-3.20672e-62
-2.20223e-61
-1.4774e-60
-9.89261e-60
-6.60368e-59
-4.44294e-58
-3.02897e-57
-2.09498e-56
-1.46919e-55
-1.04365e-54
-7.50444e-54
-5.46332e-53
-4.02692e-52
-3.00405e-51
-2.26784e-50
-1.73265e-49
-1.33991e-48
-1.04929e-47
-8.32997e-47
-6.71745e-46
-5.51986e-45
-4.63862e-44
-3.99788e-43
-3.53675e-42
-3.20787e-41
-2.9781e-40
-2.82459e-39
-2.73118e-38
-2.6859e-37
-2.68593e-36
-3.09435e-35
-3.45022e-34
-3.70874e-33
-3.83031e-32
-3.7861e-31
-3.56565e-30
-3.18222e-29
-2.67344e-28
-2.09632e-27
-1.51677e-26
-9.96288e-26
-5.79388e-25
-2.85816e-24
-1.09785e-23
-2.61158e-23
-7.29952e-24
1.69982e-22
7.10951e-21
1.73207e-19
-8.59847e-63
-5.24572e-62
-3.43701e-61
-2.23707e-60
-1.45072e-59
-9.47509e-59
-6.2687e-58
-4.20691e-57
-2.86378e-56
-1.97449e-55
-1.37758e-54
-9.72728e-54
-6.95566e-53
-5.03602e-52
-3.69129e-51
-2.73989e-50
-2.0605e-49
-1.57093e-48
-1.21519e-47
-9.55027e-47
-7.64166e-46
-6.24329e-45
-5.22431e-44
-4.48717e-43
-3.95709e-42
-3.57847e-41
-3.31288e-40
-3.13389e-39
-3.02286e-38
-2.96608e-37
-2.96033e-36
-3.40388e-35
-3.78957e-34
-4.06927e-33
-4.2008e-32
-4.15365e-31
-3.91702e-30
-3.50519e-29
-2.95816e-28
-2.33618e-27
-1.70881e-26
-1.1411e-25
-6.80726e-25
-3.49936e-24
-1.44734e-23
-4.08307e-23
-3.85108e-23
7.10509e-23
4.47729e-21
1.17725e-19
-1.499e-62
-8.16781e-62
-5.2024e-61
-3.30649e-60
-2.09167e-59
-1.3432e-58
-8.7513e-58
-5.78241e-57
-3.87176e-56
-2.62236e-55
-1.79594e-54
-1.24482e-53
-8.73568e-53
-6.20561e-52
-4.46364e-51
-3.2537e-50
-2.40605e-49
-1.80696e-48
-1.37988e-47
-1.07318e-46
-8.5182e-46
-6.91781e-45
-5.76231e-44
-4.9302e-43
-4.33229e-42
-3.90462e-41
-3.6034e-40
-3.39858e-39
-3.26906e-38
-3.19941e-37
-3.1859e-36
-3.65486e-35
-4.0613e-34
-4.35477e-33
-4.49154e-32
-4.44032e-31
-4.19037e-30
-3.75697e-29
-3.18181e-28
-2.52721e-27
-1.86495e-26
-1.26222e-25
-7.68657e-25
-4.08309e-24
-1.78737e-23
-5.67904e-23
-8.50099e-23
1.03574e-23
2.76263e-21
8.18966e-20
-2.31341e-62
-1.22702e-61
-7.63758e-61
-4.74779e-60
-2.95383e-59
-1.86964e-58
-1.20061e-57
-7.81383e-57
-5.14574e-56
-3.42354e-55
-2.30178e-54
-1.56609e-53
-1.07814e-52
-7.51027e-52
-5.29791e-51
-3.79026e-50
-2.75469e-49
-2.03719e-48
-1.53556e-47
-1.18179e-46
-9.30471e-46
-7.51028e-45
-6.22554e-44
-5.30421e-43
-4.64279e-42
-4.16915e-41
-3.83429e-40
-3.60468e-39
-3.45684e-38
-3.37371e-37
-3.35104e-36
-3.83464e-35
-4.25203e-34
-4.55157e-33
-4.68906e-32
-4.63321e-31
-4.3738e-30
-3.9269e-29
-3.33505e-28
-2.6614e-27
-1.97843e-26
-1.35401e-25
-8.38618e-25
-4.57436e-24
-2.09376e-23
-7.26138e-23
-1.40862e-22
0
1.6404e-21
5.93421e-20
-3.40758e-62
-1.77673e-61
-1.08501e-60
-6.6125e-60
-4.06302e-59
-2.53862e-58
-1.60804e-57
-1.03138e-56
-6.68343e-56
-4.37045e-55
-2.88651e-54
-1.92847e-53
-1.30259e-52
-8.89831e-52
-6.15629e-51
-4.32306e-50
-3.08842e-49
-2.2497e-48
-1.67435e-47
-1.27552e-46
-9.96296e-46
-7.9918e-45
-6.59111e-44
-5.59051e-43
-4.87301e-42
-4.35881e-41
-3.99408e-40
-3.74207e-39
-3.57717e-38
-3.48084e-37
-3.44831e-36
-3.9355e-35
-4.35401e-34
-4.6522e-33
-4.78639e-32
-4.72607e-31
-4.46179e-30
-4.01011e-29
-3.4136e-28
-2.73489e-27
-2.04569e-26
-1.41317e-25
-8.87617e-25
-4.94757e-24
-2.34684e-23
-8.70422e-23
-2.0074e-22
-5.32019e-23
8.90356e-22
4.43812e-20
-4.81442e-62
-2.46831e-61
-1.48491e-60
-8.90513e-60
-5.41329e-59
-3.34287e-58
-2.09064e-57
-1.32259e-56
-8.44161e-56
-5.43134e-55
-3.52732e-54
-2.31574e-53
-1.53574e-52
-1.02949e-51
-6.99016e-51
-4.82136e-50
-3.3883e-49
-2.43299e-48
-1.78919e-47
-1.34983e-46
-1.04622e-45
-8.34005e-45
-6.84213e-44
-5.77597e-43
-5.01254e-42
-4.46524e-41
-4.07596e-40
-3.80521e-39
-3.62552e-38
-3.51715e-37
-3.4748e-36
-3.95496e-35
-4.36541e-34
-4.65556e-33
-4.78318e-32
-4.71916e-31
-4.45499e-30
-4.00736e-29
-3.41798e-28
-2.74776e-27
-2.06624e-26
-1.43868e-25
-9.14265e-25
-5.18752e-24
-2.53265e-23
-9.90204e-23
-2.58879e-22
-1.79771e-22
4.32236e-22
3.32867e-20
-6.47644e-62
-3.27911e-61
-1.9507e-60
-1.15562e-59
-6.95679e-59
-4.25092e-58
-2.62782e-57
-1.64154e-56
-1.03332e-55
-6.55018e-55
-4.18816e-54
-2.70496e-53
-1.76324e-52
-1.16125e-51
-7.74738e-51
-5.25493e-50
-3.63721e-49
-2.57747e-48
-1.87459e-47
-1.40143e-46
-1.07812e-45
-8.54083e-45
-6.96877e-44
-5.85378e-43
-5.05673e-42
-4.48538e-41
-4.07814e-40
-3.79331e-39
-3.60197e-38
-3.48348e-37
-3.43207e-36
-3.89567e-35
-4.28997e-34
-4.56645e-33
-4.68507e-32
-4.61859e-31
-4.35952e-30
-3.92428e-29
-3.3529e-28
-2.7035e-27
-2.04229e-26
-1.43156e-25
-9.18654e-25
-5.28917e-24
-2.64335e-23
-1.07761e-22
-3.09399e-22
-3.42132e-22
1.91768e-22
2.41812e-20
-8.28618e-62
-4.16196e-61
-2.45584e-60
-1.44186e-59
-8.60345e-59
-5.20791e-58
-3.18618e-57
-1.96795e-56
-1.22354e-55
-7.65295e-55
-4.8245e-54
-3.06973e-53
-1.9698e-52
-1.27647e-51
-8.38058e-51
-5.59859e-50
-3.82213e-49
-2.67644e-48
-1.92703e-47
-1.42842e-46
-1.09096e-45
-8.58859e-45
-6.96856e-44
-5.82354e-43
-5.00663e-42
-4.42134e-41
-4.00356e-40
-3.71001e-39
-3.51081e-38
-3.38473e-37
-3.3256e-36
-3.76459e-35
-4.13614e-34
-4.39455e-33
-4.50258e-32
-4.43517e-31
-4.1858e-30
-3.77029e-29
-3.22631e-28
-2.60828e-27
-1.97817e-26
-1.39451e-25
-9.02157e-25
-5.25673e-24
-2.67718e-23
-1.12802e-22
-3.47388e-22
-5.02128e-22
1.26869e-23
1.64837e-20
-1.0104e-61
-5.05019e-61
-2.96273e-60
-1.72837e-59
-1.02309e-58
-6.14204e-58
-3.72372e-57
-2.27732e-56
-1.40066e-55
-8.65843e-55
-5.39006e-54
-3.3843e-53
-2.1415e-52
-1.36791e-51
-8.85348e-51
-5.83498e-50
-3.93514e-49
-2.72641e-48
-1.94504e-47
-1.43029e-46
-1.08474e-45
-8.48607e-45
-6.84595e-44
-5.69074e-43
-4.86841e-42
-4.27978e-41
-3.85926e-40
-3.5627e-39
-3.35976e-38
-3.229e-37
-3.16395e-36
-3.57207e-35
-3.91588e-34
-4.1531e-33
-4.24967e-32
-4.1829e-31
-3.94721e-30
-3.55744e-29
-3.0484e-28
-2.47016e-27
-1.8798e-26
-1.33149e-25
-8.67158e-25
-5.10208e-24
-2.63778e-23
-1.14026e-22
-3.69726e-22
-6.29092e-22
0
1.02483e-20
-1.18119e-61
-5.86706e-61
-3.42785e-60
-1.99113e-59
-1.17024e-58
-6.97513e-58
-4.19602e-57
-2.5446e-56
-1.55073e-55
-9.49e-55
-5.84342e-54
-3.62704e-53
-2.26755e-52
-1.43047e-51
-9.14379e-51
-5.95534e-50
-3.97333e-49
-2.72684e-48
-1.92903e-47
-1.40782e-46
-1.06039e-45
-8.24338e-45
-6.6113e-44
-5.4658e-43
-4.65239e-42
-4.07091e-41
-3.65537e-40
-3.36151e-39
-3.15905e-38
-3.02668e-37
-2.95775e-36
-3.3306e-35
-3.64331e-34
-3.85743e-33
-3.94228e-32
-3.87762e-31
-3.6587e-30
-3.29917e-29
-2.83059e-28
-2.29827e-27
-1.75402e-26
-1.2473e-25
-8.16744e-25
-4.84274e-24
-2.53316e-23
-1.11641e-22
-3.75337e-22
-7.05439e-22
-1.20786e-23
5.67008e-21
-1.33748e-61
-6.51751e-61
-3.80273e-60
-2.20944e-59
-1.2887e-58
-7.6352e-58
-4.56377e-57
-2.74789e-56
-1.66195e-55
-1.00857e-54
-6.1531e-54
-3.78268e-53
-2.3411e-52
-1.46144e-51
-9.2431e-51
-5.95866e-50
-3.93812e-49
-2.67969e-48
-1.88097e-47
-1.36287e-46
-1.01963e-45
-7.87648e-45
-6.27958e-44
-5.16274e-43
-4.37184e-42
-3.80738e-41
-3.40408e-40
-3.11831e-39
-2.92034e-38
-2.78938e-37
-2.71867e-36
-3.05366e-35
-3.33345e-34
-3.52361e-33
-3.59695e-32
-3.53563e-31
-3.33564e-30
-3.00925e-29
-2.5846e-28
-2.10209e-27
-1.6081e-26
-1.14717e-25
-7.54402e-25
-4.49977e-24
-2.37428e-23
-1.06083e-22
-3.64969e-22
-7.25452e-22
-2.49802e-23
2.82409e-21
-1.42457e-61
-6.9304e-61
-4.04871e-60
-2.35849e-59
-1.36752e-58
-8.06415e-58
-4.79614e-57
-2.87097e-56
-1.72601e-55
-1.04052e-54
-6.30077e-54
-3.84322e-53
-2.35933e-52
-1.46031e-51
-9.15475e-51
-5.85018e-50
-3.83432e-49
-2.58888e-48
-1.80404e-47
-1.2981e-46
-9.64757e-46
-7.40556e-45
-5.86881e-44
-4.79792e-43
-4.04173e-42
-3.50309e-41
-3.11848e-40
-2.8456e-39
-2.65574e-38
-2.52894e-37
-2.45848e-36
-2.75464e-35
-3.00103e-34
-3.16729e-33
-3.22963e-32
-3.17257e-31
-2.99272e-30
-2.70088e-29
-2.32176e-28
-1.89089e-27
-1.44922e-26
-1.03636e-25
-6.83722e-25
-4.09564e-24
-2.17364e-23
-9.79279e-23
-3.40666e-22
-6.91875e-22
-3.59632e-23
1.32106e-21
-1.4412e-61
-7.07728e-61
-4.14387e-60
-2.4216e-59
-1.4005e-58
-8.22536e-58
-4.87391e-57
-2.90476e-56
-1.73871e-55
-1.04313e-54
-6.28115e-54
-3.80773e-53
-2.32306e-52
-1.42838e-51
-8.89119e-51
-5.63979e-50
-3.66924e-49
-2.4598e-48
-1.70237e-47
-1.21678e-46
-8.98455e-46
-6.85339e-45
-5.39868e-44
-4.38865e-43
-3.67757e-42
-3.17216e-41
-2.81162e-40
-2.55565e-39
-2.37695e-38
-2.25667e-37
-2.18825e-36
-2.446e-35
-2.65964e-34
-2.80276e-33
-2.85485e-32
-2.80265e-31
-2.64326e-30
-2.38607e-29
-2.05243e-28
-1.67319e-27
-1.28409e-26
-9.19852e-26
-6.08154e-25
-3.65241e-24
-1.94407e-23
-8.78259e-23
-3.05286e-22
-6.1337e-22
-3.74504e-23
1.07171e-21
-1.35244e-61
-7.08207e-61
-4.08121e-60
-2.39302e-59
-1.38646e-58
-8.11034e-58
-4.79345e-57
-2.84862e-56
-1.70025e-55
-1.01697e-54
-6.1005e-54
-3.68139e-53
-2.23609e-52
-1.36834e-51
-8.47126e-51
-5.3406e-50
-3.45198e-49
-2.2989e-48
-1.58068e-47
-1.12255e-46
-8.23625e-46
-6.24373e-45
-4.88915e-44
-3.95206e-43
-3.29436e-42
-2.82798e-41
-2.4957e-40
-2.25973e-39
-2.09457e-38
-1.98269e-37
-1.91781e-36
-2.13869e-35
-2.32109e-34
-2.44237e-33
-2.4851e-32
-2.43802e-31
-2.2987e-30
-2.07514e-29
-1.78559e-28
-1.45649e-27
-1.11866e-26
-8.0209e-26
-5.30823e-25
-3.19043e-24
-1.69774e-23
-7.64391e-23
-2.6211e-22
-5.02539e-22
-2.91426e-23
1.38167e-21
-1.18218e-61
-6.81982e-61
-3.86902e-60
-2.27844e-59
-1.32731e-58
-7.73789e-58
-4.56675e-57
-2.7101e-56
-1.61503e-55
-9.64672e-55
-5.7751e-54
-3.47471e-53
-2.10458e-52
-1.28392e-51
-7.91828e-51
-4.96785e-50
-3.19283e-49
-2.11333e-48
-1.44411e-47
-1.01922e-46
-7.4321e-46
-5.59999e-45
-4.35937e-44
-3.50419e-43
-2.90585e-42
-2.48258e-41
-2.18147e-40
-1.96764e-39
-1.81769e-38
-1.71555e-37
-1.65534e-36
-1.84174e-35
-1.99507e-34
-2.0962e-33
-2.1305e-32
-2.08854e-31
-1.96831e-30
-1.77653e-29
-1.52863e-28
-1.24702e-27
-9.57894e-27
-6.86847e-26
-4.54399e-25
-2.72731e-24
-1.44551e-23
-6.43979e-23
-2.14574e-22
-3.73584e-22
-1.49242e-23
2.68778e-21
-9.89717e-62
-6.24462e-61
-3.53453e-60
-2.09221e-59
-1.22761e-58
-7.15276e-58
-4.21738e-57
-2.50236e-56
-1.49073e-55
-8.90489e-55
-5.32906e-54
-3.20202e-53
-1.9365e-52
-1.17962e-51
-7.25865e-51
-4.53808e-50
-2.90273e-49
-1.91058e-48
-1.29787e-47
-9.10587e-47
-6.60051e-46
-4.94415e-45
-3.82682e-44
-3.05932e-43
-2.52398e-42
-2.14621e-41
-1.87788e-40
-1.6874e-39
-1.5536e-38
-1.46204e-37
-1.40729e-36
-1.56216e-35
-1.689e-34
-1.7719e-33
-1.79874e-32
-1.76171e-31
-1.65916e-30
-1.49672e-29
-1.28728e-28
-1.04962e-27
-8.05733e-27
-5.77119e-26
-3.81029e-25
-2.27748e-24
-1.19656e-23
-5.22787e-23
-1.66195e-22
-2.42575e-22
9.64148e-24
5.92026e-21
-7.7799e-62
-5.26674e-61
-3.18153e-60
-1.85307e-59
-1.09586e-58
-6.41571e-58
-3.77717e-57
-2.24309e-56
-1.33747e-55
-7.99857e-55
-4.792e-54
-2.87996e-53
-1.74122e-52
-1.06051e-51
-6.52087e-51
-4.06833e-50
-2.59268e-49
-1.69806e-48
-1.14712e-47
-8.00257e-47
-5.76775e-46
-4.29592e-45
-3.30669e-44
-2.62949e-43
-2.15856e-42
-1.82705e-41
-1.59195e-40
-1.42513e-39
-1.30778e-38
-1.22715e-37
-1.17831e-36
-1.30493e-35
-1.40813e-34
-1.47483e-33
-1.49514e-32
-1.46269e-31
-1.37618e-30
-1.24026e-29
-1.0656e-28
-8.67789e-28
-6.65029e-27
-4.75111e-26
-3.12319e-25
-1.85209e-24
-9.58493e-24
-4.06086e-23
-1.20202e-22
-1.36297e-22
1.76991e-22
1.18019e-20
-5.76401e-62
-4.15136e-61
-2.74085e-60
-1.58345e-59
-9.44308e-59
-5.57513e-58
-3.28196e-57
-1.95198e-56
-1.16619e-55
-6.98834e-55
-4.19664e-54
-2.52645e-53
-1.52887e-52
-9.32057e-52
-5.73462e-51
-3.57556e-50
-2.27317e-49
-1.48276e-48
-9.96613e-48
-6.91527e-47
-4.95702e-46
-3.67211e-45
-2.81154e-44
-2.22434e-43
-1.81717e-42
-1.53122e-41
-1.32875e-40
-1.18513e-39
-1.08397e-38
-1.01419e-37
-9.7139e-37
-1.07319e-35
-1.15567e-34
-1.20823e-33
-1.2229e-32
-1.19461e-31
-1.12233e-30
-1.00992e-29
-8.66137e-29
-7.03744e-28
-5.37623e-27
-3.82286e-26
-2.49396e-25
-1.45977e-24
-7.37931e-24
-2.98443e-23
-7.86916e-23
-5.86551e-23
7.11692e-22
2.08116e-20
-4.02241e-62
-3.04673e-61
-2.17963e-60
-1.33064e-59
-7.85355e-59
-4.68337e-58
-2.77051e-57
-1.64882e-56
-9.87786e-56
-5.93637e-55
-3.57637e-54
-2.15948e-53
-1.30962e-52
-7.99858e-52
-4.9299e-51
-3.07622e-50
-1.95382e-49
-1.27078e-48
-8.50479e-48
-5.8722e-47
-4.18777e-46
-3.08634e-45
-2.35113e-44
-1.85102e-43
-1.50519e-42
-1.26285e-41
-1.09151e-40
-9.69997e-40
-8.84294e-39
-8.24925e-38
-7.88078e-37
-8.68454e-36
-9.33079e-35
-9.73493e-34
-9.8339e-33
-9.58763e-32
-8.98885e-31
-8.06938e-30
-6.90054e-29
-5.58564e-28
-4.24485e-27
-2.99511e-26
-1.93046e-25
-1.10765e-24
-5.40799e-24
-2.03981e-23
-4.53468e-23
-4.19608e-24
1.82197e-21
3.35567e-20
-2.65838e-62
-2.10285e-61
-1.6163e-60
-1.07276e-59
-6.30394e-59
-3.79973e-58
-2.26808e-57
-1.35148e-56
-8.12273e-56
-4.89929e-55
-2.96284e-54
-1.79623e-53
-1.09296e-52
-6.69334e-52
-4.13593e-51
-2.58595e-50
-1.64321e-49
-1.06717e-48
-7.11937e-48
-4.89492e-47
-3.47458e-46
-2.54851e-45
-1.93222e-44
-1.51421e-43
-1.2259e-42
-1.02427e-41
-8.81877e-41
-7.80891e-40
-7.09537e-39
-6.59887e-38
-6.28688e-37
-6.90892e-36
-7.4039e-35
-7.70542e-34
-7.76435e-33
-7.54987e-32
-7.05723e-31
-6.31279e-30
-5.37423e-29
-4.32454e-28
-3.25973e-27
-2.27293e-26
-1.43877e-25
-8.01929e-25
-3.72217e-24
-1.25933e-23
-2.0969e-23
8.27081e-23
3.57419e-21
5.07007e-20
-1.67038e-62
-1.37095e-61
-1.11766e-60
-8.03511e-60
-4.96497e-59
-2.97578e-58
-1.79584e-57
-1.07586e-56
-6.48069e-56
-3.92508e-55
-2.38403e-54
-1.45199e-53
-8.87319e-53
-5.4533e-52
-3.3802e-51
-2.1194e-50
-1.34904e-49
-8.76063e-49
-5.83339e-48
-3.99784e-47
-2.82659e-46
-2.06442e-45
-1.55846e-44
-1.21614e-43
-9.80586e-43
-8.1614e-42
-7.00081e-41
-6.17714e-40
-5.59373e-39
-5.18563e-38
-4.92571e-37
-5.39613e-36
-5.76503e-35
-5.98118e-34
-6.00708e-33
-5.81968e-32
-5.41656e-31
-4.81975e-30
-4.0758e-29
-3.25084e-28
-2.4209e-27
-1.6591e-26
-1.02306e-25
-5.46748e-25
-2.34795e-24
-6.81858e-24
-5.31348e-24
2.72497e-22
5.90087e-21
7.27215e-20
-9.99868e-63
-8.48804e-62
-7.25455e-61
-5.59646e-60
-3.73561e-59
-2.25414e-58
-1.37205e-57
-8.29792e-57
-5.01641e-56
-3.04995e-55
-1.86132e-54
-1.13921e-53
-6.99637e-53
-4.31828e-52
-2.68628e-51
-1.68974e-50
-1.07826e-49
-7.00983e-49
-4.66466e-48
-3.19018e-47
-2.24867e-46
-1.63652e-45
-1.23086e-44
-9.56958e-44
-7.68857e-43
-6.37707e-42
-5.45147e-41
-4.7935e-40
-4.32584e-39
-3.99654e-38
-3.78351e-37
-4.12962e-36
-4.39522e-35
-4.54168e-34
-4.54103e-33
-4.3768e-32
-4.04869e-31
-3.57548e-30
-2.99465e-29
-2.35829e-28
-1.72593e-27
-1.15394e-26
-6.84972e-26
-3.43555e-25
-1.32124e-24
-2.85338e-24
1.34818e-23
5.49426e-22
8.69824e-21
9.97148e-20
-5.70786e-63
-5.00135e-62
-4.44429e-61
-3.63522e-60
-2.62178e-59
-1.66179e-58
-1.01057e-57
-6.18331e-57
-3.76452e-56
-2.29664e-55
-1.4086e-54
-8.66527e-54
-5.34915e-53
-3.31738e-52
-2.0719e-51
-1.30771e-50
-8.36852e-50
-5.45017e-49
-3.62811e-48
-2.47866e-47
-1.74347e-46
-1.26542e-45
-9.48927e-45
-7.35562e-44
-5.89254e-43
-4.87318e-42
-4.15322e-41
-3.64006e-40
-3.27352e-39
-3.01325e-38
-2.84175e-37
-3.08805e-36
-3.27091e-35
-3.36206e-34
-3.34128e-33
-3.19757e-32
-2.93258e-31
-2.56253e-30
-2.11753e-29
-1.63796e-28
-1.16964e-27
-7.54484e-27
-4.2318e-26
-1.93389e-25
-6.0549e-25
0
4.64798e-23
8.72346e-22
1.1845e-20
1.31051e-19
-3.03924e-63
-2.78426e-62
-2.57922e-61
-2.20753e-60
-1.69833e-59
-1.15124e-58
-7.25235e-58
-4.4406e-57
-2.73094e-56
-1.67569e-55
-1.03205e-54
-6.38164e-54
-3.95962e-53
-2.46755e-52
-1.54769e-51
-9.80271e-51
-6.29136e-50
-4.10584e-49
-2.73571e-48
-1.86851e-47
-1.31265e-46
-9.50935e-46
-7.11547e-45
-5.50327e-44
-4.39887e-43
-3.62954e-42
-3.08533e-41
-2.69598e-40
-2.41605e-39
-2.21513e-38
-2.07985e-37
-2.24804e-36
-2.36668e-35
-2.41578e-34
-2.38139e-33
-2.25691e-32
-2.04561e-31
-1.76161e-30
-1.42892e-29
-1.0779e-28
-7.43463e-28
-4.55081e-27
-2.3496e-26
-9.05086e-26
-1.54182e-25
3.56203e-24
8.46978e-23
1.20995e-21
1.51559e-20
1.65172e-19
-1.30685e-63
-1.39725e-62
-1.39925e-61
-1.25567e-60
-1.01916e-59
-7.37315e-59
-4.9252e-58
-3.08691e-57
-1.90741e-56
-1.18099e-55
-7.31514e-55
-4.54278e-54
-2.83275e-53
-1.77362e-52
-1.11714e-51
-7.1011e-51
-4.57069e-50
-2.98927e-49
-1.99406e-48
-1.3623e-47
-9.56412e-47
-6.92041e-46
-5.17075e-45
-3.99309e-44
-3.18677e-43
-2.62484e-42
-2.22645e-41
-1.94003e-40
-1.73236e-39
-1.58125e-38
-1.47693e-37
-1.58594e-36
-1.65669e-35
-1.67577e-34
-1.63421e-33
-1.52876e-32
-1.36359e-31
-1.15111e-30
-9.10078e-30
-6.62107e-29
-4.34808e-28
-2.47348e-27
-1.09163e-26
-2.29932e-26
2.81637e-25
8.25444e-24
1.20195e-22