/*--------------------------------*- C++ -*----------------------------------*\
  =========                 |
  \\      /  F ield         | OpenFOAM: The Open Source CFD Toolbox
   \\    /   O peration     | Website:  https://openfoam.org
    \\  /    A nd           | Version:  9
     \\/     M anipulation  |
\*---------------------------------------------------------------------------*/
FoamFile
{
    format      ascii;
    class       volScalarField;
    location    "0.01";
    object      p;
}
// * * * * * * * * * * * * * * * * * * * * * * * * * * * * * * * * * * * * * //

dimensions      [1 -1 -2 0 0 0 0];

internalField   nonuniform List<scalar> 
5000
(
0.296649
0.297068
0.297381
0.297703
0.298036
0.298373
0.298716
0.299064
0.299416
0.299771
0.300128
0.300487
0.300846
0.301204
0.301559
0.301909
0.302255
0.302596
0.302931
0.303261
0.30359
0.30392
0.304257
0.304606
0.304975
0.305368
0.305791
0.306243
0.306719
0.307204
0.307715
0.308186
0.308542
0.308763
0.308852
0.308826
0.308706
0.308494
0.308166
0.307665
0.306921
0.305881
0.304517
0.30282
0.300764
0.298274
0.295227
0.291487
0.286926
0.281411
0.29471
0.295124
0.29543
0.295745
0.29607
0.296401
0.296736
0.297076
0.29742
0.297767
0.298116
0.298467
0.298817
0.299166
0.299512
0.299853
0.30019
0.30052
0.300845
0.301165
0.301483
0.301801
0.302125
0.302459
0.302811
0.303186
0.303588
0.304017
0.304466
0.304923
0.305399
0.30583
0.306143
0.306317
0.306356
0.306276
0.306098
0.305825
0.305428
0.304849
0.304021
0.30289
0.30143
0.299633
0.297468
0.29486
0.29169
0.287827
0.283158
0.277578
0.292771
0.293179
0.293478
0.293785
0.294102
0.294425
0.294752
0.295083
0.295418
0.295756
0.296096
0.296437
0.296778
0.297118
0.297455
0.297787
0.298115
0.298438
0.298755
0.299068
0.299379
0.29969
0.300007
0.300333
0.300675
0.301036
0.30142
0.301825
0.302245
0.302666
0.303099
0.303483
0.303753
0.30389
0.303897
0.303785
0.303567
0.303237
0.302768
0.302107
0.301198
0.299996
0.298473
0.296605
0.294354
0.291648
0.288385
0.284448
0.279729
0.274132
0.290832
0.291234
0.291525
0.291825
0.292134
0.292449
0.292767
0.29309
0.293416
0.293746
0.294077
0.294409
0.294741
0.295072
0.2954
0.295724
0.296044
0.296359
0.29667
0.296977
0.297283
0.297589
0.2979
0.29822
0.298553
0.298903
0.299271
0.299654
0.300045
0.300433
0.300824
0.301163
0.301393
0.301499
0.301481
0.301345
0.301093
0.300715
0.300181
0.299449
0.298473
0.297214
0.295641
0.293721
0.291406
0.28863
0.285307
0.281337
0.276611
0.27104
0.288892
0.289288
0.289572
0.289864
0.290166
0.290473
0.290784
0.291098
0.291417
0.291738
0.29206
0.292384
0.292708
0.29303
0.293351
0.293668
0.293981
0.29429
0.294596
0.294898
0.295199
0.2955
0.295806
0.29612
0.296445
0.296783
0.297135
0.297498
0.297864
0.298221
0.298576
0.298877
0.299074
0.299153
0.299112
0.298952
0.29867
0.29825
0.297664
0.296878
0.295851
0.294549
0.292936
0.290975
0.288617
0.285799
0.282446
0.27847
0.273767
0.26826
0.286952
0.287343
0.28762
0.287905
0.288199
0.288499
0.288802
0.289109
0.289419
0.289732
0.290047
0.290363
0.29068
0.290995
0.291308
0.291619
0.291927
0.292231
0.292531
0.292829
0.293126
0.293424
0.293725
0.294032
0.294349
0.294676
0.295013
0.295358
0.295702
0.296033
0.296358
0.296627
0.296795
0.29685
0.296789
0.296608
0.2963
0.295846
0.295221
0.294393
0.29333
0.291998
0.290358
0.288371
0.285989
0.283154
0.279798
0.275842
0.27119
0.265771
0.285012
0.285397
0.285668
0.285946
0.286234
0.286526
0.286822
0.287122
0.287425
0.287731
0.288039
0.288348
0.288657
0.288966
0.289273
0.289578
0.28988
0.29018
0.290476
0.290771
0.291064
0.291358
0.291655
0.291957
0.292266
0.292583
0.292908
0.293236
0.293561
0.29387
0.294169
0.29441
0.294554
0.29459
0.294512
0.294315
0.293986
0.293506
0.292852
0.291996
0.290909
0.289558
0.287905
0.285907
0.28352
0.28069
0.277353
0.273438
0.268858
0.263547
0.283071
0.283451
0.283716
0.283988
0.284269
0.284555
0.284844
0.285138
0.285434
0.285733
0.286034
0.286337
0.28664
0.286942
0.287244
0.287544
0.287842
0.288138
0.288431
0.288722
0.289013
0.289303
0.289596
0.289893
0.290196
0.290504
0.290818
0.291133
0.291441
0.291731
0.292008
0.292227
0.292352
0.292372
0.292282
0.292072
0.291728
0.291231
0.290558
0.289685
0.288587
0.287229
0.285574
0.28358
0.281206
0.2784
0.275102
0.271245
0.266753
0.261564
0.28113
0.281506
0.281764
0.28203
0.282306
0.282586
0.282869
0.283156
0.283446
0.283739
0.284034
0.284331
0.284628
0.284926
0.285223
0.285518
0.285812
0.286104
0.286395
0.286684
0.286972
0.28726
0.28755
0.287842
0.288139
0.288441
0.288745
0.289048
0.289343
0.289617
0.289876
0.290078
0.290188
0.290197
0.290098
0.289881
0.289527
0.28902
0.288337
0.28746
0.28636
0.285007
0.283363
0.281388
0.279042
0.276278
0.273037
0.269256
0.264864
0.259805
0.279188
0.279559
0.279813
0.280073
0.280344
0.280618
0.280896
0.281177
0.281462
0.281749
0.282039
0.28233
0.282623
0.282915
0.283208
0.2835
0.283791
0.28408
0.284368
0.284655
0.284941
0.285227
0.285514
0.285804
0.286096
0.286392
0.286688
0.286982
0.287266
0.287528
0.287773
0.287961
0.28806
0.288063
0.28796
0.287739
0.287383
0.286873
0.28619
0.285317
0.284228
0.282891
0.281269
0.279325
0.277022
0.274315
0.271148
0.267458
0.26318
0.258259
0.277245
0.277613
0.277861
0.278117
0.278383
0.278652
0.278925
0.279202
0.279481
0.279764
0.280048
0.280335
0.280623
0.280911
0.2812
0.281489
0.281777
0.282064
0.282351
0.282636
0.282921
0.283205
0.283491
0.283778
0.284067
0.284357
0.284648
0.284935
0.28521
0.285463
0.285698
0.285876
0.285969
0.285969
0.285867
0.285648
0.285295
0.284789
0.284115
0.283255
0.282186
0.280876
0.279288
0.277389
0.275142
0.272506
0.269427
0.265843
0.26169
0.256916
0.275302
0.275666
0.275911
0.276162
0.276423
0.276688
0.276957
0.277229
0.277504
0.277782
0.278062
0.278345
0.278629
0.278914
0.2792
0.279486
0.279772
0.280057
0.280342
0.280627
0.280911
0.281194
0.281479
0.281764
0.28205
0.282338
0.282625
0.282907
0.283176
0.283422
0.28365
0.283822
0.283913
0.283915
0.283817
0.283606
0.283261
0.282767
0.282109
0.281271
0.280231
0.278958
0.277417
0.275574
0.273396
0.270845
0.267867
0.264402
0.260387
0.255771
0.273358
0.273719
0.27396
0.274208
0.274465
0.274726
0.274991
0.275259
0.27553
0.275804
0.276081
0.27636
0.276641
0.276923
0.277206
0.27749
0.277774
0.278059
0.278343
0.278627
0.278911
0.279194
0.279478
0.279762
0.280047
0.280333
0.280618
0.280897
0.281162
0.281405
0.281629
0.2818
0.281892
0.281899
0.281811
0.281611
0.281281
0.280805
0.280171
0.279364
0.278362
0.277135
0.27565
0.273875
0.271779
0.269325
0.266462
0.263128
0.259263
0.254817
0.271414
0.271772
0.272009
0.272254
0.272508
0.272766
0.273027
0.273292
0.27356
0.273831
0.274104
0.27438
0.274658
0.274938
0.275219
0.275501
0.275784
0.276068
0.276352
0.276636
0.27692
0.277204
0.277488
0.277772
0.278057
0.278343
0.278627
0.278904
0.279169
0.27941
0.279633
0.279806
0.279904
0.27992
0.279845
0.279662
0.279352
0.278901
0.278298
0.277529
0.276573
0.275401
0.273982
0.272287
0.270284
0.267939
0.265204
0.262015
0.258314
0.25405
0.269468
0.269824
0.270058
0.2703
0.270552
0.270807
0.271066
0.271328
0.271593
0.271861
0.272132
0.272405
0.272681
0.272959
0.273239
0.27352
0.273802
0.274086
0.27437
0.274655
0.274939
0.275224
0.275509
0.275794
0.27608
0.276366
0.276651
0.276929
0.277195
0.277437
0.277663
0.277841
0.277948
0.277977
0.277919
0.277757
0.277472
0.277053
0.276487
0.275763
0.274861
0.273753
0.27241
0.270803
0.268905
0.266681
0.264085
0.261054
0.257533
0.253466
0.267521
0.267875
0.268108
0.268347
0.268597
0.26885
0.269106
0.269366
0.269629
0.269895
0.270164
0.270436
0.27071
0.270986
0.271265
0.271545
0.271827
0.272111
0.272396
0.272682
0.272968
0.273254
0.273541
0.273828
0.274116
0.274404
0.27469
0.274971
0.27524
0.275486
0.275717
0.275904
0.276023
0.276068
0.276031
0.275894
0.27564
0.275256
0.274734
0.274062
0.273221
0.272186
0.270927
0.269419
0.267635
0.265544
0.263099
0.26024
0.256912
0.253059
0.265573
0.265925
0.266157
0.266395
0.266643
0.266894
0.267149
0.267407
0.267668
0.267933
0.2682
0.268471
0.268744
0.269019
0.269297
0.269577
0.26986
0.270144
0.27043
0.270717
0.271005
0.271294
0.271583
0.271872
0.272163
0.272454
0.272744
0.273029
0.273302
0.273554
0.273794
0.273992
0.274126
0.274192
0.274178
0.274071
0.273852
0.27351
0.273037
0.272423
0.27165
0.270694
0.269529
0.268128
0.266468
0.264519
0.262237
0.259563
0.256444
0.252823
0.263625
0.263975
0.264206
0.264443
0.26469
0.26494
0.265194
0.265451
0.265711
0.265974
0.266241
0.26651
0.266782
0.267057
0.267335
0.267616
0.267899
0.268184
0.268472
0.268761
0.269051
0.269343
0.269634
0.269927
0.270221
0.270517
0.270812
0.271103
0.271382
0.271642
0.271892
0.272105
0.272257
0.272345
0.27236
0.272285
0.272106
0.27181
0.271392
0.270841
0.270142
0.269273
0.268208
0.266923
0.265396
0.2636
0.261492
0.259016
0.256122
0.25275
0.261675
0.262025
0.262254
0.262491
0.262737
0.262987
0.26324
0.263496
0.263756
0.264019
0.264285
0.264554
0.264826
0.265101
0.265379
0.26566
0.265944
0.266231
0.266521
0.266813
0.267106
0.2674
0.267696
0.267992
0.268291
0.268591
0.268892
0.26919
0.269478
0.269748
0.270011
0.270241
0.270414
0.270527
0.270572
0.270534
0.270398
0.270154
0.269795
0.269312
0.268693
0.267916
0.266959
0.265798
0.264413
0.262779
0.260855
0.258591
0.255938
0.252834
0.259724
0.260073
0.260303
0.26054
0.260786
0.261035
0.261288
0.261544
0.261804
0.262067
0.262333
0.262602
0.262874
0.263149
0.263428
0.26371
0.263996
0.264285
0.264577
0.264871
0.265168
0.265466
0.265766
0.266067
0.266371
0.266677
0.266985
0.267291
0.267589
0.26787
0.268148
0.268398
0.268595
0.268735
0.268813
0.268815
0.268727
0.268537
0.268241
0.267831
0.267296
0.266618
0.265775
0.264745
0.263511
0.262047
0.260318
0.258278
0.255881
0.253065
0.257772
0.258121
0.258351
0.258588
0.258835
0.259085
0.259338
0.259594
0.259854
0.260117
0.260384
0.260653
0.260926
0.261203
0.261482
0.261766
0.262054
0.262345
0.262639
0.262937
0.263237
0.26354
0.263844
0.264151
0.26446
0.264774
0.26509
0.265405
0.265714
0.266008
0.266303
0.266575
0.266797
0.266968
0.267082
0.267126
0.267087
0.266956
0.266727
0.266394
0.265947
0.265372
0.264648
0.263756
0.262679
0.261395
0.25987
0.258065
0.255939
0.253431
0.255819
0.256168
0.256399
0.256637
0.256884
0.257135
0.257389
0.257646
0.257907
0.258171
0.258438
0.258709
0.258983
0.25926
0.259541
0.259827
0.260116
0.26041
0.260708
0.261009
0.261314
0.261621
0.26193
0.262243
0.262559
0.26288
0.263204
0.26353
0.263851
0.26416
0.264474
0.26477
0.26502
0.265223
0.265374
0.265462
0.265476
0.265407
0.265249
0.264996
0.264641
0.264172
0.263571
0.262822
0.261909
0.260811
0.259499
0.257939
0.256096
0.253912
0.253865
0.254214
0.254446
0.254685
0.254934
0.255186
0.255441
0.255699
0.255961
0.256226
0.256495
0.256767
0.257042
0.257322
0.257605
0.257892
0.258184
0.258481
0.258782
0.259087
0.259396
0.259708
0.260024
0.260343
0.260666
0.260995
0.261329
0.261666
0.262
0.262325
0.262659
0.262981
0.26326
0.263497
0.263687
0.263822
0.263891
0.263886
0.263801
0.263632
0.263371
0.263011
0.262536
0.261934
0.26119
0.260285
0.259193
0.257887
0.256334
0.254489
0.25191
0.25226
0.252493
0.252734
0.252984
0.253237
0.253494
0.253754
0.254017
0.254284
0.254554
0.254828
0.255105
0.255387
0.255672
0.255962
0.256257
0.256557
0.256861
0.257171
0.257484
0.257802
0.258123
0.258449
0.25878
0.259118
0.259462
0.259811
0.260159
0.260501
0.260857
0.261207
0.261517
0.261789
0.26202
0.262201
0.262326
0.262388
0.262379
0.262296
0.262133
0.261884
0.261538
0.261084
0.260511
0.259803
0.258938
0.257892
0.256638
0.25514
0.249954
0.250305
0.25054
0.250782
0.251034
0.251289
0.251548
0.25181
0.252075
0.252344
0.252616
0.252892
0.253171
0.253455
0.253743
0.254035
0.254333
0.254636
0.254945
0.255259
0.255578
0.255901
0.256229
0.256562
0.256901
0.257248
0.257603
0.257964
0.258327
0.258687
0.259066
0.259444
0.259788
0.260096
0.260368
0.260598
0.26078
0.260909
0.260978
0.260982
0.260919
0.260784
0.260567
0.260263
0.259862
0.259353
0.258718
0.257939
0.25699
0.255846
0.247997
0.248348
0.248586
0.24883
0.249084
0.249341
0.249602
0.249866
0.250134
0.250405
0.25068
0.250958
0.25124
0.251526
0.251816
0.252112
0.252413
0.25272
0.253033
0.253352
0.253676
0.254005
0.25434
0.254681
0.255028
0.255385
0.255751
0.256124
0.256503
0.256881
0.257284
0.257692
0.25807
0.258417
0.258731
0.25901
0.259249
0.259445
0.259592
0.259686
0.259724
0.259703
0.259618
0.259463
0.259235
0.258924
0.25852
0.258008
0.257368
0.256582
0.246038
0.246391
0.246631
0.246878
0.247134
0.247393
0.247656
0.247923
0.248194
0.248467
0.248745
0.249026
0.24931
0.249599
0.249893
0.250192
0.250497
0.250807
0.251124
0.251448
0.251778
0.252114
0.252456
0.252804
0.25316
0.253527
0.253904
0.254291
0.254685
0.255081
0.255509
0.255948
0.256361
0.256747
0.257106
0.257434
0.25773
0.257992
0.258217
0.2584
0.25854
0.258634
0.258681
0.258677
0.258619
0.258504
0.258328
0.258082
0.257751
0.257323
0.244079
0.244433
0.244675
0.244924
0.245183
0.245445
0.245711
0.245981
0.246254
0.24653
0.246811
0.247095
0.247383
0.247675
0.247972
0.248274
0.248583
0.248897
0.249219
0.249548
0.249883
0.250226
0.250575
0.250931
0.251297
0.251673
0.252062
0.252463
0.252873
0.253288
0.25374
0.254211
0.254659
0.255085
0.255488
0.255867
0.25622
0.256548
0.256849
0.25712
0.25736
0.25757
0.257748
0.257893
0.258005
0.258084
0.258131
0.258144
0.258116
0.258042
0.242119
0.242473
0.242718
0.24297
0.243232
0.243497
0.243765
0.244038
0.244314
0.244594
0.244878
0.245165
0.245456
0.245752
0.246052
0.246358
0.246671
0.24699
0.247316
0.24765
0.247991
0.24834
0.248697
0.249062
0.249436
0.249823
0.250224
0.250638
0.251064
0.251499
0.251975
0.252477
0.252962
0.253428
0.253876
0.254305
0.254716
0.255109
0.255484
0.255842
0.25618
0.256502
0.256809
0.257102
0.257382
0.25765
0.257914
0.25818
0.258445
0.258713
0.240157
0.240513
0.24076
0.241015
0.241279
0.241548
0.241819
0.242095
0.242375
0.242658
0.242945
0.243236
0.243531
0.24383
0.244134
0.244444
0.244761
0.245084
0.245415
0.245754
0.246102
0.246457
0.246822
0.247195
0.247579
0.247976
0.248388
0.248816
0.249259
0.249712
0.250213
0.250747
0.251267
0.251774
0.252267
0.252747
0.253214
0.253671
0.25412
0.254561
0.254995
0.255425
0.255856
0.256293
0.256736
0.25719
0.257666
0.258174
0.25872
0.259315
0.238197
0.238552
0.238799
0.239058
0.239326
0.239598
0.239873
0.240152
0.240435
0.240722
0.241012
0.241307
0.241605
0.241908
0.242217
0.242531
0.242852
0.24318
0.243516
0.24386
0.244214
0.244576
0.244948
0.245329
0.245723
0.24613
0.246554
0.246996
0.247455
0.247927
0.248452
0.249017
0.249572
0.250119
0.250657
0.251187
0.251711
0.252231
0.252752
0.253274
0.2538
0.254335
0.254885
0.255458
0.256058
0.256691
0.25737
0.25811
0.258923
0.259827
0.236232
0.23659
0.236843
0.237104
0.237374
0.237648
0.237926
0.238208
0.238494
0.238785
0.239079
0.239377
0.23968
0.239987
0.2403
0.240618
0.240943
0.241276
0.241617
0.241967
0.242327
0.242696
0.243075
0.243465
0.243868
0.244285
0.244721
0.245176
0.245651
0.246142
0.246692
0.247286
0.247875
0.248461
0.249044
0.249624
0.250203
0.250785
0.251376
0.251977
0.252593
0.253227
0.25389
0.254592
0.25534
0.256142
0.257014
0.257974
0.259038
0.26023
0.234269
0.234627
0.234883
0.235147
0.23542
0.235697
0.235978
0.236264
0.236553
0.236847
0.237145
0.237448
0.237754
0.238066
0.238383
0.238706
0.239035
0.239373
0.239719
0.240075
0.24044
0.240816
0.241203
0.241601
0.242013
0.242441
0.242888
0.243356
0.243846
0.244356
0.244929
0.245553
0.246176
0.2468
0.247425
0.248054
0.248687
0.249329
0.249987
0.250665
0.251367
0.252098
0.252867
0.25369
0.254576
0.255536
0.256587
0.25775
0.259047
0.260504
0.232305
0.232664
0.232922
0.233189
0.233464
0.233744
0.234029
0.234318
0.234611
0.234909
0.235211
0.235517
0.235828
0.236144
0.236465
0.236792
0.237127
0.237469
0.23782
0.238182
0.238553
0.238936
0.23933
0.239736
0.240157
0.240595
0.241053
0.241535
0.24204
0.242568
0.243164
0.243816
0.244471
0.245131
0.245799
0.246474
0.247159
0.247859
0.248582
0.249334
0.250118
0.250941
0.251813
0.252749
0.253762
0.254867
0.256082
0.257431
0.258939
0.260635
0.23034
0.230699
0.230961
0.231229
0.231508
0.231791
0.232078
0.23237
0.232667
0.232968
0.233274
0.233585
0.2339
0.23422
0.234546
0.234878
0.235217
0.235565
0.235921
0.236288
0.236666
0.237055
0.237456
0.237871
0.238301
0.238748
0.239217
0.23971
0.24023
0.240776
0.241394
0.242074
0.24276
0.243455
0.244162
0.244882
0.245617
0.246373
0.247157
0.247978
0.248841
0.249751
0.25072
0.251763
0.252894
0.254131
0.255494
0.25701
0.258706
0.260615
0.228374
0.228734
0.228998
0.229269
0.22955
0.229836
0.230126
0.230421
0.230721
0.231026
0.231336
0.231651
0.23197
0.232295
0.232625
0.232962
0.233306
0.233659
0.23402
0.234393
0.234776
0.235172
0.235581
0.236004
0.236442
0.236899
0.237378
0.237883
0.238417
0.238979
0.239619
0.240326
0.241041
0.241769
0.242514
0.243277
0.244059
0.244867
0.245709
0.246594
0.24753
0.248522
0.249583
0.250725
0.251966
0.253323
0.254819
0.256483
0.258344
0.260437
0.226408
0.226768
0.227034
0.227307
0.227591
0.227879
0.228172
0.22847
0.228774
0.229082
0.229396
0.229714
0.230038
0.230367
0.230702
0.231044
0.231393
0.231751
0.232118
0.232496
0.232885
0.233288
0.233704
0.234134
0.23458
0.235046
0.235535
0.236051
0.236598
0.237176
0.237837
0.238569
0.239312
0.240072
0.240852
0.241655
0.242483
0.24334
0.244236
0.24518
0.246182
0.24725
0.248394
0.249629
0.25097
0.252437
0.254053
0.255847
0.25785
0.260099
0.224441
0.224801
0.225069
0.225344
0.22563
0.22592
0.226216
0.226517
0.226824
0.227136
0.227453
0.227775
0.228103
0.228437
0.228777
0.229123
0.229478
0.22984
0.230213
0.230596
0.230992
0.2314
0.231823
0.232261
0.232716
0.23319
0.233688
0.234215
0.234774
0.235367
0.236047
0.236803
0.237573
0.238362
0.239176
0.240016
0.240886
0.24179
0.242736
0.243734
0.244796
0.245931
0.247151
0.248469
0.249901
0.251467
0.253188
0.255096
0.25722
0.259598
0.222474
0.222833
0.223103
0.22338
0.223667
0.22396
0.224258
0.224562
0.224872
0.225187
0.225507
0.225834
0.226166
0.226504
0.226848
0.2272
0.227559
0.227927
0.228304
0.228693
0.229095
0.22951
0.229939
0.230384
0.230847
0.23133
0.231837
0.232373
0.232943
0.23355
0.234247
0.235026
0.235821
0.236638
0.237482
0.238358
0.239267
0.240215
0.241207
0.242255
0.243371
0.244565
0.245851
0.247242
0.248754
0.250406
0.25222
0.254223
0.256449
0.258932
0.220506
0.220864
0.221135
0.221415
0.221704
0.221998
0.222299
0.222605
0.222917
0.223235
0.223559
0.223889
0.224225
0.224567
0.224916
0.225272
0.225636
0.226009
0.226392
0.226787
0.227194
0.227615
0.228051
0.228504
0.228974
0.229464
0.22998
0.230525
0.231105
0.231724
0.232438
0.233238
0.234056
0.234898
0.235771
0.236678
0.237624
0.238611
0.239647
0.240741
0.241905
0.243152
0.244494
0.245947
0.247527
0.249252
0.251143
0.253227
0.255534
0.258098
0.218538
0.218894
0.219167
0.219448
0.219738
0.220034
0.220337
0.220645
0.220959
0.22128
0.221607
0.221941
0.22228
0.222627
0.22298
0.223341
0.22371
0.224088
0.224476
0.224876
0.225288
0.225715
0.226158
0.226618
0.227095
0.227594
0.228117
0.22867
0.22926
0.229889
0.230618
0.231437
0.232276
0.233142
0.23404
0.234976
0.235954
0.236979
0.238054
0.239191
0.240398
0.241691
0.243081
0.244586
0.246222
0.248006
0.249959
0.252106
0.254476
0.2571
0.216569
0.216924
0.217198
0.217479
0.217771
0.218069
0.218372
0.218683
0.218999
0.219322
0.219652
0.219989
0.220332
0.220682
0.22104
0.221405
0.221779
0.222162
0.222555
0.22296
0.223378
0.223811
0.22426
0.224726
0.225211
0.225717
0.226248
0.226809
0.227406
0.228045
0.228787
0.229623
0.230482
0.231368
0.232289
0.23325
0.234257
0.235314
0.236426
0.237601
0.238848
0.240181
0.241613
0.24316
0.24484
0.246671
0.248671
0.250865
0.253278
0.255941
0.2146
0.214953
0.215227
0.21551
0.215802
0.216101
0.216406
0.216718
0.217036
0.217362
0.217694
0.218033
0.21838
0.218734
0.219095
0.219465
0.219843
0.220231
0.220629
0.221039
0.221462
0.2219
0.222355
0.222828
0.22332
0.223833
0.224371
0.224939
0.225544
0.226192
0.226945
0.227795
0.228671
0.229577
0.230518
0.231501
0.232533
0.233617
0.234761
0.235969
0.237252
0.23862
0.240088
0.24167
0.243385
0.245249
0.247283
0.249508
0.251948
0.25463
0.212631
0.212981
0.213256
0.213539
0.213832
0.214132
0.214438
0.21475
0.21507
0.215398
0.215732
0.216074
0.216424
0.216781
0.217146
0.217519
0.217902
0.218294
0.218697
0.219112
0.21954
0.219984
0.220444
0.220923
0.221421
0.221941
0.222486
0.223061
0.223673
0.224328
0.22509
0.225954
0.226845
0.227767
0.228726
0.229728
0.23078
0.231888
0.233057
0.234295
0.235607
0.237006
0.238504
0.240115
0.241856
0.243745
0.2458
0.248041
0.250492
0.253176
0.210662
0.211009
0.211284
0.211567
0.211861
0.21216
0.212467
0.212781
0.213102
0.21343
0.213767
0.214111
0.214463
0.214823
0.215191
0.215568
0.215955
0.216351
0.216759
0.217178
0.217612
0.21806
0.218526
0.21901
0.219515
0.220042
0.220593
0.221175
0.221793
0.222453
0.223224
0.224098
0.225002
0.225938
0.226913
0.227931
0.229
0.230126
0.231317
0.232577
0.233914
0.235338
0.236861
0.238494
0.240255
0.242159
0.244224
0.246471
0.248918
0.251589
0.208692
0.209037
0.209312
0.209595
0.209888
0.210187
0.210494
0.210808
0.21113
0.21146
0.211798
0.212144
0.212498
0.21286
0.213232
0.213612
0.214002
0.214402
0.214814
0.215238
0.215676
0.21613
0.2166
0.21709
0.2176
0.218133
0.218691
0.219279
0.219902
0.220568
0.221345
0.222227
0.223142
0.22409
0.225078
0.226109
0.227192
0.228333
0.229539
0.230816
0.232172
0.233616
0.235156
0.236806
0.238579
0.240491
0.242558
0.244799
0.247232
0.249876
0.206723
0.207064
0.207338
0.207621
0.207913
0.208213
0.208519
0.208834
0.209156
0.209486
0.209825
0.210172
0.210528
0.210893
0.211267
0.21165
0.212043
0.212447
0.212863
0.213291
0.213733
0.214191
0.214667
0.215161
0.215677
0.216216
0.21678
0.217373
0.218001
0.218672
0.219453
0.220342
0.221265
0.222223
0.223221
0.224263
0.225357
0.226508
0.227725
0.229014
0.230383
0.231839
0.233391
0.23505
0.236829
0.238741
0.240803
0.243029
0.245437
0.248043
0.204754
0.205091
0.205364
0.205646
0.205938
0.206237
0.206543
0.206857
0.207179
0.20751
0.207849
0.208197
0.208554
0.208921
0.209297
0.209683
0.210079
0.210486
0.210904
0.211336
0.211782
0.212244
0.212724
0.213224
0.213744
0.214288
0.214857
0.215456
0.216089
0.216764
0.217549
0.218443
0.219371
0.220336
0.221342
0.222393
0.223495
0.224654
0.225878
0.227173
0.228548
0.23001
0.231567
0.233229
0.235006
0.236912
0.23896
0.241164
0.243539
0.246098
0.202784
0.203118
0.20339
0.203671
0.203961
0.204259
0.204564
0.204877
0.205199
0.20553
0.205869
0.206218
0.206576
0.206944
0.207321
0.207709
0.208107
0.208517
0.208939
0.209374
0.209823
0.210289
0.210773
0.211276
0.211801
0.21235
0.212925
0.213528
0.214165
0.214844
0.215632
0.216529
0.21746
0.21843
0.219442
0.220498
0.221605
0.222769
0.223997
0.225295
0.226671
0.228133
0.229688
0.231345
0.233115
0.235007
0.237033
0.239207
0.241541
0.244045
0.200815
0.201145
0.201415
0.201694
0.201983
0.20228
0.202584
0.202896
0.203217
0.203547
0.203886
0.204235
0.204593
0.204962
0.205341
0.20573
0.20613
0.206542
0.206966
0.207404
0.207856
0.208325
0.208812
0.209319
0.209848
0.210401
0.21098
0.211588
0.21223
0.212911
0.213702
0.2146
0.215533
0.216505
0.217519
0.218579
0.219689
0.220855
0.222083
0.22338
0.224753
0.22621
0.227757
0.229404
0.231158
0.23303
0.235028
0.237165
0.23945
0.241893
0.198846
0.199172
0.19944
0.199717
0.200004
0.200299
0.200601
0.200912
0.201232
0.201561
0.2019
0.202248
0.202606
0.202975
0.203354
0.203745
0.204146
0.20456
0.204986
0.205426
0.205881
0.206352
0.206842
0.207352
0.207885
0.208441
0.209024
0.209636
0.210281
0.210966
0.211758
0.212657
0.21359
0.214562
0.215576
0.216636
0.217746
0.218912
0.220138
0.22143
0.222797
0.224244
0.225778
0.227409
0.229142
0.230987
0.232951
0.235044
0.237275
0.239651
0.196877
0.197198
0.197465
0.197739
0.198024
0.198317
0.198617
0.198927
0.199245
0.199572
0.19991
0.200257
0.200615
0.200983
0.201363
0.201754
0.202156
0.202571
0.202999
0.20344
0.203897
0.20437
0.204862
0.205375
0.20591
0.206469
0.207056
0.207671
0.20832
0.209006
0.2098
0.210699
0.211631
0.212601
0.213613
0.21467
0.215777
0.216939
0.21816
0.219446
0.220803
0.222237
0.223755
0.225364
0.227071
0.228884
0.230808
0.232853
0.235024
0.237328
0.194908
0.195224
0.195489
0.195761
0.196043
0.196334
0.196632
0.196939
0.197255
0.197581
0.197917
0.198263
0.198619
0.198987
0.199366
0.199757
0.20016
0.200575
0.201004
0.201447
0.201905
0.20238
0.202873
0.203387
0.203924
0.204486
0.205075
0.205693
0.206344
0.207033
0.207828
0.208726
0.209656
0.210622
0.211629
0.212682
0.213783
0.214939
0.216152
0.217428
0.218772
0.22019
0.221688
0.223273
0.22495
0.226726
0.228607
0.230598
0.232705
0.234934
0.192939
0.193251
0.193512
0.193782
0.194062
0.194349
0.194645
0.194949
0.195263
0.195587
0.19592
0.196265
0.19662
0.196986
0.197364
0.197755
0.198157
0.198573
0.199002
0.199445
0.199904
0.20038
0.200874
0.201389
0.201927
0.202491
0.203081
0.203701
0.204354
0.205045
0.20584
0.206738
0.207664
0.208626
0.209627
0.210672
0.211765
0.212911
0.214113
0.215377
0.216706
0.218106
0.219581
0.221138
0.222782
0.224518
0.226351
0.228286
0.230327
0.232477
0.190971
0.191277
0.191535
0.191802
0.192079
0.192363
0.192656
0.192958
0.193269
0.19359
0.193921
0.194263
0.194616
0.194981
0.195358
0.195747
0.196149
0.196563
0.196992
0.197436
0.197895
0.198371
0.198865
0.199381
0.199919
0.200483
0.201074
0.201696
0.20235
0.203041
0.203837
0.204733
0.205656
0.206612
0.207606
0.208641
0.209724
0.210858
0.212046
0.213294
0.214605
0.215984
0.217434
0.218961
0.220569
0.222263
0.224046
0.225923
0.227895
0.229965
0.189002
0.189303
0.189558
0.189822
0.190095
0.190377
0.190666
0.190965
0.191273
0.191591
0.191919
0.192259
0.192609
0.192972
0.193347
0.193734
0.194134
0.194548
0.194976
0.195418
0.195877
0.196353
0.196847
0.197362
0.197901
0.198464
0.199055
0.199677
0.200331
0.201022
0.201818
0.202712
0.203631
0.204581
0.205566
0.206591
0.207661
0.208781
0.209953
0.211182
0.212473
0.213827
0.215249
0.216744
0.218314
0.219963
0.221695
0.223511
0.225414
0.227404
0.187034
0.187329
0.187581
0.187841
0.188111
0.188389
0.188675
0.18897
0.189274
0.189589
0.189914
0.190251
0.190599
0.190958
0.191331
0.191716
0.192114
0.192526
0.192952
0.193394
0.193851
0.194326
0.194819
0.195334
0.195871
0.196433
0.197023
0.197644
0.198297
0.198988
0.199782
0.200674
0.201589
0.202532
0.203508
0.204522
0.205578
0.206681
0.207835
0.209043
0.210309
0.211637
0.213029
0.214489
0.216019
0.217622
0.219301
0.221056
0.222889
0.224798
0.185066
0.185355
0.185604
0.18586
0.186126
0.1864
0.186683
0.186974
0.187275
0.187585
0.187907
0.18824
0.188584
0.188941
0.18931
0.189692
0.190088
0.190498
0.190922
0.191362
0.191818
0.192291
0.192782
0.193295
0.19383
0.19439
0.194978
0.195597
0.196249
0.196938
0.19773
0.198618
0.199528
0.200464
0.201431
0.202433
0.203474
0.204559
0.205693
0.206878
0.208119
0.209417
0.210776
0.212199
0.213687
0.215242
0.216867
0.21856
0.220323
0.222152
0.183098
0.183381
0.183626
0.183879
0.184141
0.184411
0.184689
0.184976
0.185273
0.18558
0.185897
0.186226
0.186567
0.18692
0.187285
0.187664
0.188057
0.188464
0.188886
0.189323
0.189776
0.190247
0.190736
0.191246
0.191779
0.192336
0.192921
0.193537
0.194186
0.194872
0.195661
0.196544
0.197449
0.198377
0.199334
0.200324
0.20135
0.202417
0.203529
0.20469
0.205902
0.20717
0.208494
0.209877
0.211322
0.212828
0.214397
0.216028
0.21772
0.219471
0.18113
0.181408
0.181648
0.181897
0.182154
0.18242
0.182694
0.182977
0.183269
0.183572
0.183885
0.18421
0.184546
0.184895
0.185257
0.185632
0.186021
0.186424
0.186843
0.187277
0.187727
0.188195
0.188681
0.189188
0.189717
0.190271
0.190853
0.191464
0.192109
0.192791
0.193575
0.194453
0.19535
0.196271
0.197218
0.198195
0.199205
0.200253
0.201343
0.202479
0.203662
0.204897
0.206185
0.207527
0.208926
0.210382
0.211894
0.213463
0.215085
0.216758
0.179162
0.179434
0.17967
0.179914
0.180168
0.180429
0.180698
0.180977
0.181265
0.181562
0.181871
0.182191
0.182523
0.182867
0.183224
0.183595
0.18398
0.184379
0.184794
0.185224
0.185671
0.186135
0.186618
0.187121
0.187646
0.188196
0.188772
0.189379
0.190019
0.190695
0.191473
0.192343
0.193233
0.194145
0.195081
0.196045
0.197039
0.198069
0.199137
0.200246
0.2014
0.202601
0.203851
0.205152
0.206505
0.207909
0.209364
0.21087
0.212422
0.214019
0.177195
0.17746
0.177692
0.177932
0.17818
0.178437
0.178702
0.178975
0.179258
0.179551
0.179855
0.18017
0.180496
0.180836
0.181188
0.181554
0.181934
0.182329
0.182739
0.183165
0.183607
0.184067
0.184546
0.185045
0.185565
0.186109
0.186681
0.187281
0.187915
0.188585
0.189355
0.190217
0.191098
0.191999
0.192924
0.193874
0.194853
0.195863
0.196908
0.197992
0.199116
0.200283
0.201495
0.202754
0.20406
0.205412
0.206811
0.208253
0.209737
0.211258
0.175228
0.175486
0.175714
0.175949
0.176193
0.176444
0.176704
0.176972
0.17725
0.177538
0.177837
0.178146
0.178468
0.178801
0.179148
0.179509
0.179884
0.180273
0.180678
0.181099
0.181537
0.181992
0.182466
0.182959
0.183475
0.184013
0.184578
0.185172
0.185799
0.186461
0.187222
0.188074
0.188944
0.189834
0.190746
0.191682
0.192644
0.193636
0.194659
0.195716
0.196811
0.197944
0.199119
0.200335
0.201594
0.202895
0.204236
0.205617
0.207032
0.20848
0.173261
0.173513
0.173735
0.173966
0.174205
0.174451
0.174706
0.174969
0.175241
0.175524
0.175817
0.176121
0.176436
0.176764
0.177106
0.17746
0.177829
0.178213
0.178612
0.179028
0.17946
0.17991
0.180378
0.180866
0.181375
0.181907
0.182465
0.183052
0.18367
0.184323
0.185075
0.185915
0.186773
0.18765
0.188548
0.189469
0.190414
0.191386
0.192387
0.193419
0.194484
0.195584
0.196721
0.197896
0.199108
0.200358
0.201644
0.202963
0.204313
0.205688
0.171294
0.171539
0.171757
0.171982
0.172216
0.172457
0.172706
0.172964
0.173231
0.173508
0.173795
0.174093
0.174403
0.174725
0.17506
0.175408
0.175771
0.176148
0.176541
0.176951
0.177377
0.17782
0.178282
0.178764
0.179267
0.179792
0.180343
0.180921
0.18153
0.182174
0.182914
0.183741
0.184585
0.185448
0.186331
0.187235
0.188163
0.189114
0.190093
0.191099
0.192135
0.193203
0.194303
0.195437
0.196604
0.197804
0.199035
0.200295
0.20158
0.202885
0.169327
0.169566
0.169779
0.169999
0.170227
0.170463
0.170707
0.170959
0.17122
0.171491
0.171772
0.172064
0.172367
0.172683
0.173011
0.173353
0.173709
0.17408
0.174466
0.174868
0.175288
0.175724
0.17618
0.176654
0.17715
0.177668
0.17821
0.178779
0.179379
0.180012
0.18074
0.181553
0.182382
0.183229
0.184096
0.184982
0.18589
0.186821
0.187776
0.188757
0.189765
0.1908
0.191865
0.192959
0.194082
0.195233
0.196411
0.197614
0.198836
0.200074
0.16736
0.167592