/*--------------------------------*- C++ -*----------------------------------*\
  =========                 |
  \\      /  F ield         | OpenFOAM: The Open Source CFD Toolbox
   \\    /   O peration     | Website:  https://openfoam.org
    \\  /    A nd           | Version:  9
     \\/     M anipulation  |
\*---------------------------------------------------------------------------*/
FoamFile
{
    format      ascii;
    class       volScalarField;
    location    "0.01";
    object      p_rgh;
}
// * * * * * * * * * * * * * * * * * * * * * * * * * * * * * * * * * * * * * //

dimensions      [1 -1 -2 0 0 0 0];

internalField   nonuniform List<scalar> 
5000
(
-0.000155911
0.000262831
0.000576188
0.000898127
0.00123038
0.00156817
0.00191093
0.00225849
0.00261026
0.00296545
0.00332306
0.00368195
0.00404086
0.00439842
0.00475328
0.00510415
0.00545003
0.00579038
0.00612537
0.0064561
0.00678485
0.00711516
0.00745194
0.00780118
0.00816944
0.00856286
0.00898564
0.00943796
0.00991347
0.010399
0.0109093
0.0113808
0.0117368
0.011958
0.0120469
0.012021
0.0119004
0.0116891
0.0113608
0.0108593
0.010116
0.00907556
0.00771132
0.00601447
0.00395894
0.00146902
-0.00157872
-0.00531852
-0.00987908
-0.0153944
-0.000132917
0.000280761
0.000587097
0.000901918
0.00122698
0.00155739
0.00189261
0.00223245
0.00257632
0.00292341
0.00327277
0.00362325
0.00397359
0.00432241
0.00466831
0.00501
0.00534645
0.00567707
0.00600194
0.00632207
0.00663956
0.00695778
0.00728139
0.00761606
0.007968
0.00834297
0.00874484
0.00917364
0.00962299
0.0100797
0.0105557
0.0109871
0.0112997
0.0114739
0.0115126
0.0114331
0.0112552
0.0109818
0.0105846
0.0100059
0.00917763
0.00804642
0.00658707
0.00478939
0.00262466
1.72132e-05
-0.00315322
-0.00701635
-0.0116853
-0.017265
-0.000110181
0.000297898
0.00059676
0.0009039
0.00122114
0.00154349
0.00187042
0.00220173
0.00253679
0.00287486
0.00321503
0.00355622
0.0038972
0.00423667
0.00457333
0.00490602
0.00523384
0.00555629
0.00587354
0.00618653
0.00649725
0.00680878
0.00712528
0.00745168
0.00779323
0.00815455
0.00853831
0.00894357
0.00936342
0.00978484
0.0102177
0.010602
0.0108714
0.0110088
0.0110157
0.0109042
0.0106857
0.0103562
0.00988633
0.00922549
0.00831682
0.00711484
0.00559128
0.00372348
0.00147228
-0.00123367
-0.00449666
-0.0084328
-0.0131521
-0.0187497
-8.7666e-05
0.000314628
0.000605988
0.000905449
0.0012149
0.00152926
0.00184795
0.00217078
0.00249718
0.00282641
0.00315763
0.0034898
0.00382176
0.00415231
0.00448028
0.00480465
0.00512466
0.00543993
0.00575067
0.00605783
0.00636328
0.00666979
0.00698099
0.00730104
0.00763416
0.00798375
0.00835123
0.00873454
0.00912617
0.00951335
0.00990437
0.0102437
0.0104736
0.0105798
0.010562
0.0104258
0.010174
0.00979564
0.00926169
0.00852942
0.00755334
0.00629466
0.00472184
0.00280163
0.000486878
-0.00228936
-0.00561198
-0.00958196
-0.0143082
-0.0198792
-6.53669e-05
0.000331175
0.000615213
0.000907209
0.0012091
0.0015157
0.00182645
0.00214117
0.00245933
0.00278024
0.00310308
0.0034269
0.00375063
0.00407316
0.00439344
0.00471056
0.00502386
0.00533302
0.00563826
0.00594045
0.00624126
0.00654313
0.00684916
0.00716281
0.00748742
0.00782546
0.0081774
0.00854044
0.00890677
0.00926396
0.00961908
0.00992017
0.0101165
0.0101954
0.0101547
0.00999497
0.00971256
0.00929252
0.00870719
0.0079203
0.00689367
0.00559145
0.00397913
0.00201822
-0.000340104
-0.00315835
-0.00651116
-0.0104874
-0.0151902
-0.0206977
-4.3336e-05
0.000347618
0.000624646
0.000909501
0.00120418
0.00150338
0.00180656
0.0021136
0.00242398
0.00273706
0.00305208
0.00336816
0.00368434
0.00399961
0.00431303
0.0046238
0.0049313
0.00523527
0.00553589
0.0058339
0.00613073
0.00642844
0.00672961
0.00703708
0.00735347
0.00768052
0.00801805
0.00836277
0.00870678
0.00903808
0.00936267
0.00963154
0.00979942
0.00985463
0.00979363
0.009613
0.00930446
0.00885062
0.00822551
0.00739803
0.00633508
0.00500231
0.00336295
0.00137605
-0.00100601
-0.003841
-0.00719718
-0.0111538
-0.0158055
-0.0212248
-2.16444e-05
0.000363977
0.000634394
0.000912524
0.00120041
0.00149267
0.00178878
0.00208863
0.00239176
0.00269755
0.00300534
0.00331431
0.00362358
0.00393226
0.00423951
0.00454459
0.00484698
0.00514642
0.00544303
0.00573743
0.0060308
0.00632482
0.00662161
0.00692344
0.00723237
0.00754954
0.00787427
0.00820292
0.00852758
0.00883667
0.00913533
0.00937708
0.00952112
0.00955666
0.00947893
0.00928137
0.00895225
0.0084727
0.00781862
0.00696296
0.00587621
0.00452499
0.00287146
0.000874065
-0.0015128
-0.0043428
-0.00767979
-0.0115956
-0.0161752
-0.0214866
-3.83561e-07
0.000380192
0.00064443
0.000916275
0.00119782
0.00148361
0.00177314
0.00206632
0.00236274
0.00266183
0.00296298
0.00326545
0.00356847
0.0038712
0.00417292
0.00447298
0.00477088
0.00506639
0.00535956
0.00565088
0.00594129
0.00623214
0.00652511
0.00682203
0.00712446
0.00743306
0.00774674
0.00806159
0.00836971
0.00865993
0.00893676
0.00915607
0.00928087
0.00930114
0.00921088
0.00900086
0.0086568
0.0081593
0.00748635
0.0066142
0.00551563
0.00415775
0.0025025
0.000509208
-0.00186516
-0.00467085
-0.00796883
-0.011826
-0.0163181
-0.0215077
2.03756e-05
0.000396234
0.000654752
0.000920783
0.00119647
0.00147627
0.00175972
0.00204677
0.00233702
0.00262998
0.00292507
0.00322165
0.00351902
0.00381646
0.0041133
0.00440896
0.00470302
0.0049952
0.00528553
0.00557433
0.00586231
0.00615052
0.00644029
0.00673304
0.00702992
0.00733127
0.00763564
0.00793894
0.0082333
0.00850792
0.00876689
0.00896825
0.00907826
0.00908757
0.00898906
0.0087713
0.00841817
0.00791039
0.0072281
0.00635027
0.0052512
0.00389821
0.00225357
0.0002783
-0.00206774
-0.00483172
-0.00807239
-0.0118536
-0.0162452
-0.0213041
4.05653e-05
0.000412066
0.000665342
0.000926048
0.00119637
0.00147072
0.00174863
0.00203008
0.00231473
0.00260211
0.00289173
0.00318303
0.00347536
0.00376811
0.00406068
0.00435257
0.00464337
0.00493282
0.00522086
0.00550769
0.00579379
0.00607994
0.00636713
0.00665648
0.00694885
0.00724427
0.00754108
0.00783504
0.00811837
0.00838058
0.00862554
0.00881328
0.00891279
0.00891532
0.00881286
0.00859221
0.00823601
0.00772554
0.00704297
0.00616945
0.0050804
0.00374347
0.00212159
0.000177707
-0.00212552
-0.00483234
-0.00799943
-0.011689
-0.0159674
-0.0208881
6.01257e-05
0.000427662
0.000676197
0.000932093
0.00119758
0.001467
0.00173991
0.00201632
0.00229593
0.00257832
0.00286306
0.00314966
0.00343755
0.0037262
0.00401509
0.00430377
0.00459188
0.00487914
0.00516542
0.0054508
0.00573556
0.00602022
0.00630552
0.00659231
0.00688123
0.00717211
0.00746312
0.00774992
0.00802484
0.00827768
0.00851226
0.00869051
0.00878368
0.00878361
0.00868154
0.00846291
0.00810967
0.00760386
0.00692951
0.00606956
0.00500043
0.00369024
0.00210292
0.000203274
-0.00204362
-0.00467931
-0.00775836
-0.0113424
-0.0154954
-0.0202689
7.89862e-05
0.000442963
0.000687279
0.000938893
0.00120007
0.00146511
0.00173357
0.00200551
0.00228065
0.00255863
0.00283908
0.00312156
0.00340559
0.00369071
0.00397647
0.00426249
0.00454843
0.00483402
0.00511906
0.00540351
0.00568746
0.00597123
0.00625534
0.00654045
0.00682703
0.00711474
0.00740167
0.00768343
0.00795245
0.00819878
0.00842643
0.00859914
0.00869001
0.00869147
0.0085941
0.00838241
0.00803804
0.00754396
0.00688585
0.00604813
0.00500818
0.00373489
0.0021934
0.000350311
-0.00182728
-0.00437858
-0.00735601
-0.0108213
-0.0148368
-0.0194526
9.70706e-05
0.000457891
0.000698514
0.00094638
0.00120379
0.00146499
0.00172957
0.00199761
0.00226886
0.00254301
0.00281974
0.00309867
0.00337942
0.00366156
0.00394474
0.00422862
0.00451291
0.00479733
0.00508163
0.00536565
0.00564934
0.00593282
0.00621646
0.00650076
0.00678608
0.00707199
0.00735652
0.00763528
0.00790079
0.00814334
0.00836733
0.00853829
0.00863076
0.00863773
0.00854931
0.00834938
0.00801965
0.00754407
0.00690977
0.00610243
0.00510035
0.00387347
0.00238844
0.000613519
-0.00148248
-0.00393655
-0.00679938
-0.010133
-0.0139981
-0.0184444
0.000114299
0.000472358
0.000709828
0.000954493
0.00120868
0.00146661
0.00172787
0.00199257
0.0022605
0.0025314
0.00280498
0.00308094
0.00335893
0.00363864
0.00391976
0.00420202
0.00448515
0.00476889
0.00505295
0.00533705
0.005621
0.0059048
0.00618868
0.00647305
0.00675818
0.0070436
0.00732733
0.00760503
0.00786933
0.00811068
0.00833416
0.00850699
0.00860479
0.0086211
0.00854573
0.00836225
0.00805268
0.007602
0.00699864
0.00622938
0.00527341
0.00410188
0.00268323
0.000987309
-0.00101556
-0.0033601
-0.00609573
-0.00928465
-0.0129854
-0.0172491
0.000130573
0.000486238
0.000721107
0.000963131
0.00121466
0.00146987
0.00172838
0.00199032
0.00225551
0.00252371
0.0027947
0.00306823
0.00334403
0.00362182
0.00390139
0.00418251
0.00446498
0.00474851
0.00503278
0.00531745
0.00560221
0.00588694
0.00617178
0.00645706
0.00674302
0.0070292
0.00731368
0.00759217
0.00785741
0.00810003
0.00832598
0.00850413
0.00861081
0.00864011
0.00858174
0.00841924
0.00813508
0.00771525
0.00714946
0.00642551
0.00552343
0.00441581
0.0030729
0.0014661
-0.000432684
-0.00265593
-0.00525219
-0.008283
-0.0118047
-0.0158715
0.000145828
0.000499452
0.00073228
0.000972223
0.00122164
0.00147469
0.00173101
0.00199075
0.00225375
0.00251982
0.00278878
0.00306043
0.00333454
0.00361093
0.00388943
0.0041699
0.00445215
0.00473593
0.00502089
0.00530661
0.0055927
0.00587895
0.00616545
0.00645247
0.00674025
0.00702838
0.00731506
0.00759608
0.0078643
0.00811052
0.00834176
0.00852849
0.00864739
0.00869312
0.00865554
0.00851838
0.0082646
0.00788116
0.00735903
0.00668702
0.00584613
0.00481052
0.00355219
0.00204393
0.000259536
-0.00183135
-0.0042765
-0.00713565
-0.0104632
-0.0143166
0.000160078
0.000512033
0.000743349
0.000981747
0.00122959
0.00148102
0.00173569
0.00199378
0.00225514
0.00251962
0.00278707
0.00305735
0.00333029
0.00360576
0.00388367
0.00416393
0.00444642
0.0047309
0.00501698
0.00530422
0.00559215
0.00588052
0.00616936
0.00645891
0.00674943
0.00704064
0.00733087
0.00761605
0.00788915
0.00814117
0.0083804
0.00857878
0.00871298
0.00877834
0.0087651
0.0086574
0.00843871
0.00809686
0.00762397
0.00700993
0.00623693
0.00528093
0.00411542
0.00271455
0.00105428
-0.000893861
-0.00317642
-0.00585048
-0.00896886
-0.0125906
0.000173368
0.000524057
0.00075434
0.000991681
0.00123845
0.00148877
0.00174232
0.00199927
0.00225952
0.00252293
0.0027894
0.00305881
0.00333106
0.00360609
0.00388385
0.00416435
0.0044475
0.00473309
0.00502073
0.00530994
0.00560022
0.00589129
0.00618311
0.00647594
0.00677009
0.00706541
0.00736045
0.00765129
0.00793104
0.00819092
0.00844069
0.0086536
0.00880597
0.00889389
0.00890824
0.00883381
0.00865459
0.00835921
0.00794071
0.00739007
0.00669112
0.00582174
0.00475679
0.00347176
0.00194489
0.000149155
-0.0019597
-0.00443527
-0.007329
-0.0107011
0.000185664
0.000535477
0.000765191
0.00100195
0.00124812
0.00149783
0.00175075
0.00200708
0.00226673
0.00252957
0.00279555
0.00306459
0.00333662
0.00361165
0.00388971
0.00417086
0.00445507
0.00474217
0.00503178
0.0053234
0.00561652
0.00591083
0.00620626
0.00650308
0.00680167
0.00710208
0.00740307
0.00770094
0.00798895
0.00825862
0.0085213
0.00875146
0.00892467
0.00903783
0.00908271
0.00904493
0.00890919
0.00866477
0.00830538
0.00782303
0.00720362
0.00642717
0.00546994
0.00430876
0.002924
0.00129002
-0.000634307
-0.00289833
-0.00555131
-0.0086553
0.000196853
0.000546116
0.000775743
0.00101241
0.00125847
0.00150805
0.00176084
0.00201704
0.00227657
0.00253934
0.00280531
0.00307443
0.0033467
0.00362216
0.00390093
0.00418313
0.00446879
0.00475778
0.00504975
0.00534419
0.00564062
0.00593868
0.00623832
0.00653979
0.00684359
0.00714997
0.00745797
0.00776408
0.00806183
0.00834304
0.00862084
0.00887075
0.00906727
0.00920817
0.00928619
0.00928804
0.00919934
0.00900995
0.0087139
0.00830415
0.00776905
0.00709092
0.00624768
0.00521786
0.0039834
0.00252008
0.00079056
-0.0012495
-0.00364583
-0.00646197
0.000206869
0.000555856
0.000785886
0.00102294
0.00126935
0.00151927
0.0017724
0.00202894
0.00228884
0.00255201
0.00281842
0.00308808
0.00336101
0.00363732
0.00391719
0.00420081
0.00448829
0.00477952
0.0050742
0.00537187
0.00567204
0.00597436
0.00627874
0.00658548
0.00689518
0.00720835
0.00752429
0.00783975
0.00814855
0.00844291
0.00873782
0.00900975
0.00923187
0.00940277
0.00951625
0.00956031
0.00952176
0.00939104
0.00916215
0.00882888
0.00838205
0.00780667
0.00708265
0.00619068
0.00511394
0.00382967
0.00230444
0.000499635
-0.00162599
-0.00413457
0.000215768
0.000564754
0.000795624
0.00103349
0.00128068
0.00153139
0.00178529
0.00204262
0.00230332
0.00256732
0.00283463
0.00310524
0.00337925
0.0036568
0.00393815
0.00422355
0.00451317
0.00480697
0.00510471
0.00540597
0.00571028
0.0060173
0.00632694
0.00663952
0.00695577
0.00727645
0.00760115
0.00792692
0.00824795
0.00855689
0.00887071
0.00916671
0.00941648
0.0096194
0.00977032
0.00985874
0.00987297
0.00980409
0.00964579
0.00939257
0.0090375
0.00856828
0.00796752
0.00721853
0.00630574
0.00520814
0.0038958
0.00233606
0.000492456
-0.00169136
0.000223667
0.000572953
0.000805014
0.00104407
0.00129241
0.00154428
0.00179936
0.00205788
0.0023198
0.00258505
0.00285364
0.00312562
0.00340108
0.00368025
0.00396342
0.00425094
0.00454302
0.0048397
0.00514081
0.00544598
0.00575481
0.00606696
0.00638232
0.00670124
0.00702462
0.00735346
0.00768763
0.00802453
0.0083588
0.0086836
0.00901793
0.00933984
0.00961912
0.00985582
0.0100458
0.0101803
0.0102493
0.0102448
0.0101601
0.00999024
0.00973
0.00936966
0.00889509
0.00829258
0.00754835
0.00664368
0.00555187
0.00424566
0.00269308
0.000847243
0.00023062
0.000580499
0.000814048
0.00105459
0.00130443
0.00155781
0.00181442
0.00207451
0.00233802
0.00260491
0.00287517
0.00314888
0.00342617
0.0037073
0.00399264
0.00428257
0.00457741
0.00487726
0.00518201
0.0054914
0.00580508
0.00612272
0.00644422
0.00676996
0.00710098
0.00743853
0.00778279
0.0081315
0.00847986
0.00882156
0.00917779
0.00952727
0.00983777
0.0101098
0.0103403
0.010522
0.0106472
0.0107087
0.0107
0.0106164
0.0104537
0.0102046
0.0098583
0.00940428
0.00883134
0.00812373
0.00725861
0.00621305
0.00495923
0.0034609
0.000236584
0.00058728
0.000822596
0.00106493
0.00131656
0.00157177
0.00183026
0.00209226
0.00235772
0.00262658
0.00289888
0.00317467
0.00345413
0.00373756
0.00402538
0.00431803
0.00461589
0.00491916
0.00522782
0.0055417
0.00586052
0.00618398
0.00651198
0.00684495
0.00718408
0.00753083
0.00788567
0.00824675
0.00860985
0.0089693
0.00934853
0.00972703
0.0100703
0.0103792
0.0106512
0.0108811
0.0110632
0.0111916
0.0112604
0.011265
0.0112022
0.0110663
0.0108501
0.0105455
0.0101448
0.00963589
0.0090011
0.00822132
0.00727272
0.00612868
0.000241465
0.000593102
0.000830469
0.00107489
0.00132859
0.00158594
0.0018466
0.00211083
0.00237857
0.00264975
0.00292441
0.00320263
0.0034846
0.00377064
0.00406123
0.00435688
0.00465802
0.00496494
0.00527773
0.00559634
0.00592054
0.00625009
0.0065849
0.00692546
0.00727309
0.00762945
0.00799529
0.00836919
0.00874755
0.00912532
0.00952838
0.00993704
0.0103144
0.0106614
0.0109761
0.0112549
0.0114942
0.0116896
0.0118363
0.0119304
0.0119688
0.0119478
0.0118627
0.0117082
0.0114795
0.0111686
0.0107645
0.0102524
0.00961284
0.00882711
0.000245211
0.000597822
0.000837505
0.00108427
0.00134032
0.00160006
0.00186319
0.00212994
0.00240025
0.00267407
0.00295142
0.00323237
0.00351715
0.00380611
0.00409976
0.00439866
0.00470332
0.0050141
0.00533123
0.00565475
0.00598455
0.00632042
0.00666228
0.00701072
0.00736717
0.00773348
0.00811068
0.00849775
0.00889174
0.00928823
0.00971561
0.0101552
0.0105677
0.0109539
0.0113123
0.0116407
0.0119371
0.0121992
0.0124233
0.0126066
0.0127466
0.0128412
0.0128879
0.0128835
0.0128261
0.012711
0.0125348
0.0122884
0.0119573
0.01153
0.000247847
0.000601419
0.000843632
0.00109297
0.00135158
0.00161395
0.00187978
0.00214931
0.00242247
0.00269921
0.00297952
0.00326351
0.00355139
0.00384354
0.00414051
0.00444291
0.0047513
0.00506615
0.00538779
0.0057164
0.00605196
0.00639431
0.00674343
0.00709996
0.00746548
0.00784199
0.00823079
0.00863133
0.00904124
0.00945667
0.0099086
0.0103796
0.0108278
0.0112541
0.011657
0.0120354
0.012389
0.0127169
0.0130174
0.0132887
0.0135292
0.0137385
0.0139163
0.0140617
0.0141741
0.0142523
0.0142993
0.014313
0.0142846
0.0142105
0.000249464
0.000603967
0.000848836
0.0011009
0.00136224
0.00162742
0.00189616
0.00216869
0.00244494
0.00272483
0.00300837
0.00329565
0.0035869
0.00388251
0.00418304
0.00448916
0.00480148
0.00512058
0.00544689
0.00578072
0.00612216
0.00647112
0.00682764
0.00719243
0.00756716
0.00795401
0.00835458
0.0087688
0.00919482
0.0096293
0.0101058
0.0106082
0.0110924
0.0115591
0.0120072
0.0124361
0.0128467
0.0132395
0.013615
0.0139724
0.014311
0.0146327
0.0149393
0.0152323
0.0155123
0.0157806
0.0160452
0.0163108
0.0165756
0.0168439
0.000250182
0.000605555
0.000852984
0.00110793
0.00137217
0.00164032
0.00191214
0.00218784
0.00246736
0.00275062
0.00303761
0.00332841
0.00362326
0.00392256
0.00422688
0.00453692
0.00485337
0.00517686
0.00550797
0.00584714
0.00619456
0.00655022
0.00691424
0.00728737
0.00767139
0.00806864
0.00848103
0.00890901
0.00935124
0.0098048
0.0103058
0.0108393
0.0113592
0.0118664
0.0123598
0.0128394
0.0133067
0.0137637
0.0142125
0.0146536
0.0150876
0.015518
0.015949
0.0163853
0.0168288
0.0172828
0.0177586
0.0182668
0.0188125
0.019408
0.000251249
0.000607193
0.000853807
0.00111316
0.00138099
0.00165241
0.00192751
0.00220656
0.00248951
0.00277628
0.00306688
0.00336139
0.00366004
0.00396323
0.00427155
0.00458572
0.00490645
0.00523448
0.0055705
0.00591508
0.00626854
0.00663097
0.00700253
0.00738405
0.00777738
0.00818498
0.00860913
0.00905082
0.00950924
0.00998181
0.0105071
0.0110713
0.0116264
0.0121735
0.012712
0.0132421
0.0137656
0.0142858
0.0148063
0.0153288
0.0158551
0.0163897
0.0169395
0.0175127
0.0181131
0.0187459
0.0194249
0.0201652
0.020978
0.0218821
0.000249204
0.000606572
0.00086004
0.00112076
0.00139055
0.0016646
0.00194266
0.00222489
0.00251123
0.00280156
0.00309587
0.00339421
0.00369681
0.00400407
0.00431657
0.00463503
0.0049602
0.0052929
0.00563392
0.00598397
0.0063435
0.00671271
0.00709182
0.00748174
0.00788432
0.00830219
0.00873794
0.00919316
0.00966759
0.010159
0.0107083
0.0113026
0.011892
0.0124782
0.0130609
0.0136407
0.0142196
0.0148018
0.0153923
0.0159938
0.0166093
0.0172439
0.0179065
0.0186086
0.0193569
0.0201591
0.0210307
0.0219903
0.0230543
0.0242463
0.00024777
0.000606002
0.000862168
0.00112563
0.0013984
0.00167551
0.00195671
0.00224225
0.00253205
0.00282602
0.00312413
0.00342643
0.00373312
0.00404459
0.00436142
0.00468432
0.00501408
0.00535157
0.00569767
0.00605324
0.00641885
0.00679481
0.00718145
0.0075797
0.00799145
0.00841941
0.00886653
0.00933497
0.00982509
0.0103351
0.0109079
0.0115316
0.0121543
0.0127784
0.0134042
0.0140325
0.0146653
0.0153078
0.015966
0.016644
0.0173457
0.0180763
0.0188461
0.0196689
0.0205548
0.0215146
0.0225655
0.023729
0.0250256
0.0264825
0.000245503
0.000604404
0.000863198
0.00112941
0.00140502
0.00168511
0.00196946
0.00225831
0.00255162
0.00284929
0.00315127
0.00345761
0.00376849
0.0040843
0.00440559
0.00473307
0.00506755
0.00540993
0.0057612
0.00612231
0.00649398
0.00687666
0.00727075
0.00767723
0.008098
0.00853584
0.00899402
0.00947526
0.00998061
0.0105087
0.0111046
0.0117569
0.0124117
0.0130722
0.0137396
0.0144147
0.0150997
0.0158001
0.0165232
0.0172745
0.0180589
0.0188816
0.0197535
0.0206896
0.0217029
0.0228073
0.0240223
0.0253717
0.0268797
0.0285762
0.00024253
0.000601939
0.000863311
0.00113216
0.00141046
0.00169341
0.00198081
0.00227293
0.0025697
0.00287105
0.00317692
0.00348734
0.00380249
0.00412272
0.00444858
0.00478075
0.00512005
0.00546742
0.00582392
0.00619059
0.0065683
0.00695762
0.00735908
0.00777365
0.00820324
0.00865071
0.00911957
0.00961311
0.0101331
0.0106786
0.0112969
0.0119769
0.0126626
0.0133579
0.0140651
0.014785
0.01552
0.0162757
0.0170602
0.0178807
0.0187435
0.0196539
0.0206228
0.0216653
0.0227967
0.0240332
0.0253965
0.0269127
0.028609
0.0305178
0.000238914
0.000598604
0.000862394
0.00113373
0.00141458
0.00170027
0.00199061
0.00228588
0.00258604
0.00289101
0.00320074
0.00351525
0.00383468
0.00415939
0.00448988
0.00482683
0.00517103
0.00552346
0.00588523
0.00625748
0.0066412
0.0070371
0.0074458
0.00786831
0.0083065
0.00876327
0.00924239
0.00974764
0.0102815
0.0108438
0.0114836
0.0121903
0.0129054
0.013634
0.0143788
0.0151414
0.015924
0.0167321
0.0175741
0.018459
0.0193946
0.0203872
0.0214473
0.0225896
0.0238304
0.0251875
0.026684
0.0283482
0.0302092
0.032302
0.00023469
0.000594399
0.000860418
0.00113407
0.00141729
0.00170555
0.00199867
0.00229696
0.00260039
0.00290889
0.00322241
0.00354096
0.00386467
0.00419386
0.00452902
0.00487079
0.00521996
0.0055775
0.00594457
0.00632239
0.00671207
0.00711445
0.00753028
0.00796056
0.0084071
0.00887284
0.00936175
0.00987805
0.010425
0.0110031
0.0116635
0.0123956
0.0131388
0.0138988
0.0146792
0.015482
0.0163096
0.0171671
0.0180628
0.019007
0.0200091
0.0210769
0.022221
0.0234556
0.024797
0.0262638
0.0278797
0.0296738
0.0316772
0.033926
0.000229897
0.000589331
0.000857369
0.00113312
0.00141853
0.00170915
0.00200488
0.00230601
0.00261255
0.00292444
0.00324163
0.00356412
0.00389205
0.00422569
0.00456552
0.00491213
0.00526629
0.00562897
0.00600135
0.00638471
0.00678028
0.00718906
0.00761187
0.00804974
0.0085044
0.00897877
0.00947696
0.0100036
0.0105626
0.0111555
0.0118353
0.0125915
0.0133613
0.0141508
0.0149644
0.015805
0.0166749
0.0175789
0.0185246
0.019523
0.020585
0.0217202
0.0229398
0.0242577
0.0256901
0.0272554
0.0289771
0.0308843
0.0330088
0.035387
0.000224574
0.000583409
0.000853235
0.00113087
0.00141822
0.00171099
0.0020091
0.00231287
0.00262232
0.00293742
0.00325812
0.00358444
0.00391647
0.0042545
0.00459894
0.00495037
0.00530952
0.00567733
0.006055
0.00644387
0.00684525
0.00726028
0.00768992
0.00813519
0.00859775
0.00908042
0.00958739
0.0101236
0.0106938
0.0113003
0.011998
0.0127768
0.0135716
0.0143886
0.015233
0.0161085
0.0170179
0.0179653
0.0189577
0.020006
0.0211217
0.0223161
0.0236018
0.0249927
0.026505
0.0281566
0.0299703
0.0319742
0.0341998
0.0366824
0.000218764
0.000576648
0.000848015
0.00112728
0.00141633
0.001711
0.00201125
0.00231742
0.00262956
0.00294765
0.00327167
0.00360162
0.00393761
0.00427989
0.00462885
0.00498503
0.00534913
0.00572205
0.00610497
0.00649927
0.00690635
0.00732749
0.00776378
0.00821626
0.0086865
0.00917719
0.00969248
0.0102376
0.0108179
0.0114366
0.0121508
0.0129505
0.0137685
0.0146109
0.0154834
0.0163908
0.0173364
0.0183242
0.0193601
0.0204541
0.0216181
0.0228646
0.024207
0.0256601
0.0272401
0.0289649
0.0308558
0.0329398
0.035247
0.037811
0.000212517
0.000569082
0.000841725
0.00112235
0.00141283
0.00170914
0.00201126
0.00231956
0.00263412
0.00295496
0.00328206
0.00361544
0.00395519
0.00430154
0.00465487
0.00501569
0.00538465
0.0057626
0.00615071
0.00655036
0.00696302
0.0073901
0.00783281
0.00829228
0.00876998
0.00926842
0.00979163
0.010345
0.0109344
0.011564
0.012293
0.0131117
0.013951
0.0148167
0.0157147
0.0166507
0.0176289
0.0186533
0.0197292
0.0208653
0.0220731
0.0233653
0.0247561
0.0262611
0.0278967
0.0296808
0.0316339
0.0337811
0.0361507
0.0387743
0.000205894
0.000560765
0.000834405
0.00111612
0.00140774
0.00170539
0.00200909
0.00231924
0.00263594
0.00295923
0.00328914
0.00362569
0.00396897
0.00431917
0.00467667
0.00504195
0.00541562
0.00579851
0.00619171
0.00659659
0.00701469
0.0074475
0.00789639
0.00836257
0.00884749
0.00935344
0.00988424
0.0104453
0.0110429
0.0116821
0.012424
0.0132597
0.0141184
0.0150051
0.015926
0.0168872
0.0178941
0.0189509
0.0200628
0.0212373
0.0224846
0.0238172
0.0252495
0.0267971
0.0284771
0.0303073
0.0323076
0.0345014
0.036915
0.0395775
0.000198967
0.000551777
0.000826121
0.00110863
0.00140109
0.00169978
0.00200475
0.00231642
0.00263494
0.00296038
0.00329279
0.00363222
0.00397874
0.00433254
0.00469396
0.00506346
0.00544166
0.00582931
0.00622747
0.00663745
0.00706082
0.00749916
0.00795395
0.00842653
0.00891837
0.00943157
0.00996964
0.0105379
0.0111428
0.0117904
0.0125435
0.0133941
0.01427
0.0151757
0.0161168
0.0170999
0.0181314
0.0192162
0.0203595
0.0215678
0.0228503
0.0242186
0.0256863
0.0272689
0.0289836
0.030848
0.0328817
0.0351064
0.0375465
0.0402285
0.000191814
0.000542212
0.000816956
0.00109994
0.00139292
0.00169233
0.00199824
0.00231111
0.0026311
0.00295834
0.00329292
0.0036349
0.00398435
0.00434144
0.00470649
0.00507994
0.00546239
0.00585459
0.00625752
0.00667243
0.00710089
0.00754453
0.00800494
0.00848358
0.00898198
0.00950211
0.0100472
0.0106222
0.0112338
0.0118886
0.0126511
0.0135145
0.0144055
0.0153279
0.0162867
0.0172887
0.0183407
0.0194488
0.0206182
0.0218553
0.0231682
0.0245672
0.0260648
0.027676
0.0294171
0.0313056
0.0333604
0.0356021
0.0380528
0.0407369
0.000184513
0.00053217
0.000806995
0.00109013
0.00138331
0.00168309
0.00198961
0.00230331
0.00262442
0.0029531
0.00328948
0.00363364
0.00398567
0.00434571
0.00471405
0.00509113
0.00547753
0.00587399
0.00628143
0.00670106
0.00713439
0.0075831
0.00804884
0.00853318
0.00903776
0.00956446
0.0101162
0.0106976
0.0113153
0.0119762
0.0127465
0.0136206
0.0145243
0.0154611
0.0164354
0.0174534
0.0185224
0.019649
0.0208393
0.0220995
0.0234371
0.0248612
0.0263833
0.0280169
0.0297773
0.0316813
0.0337469
0.0359933
0.0384411
0.0411116
0.000177134
0.000521745
0.000796328
0.00107929
0.00137231
0.00167213
0.0019789
0.00229308
0.00261494
0.00294466
0.00328243
0.00362838
0.0039826
0.00434523
0.00471651
0.00509685
0.00548684
0.00588721
0.00629885
0.00672291
0.00716086
0.00761438
0.00808514
0.00857483
0.00908518
0.00961804
0.010176
0.0107635
0.0113868
0.012053
0.0128296
0.0137121
0.0146263
0.0155752
0.0165625
0.0175939
0.0186765
0.0198176
0.0210235
0.022301
0.0236571
0.0251003
0.0266407
0.0282904
0.0300635
0.0319753
0.0340427
0.0362837
0.0387167
0.0413604
0.000169738
0.000511025
0.000785038
0.00106748
0.00136001
0.00165951
0.00196616
0.00228046
0.00260267
0.00293305
0.0032718
0.00361911
0.0039751
0.00433991
0.00471373
0.00509694
0.00549013
0.00589402
0.00630948
0.00673763
0.00717986
0.00763787
0.00811334
0.00860802
0.00912372
0.00966233
0.0102262
0.0108194
0.0114477
0.0121185
0.0129001
0.0137891
0.0147113
0.0156697
0.0166677
0.0177101
0.0188035
0.0199552
0.0211721
0.0224612
0.0238297
0.0252853
0.0268374
0.0284967
0.0302756
0.0321881
0.0342494
0.0364758
0.0388841
0.04149
0.000162371
0.000500074
0.000773193
0.00105478
0.00134647
0.00164529
0.00195145
0.00226549
0.00258768
0.0029183
0.00325761
0.00360583
0.00396314
0.00432968
0.00470563
0.00509131
0.00548727
0.00589425
0.00631311
0.00674492
0.00719104
0.00765315
0.00813296
0.00863224
0.00915288
0.00969678
0.0102662
0.0108647
0.0114978
0.0121724
0.0129579
0.0138515
0.0147794
0.0157449
0.0167509
0.0178018
0.0189033
0.0200625
0.0212864
0.0225822
0.023957
0.0254186
0.0269756
0.0286374
0.0304151
0.0323211
0.0343687
0.0365725
0.0389473
0.0415063
0.000155064
0.000488937
0.000760845
0.00104125
0.00133174
0.00162952
0.00193484
0.00224823
0.00257002
0.00290048
0.00323991
0.00358859
0.00394674
0.00431454
0.00469215
0.00507987
0.00547818
0.0058878
0.0063096
0.0067446
0.00719416
0.00765991
0.00814359
0.00864702
0.00917212
0.00972084
0.0102953
0.0108987
0.0115362
0.0122144
0.0130028
0.0138995
0.0148309
0.0158008
0.0168123
0.017869
0.0189761
0.02014
0.0213675
0.0226656
0.0240417
0.0255033
0.0270584
0.0287159
0.0304853
0.0323775
0.0344042
0.0365779
0.0389114
0.0414157
0.000147854
0.000477665
0.00074805
0.00102694
0.0013159
0.00161228
0.00191638
0.00222875
0.00254974
0.00287963
0.00321876
0.00356743
0.00392594
0.00429449
0.00467329
0.00506256
0.00546277
0.00587458
0.00629884
0.00673656
0.00718904
0.00765791
0.00814495
0.00865199
0.00918102
0.009734
0.010313
0.010921
0.0115626
0.0122439
0.0130346
0.013933
0.014866
0.015838
0.0168521
0.0179119
0.019022
0.0201879
0.021416
0.022713
0.024086
0.0255423
0.0270898
0.0287364
0.0304908
0.0323624
0.0343612
0.0364977
0.0387829
0.0412258
0.000140769
0.000466306
0.000734856
0.00101191
0.001299
0.00159363
0.00189614
0.00220711
0.00252691
0.00285584
0.00319424
0.00354245
0.00390081
0.00426961
0.00464905
0.00503939
0.005441
0.00585452
0.00628076
0.0067207
0.00717559
0.00764704
0.00813685
0.0086469
0.00917923
0.00973587
0.0103189
0.0109309
0.0115761
0.0122602
0.0130529
0.0139519
0.0148849
0.0158567
0.0168709
0.017931
0.0190412
0.0202064
0.0214323
0.0227252
0.0240915
0.0255384
0.0270732
0.0287034
0.0304367
0.0322814
0.0342459
0.036339
0.0385697
0.0409456
0.000133799
0.000454839
0.000721263
0.000996175
0.00128108
0.00157363
0.0018742
0.00218339
0.0025016
0.00282916
0.00316642
0.00351373
0.00387147
0.00423998
0.00461954
0.00501038
0.00541287
0.00582759
0.0062553
0.00669695
0.00715373
0.00762721
0.00811918
0.00863161
0.00916656
0.00972614
0.0103124
0.0109279
0.0115764
0.012263
0.0130571
0.0139561
0.0148877
0.0158574
0.0168692
0.0179268
0.0190342
0.0201959
0.0214169
0.0227028
0.0240595
0.0254936
0.0270116
0.0286209
0.030328
0.0321404
0.0340652
0.0361096
0.0382806
0.0405847
0.000126906
0.000443207
0.000707244
0.000979745
0.00126218
0.00155233
0.00185061
0.00215765
0.00247389
0.00279967
0.00313538
0.00348136
0.00383802
0.00420574
0.00458486
0.00497564
0.00537845
0.00579381
0.00622244
0.00666526
0.0071234
0.00759834
0.00809188
0.00860602
0.00914288
0.00970464
0.0102934
0.0109117
0.0115628
0.0122515
0.0130467
0.0139451
0.0148745
0.0158406
0.0168479
0.0179003
0.019002
0.0201573
0.0213705
0.0226466
0.0239909
0.0254091
0.0269072
0.0284916
0.0301689
0.0319448
0.0338255
0.0358167
0.0379241
0.0401526
0.000120098
0.000431408
0.000692814
0.000962649
0.00124234
0.0015298
0.00182547
0.00213
0.00244386
0.00276747
0.0031012
0.00344544
0.00380057
0.00416702
0.00454516
0.00493533
0.00533786
0.00575327
0.00618225
0.00662566
0.00708458
0.0075604
0.00805489
0.00857007
0.00910811
0.00967126
0.0102617
0.0108819
0.011535
0.0122252
0.0130212
0.0139186
0.0148451
0.0158064
0.0168074
0.0178525
0.0189458
0.0200916
0.0212941
0.0225576
0.0238867
0.0252863
0.0267617
0.0283186
0.0299626
0.0316987
0.0335319
0.0354669
0.0375077
0.0396579
0.000113429
0.000419531
0.000678051
0.00094496
0.00122165
0.00150613
0.00179887
0.00210054
0.00241166
0.00273267
0.00306401
0.00340605
0.00375922
0.00412392
0.00450059
0.00488958
0.00529127
0.00570614
0.00613486
0.00657824
0.00703731
0.0075134
0.00800821
0.00852375
0.00906222
0.00962594
0.0102172
0.0108385
0.0114927
0.0121839
0.0129801
0.0138761
0.0147991