/*--------------------------------*- C++ -*----------------------------------*\
  =========                 |
  \\      /  F ield         | OpenFOAM: The Open Source CFD Toolbox
   \\    /   O peration     | Website:  https://openfoam.org
    \\  /    A nd           | Version:  9
     \\/     M anipulation  |
\*---------------------------------------------------------------------------*/
FoamFile
{
    format      ascii;
    class       volScalarField;
    location    "0.01";
    object      rAU;
}
// * * * * * * * * * * * * * * * * * * * * * * * * * * * * * * * * * * * * * //

dimensions      [-1 3 1 0 0 0 0];

internalField   nonuniform List<scalar> 
5000
(
2.257e-05
2.96392e-05
3.0266e-05
3.08609e-05
3.14241e-05
3.19559e-05
3.24568e-05
3.29275e-05
3.3369e-05
3.37822e-05
3.41682e-05
3.45282e-05
3.48635e-05
3.51752e-05
3.54646e-05
3.57331e-05
3.59817e-05
3.62116e-05
3.64242e-05
3.66204e-05
3.68013e-05
3.6968e-05
3.71215e-05
3.72625e-05
3.7392e-05
3.75107e-05
3.76194e-05
3.77188e-05
3.78094e-05
3.7919e-05
3.81596e-05
3.81756e-05
3.81672e-05
3.81585e-05
3.81494e-05
3.81399e-05
3.81299e-05
3.81192e-05
3.81079e-05
3.80959e-05
3.80829e-05
3.80689e-05
3.80537e-05
3.80372e-05
3.8019e-05
3.7999e-05
3.79767e-05
3.79516e-05
3.79028e-05
3.7815e-05
2.25583e-05
2.96276e-05
3.02543e-05
3.08493e-05
3.14125e-05
3.19444e-05
3.24454e-05
3.29162e-05
3.33578e-05
3.37711e-05
3.41572e-05
3.45173e-05
3.48527e-05
3.51645e-05
3.5454e-05
3.57225e-05
3.59712e-05
3.62012e-05
3.64137e-05
3.661e-05
3.67909e-05
3.69575e-05
3.71108e-05
3.72517e-05
3.73811e-05
3.74996e-05
3.76081e-05
3.77071e-05
3.77974e-05
3.79065e-05
3.81476e-05
3.81626e-05
3.81531e-05
3.81433e-05
3.81329e-05
3.8122e-05
3.81104e-05
3.80981e-05
3.80849e-05
3.80707e-05
3.80554e-05
3.80389e-05
3.80208e-05
3.8001e-05
3.79793e-05
3.79552e-05
3.79284e-05
3.78982e-05
3.78642e-05
3.78043e-05
2.25462e-05
2.96155e-05
3.02423e-05
3.08373e-05
3.14006e-05
3.19325e-05
3.24336e-05
3.29046e-05
3.33462e-05
3.37597e-05
3.41459e-05
3.45062e-05
3.48416e-05
3.51536e-05
3.54432e-05
3.57117e-05
3.59605e-05
3.61905e-05
3.64031e-05
3.65994e-05
3.67803e-05
3.69469e-05
3.71001e-05
3.72409e-05
3.73701e-05
3.74885e-05
3.75967e-05
3.76955e-05
3.77854e-05
3.78942e-05
3.81356e-05
3.81497e-05
3.81393e-05
3.81283e-05
3.81167e-05
3.81044e-05
3.80913e-05
3.80773e-05
3.80623e-05
3.80461e-05
3.80286e-05
3.80095e-05
3.79887e-05
3.79659e-05
3.79407e-05
3.79128e-05
3.78817e-05
3.78469e-05
3.78076e-05
3.7763e-05
2.25338e-05
2.96031e-05
3.02299e-05
3.0825e-05
3.13883e-05
3.19204e-05
3.24216e-05
3.28926e-05
3.33344e-05
3.3748e-05
3.41344e-05
3.44947e-05
3.48303e-05
3.51424e-05
3.54321e-05
3.57008e-05
3.59496e-05
3.61797e-05
3.63924e-05
3.65886e-05
3.67696e-05
3.69361e-05
3.70893e-05
3.72301e-05
3.73591e-05
3.74774e-05
3.75854e-05
3.76839e-05
3.77736e-05
3.78819e-05
3.81239e-05
3.81371e-05
3.81256e-05
3.81135e-05
3.81007e-05
3.80871e-05
3.80726e-05
3.80571e-05
3.80403e-05
3.80222e-05
3.80025e-05
3.79811e-05
3.79576e-05
3.79318e-05
3.79034e-05
3.78719e-05
3.78369e-05
3.77977e-05
3.77537e-05
3.77039e-05
2.2521e-05
2.95905e-05
3.02172e-05
3.08123e-05
3.13758e-05
3.19079e-05
3.24092e-05
3.28804e-05
3.33223e-05
3.3736e-05
3.41226e-05
3.44831e-05
3.48188e-05
3.5131e-05
3.54209e-05
3.56897e-05
3.59386e-05
3.61688e-05
3.63815e-05
3.65778e-05
3.67588e-05
3.69254e-05
3.70785e-05
3.72192e-05
3.73482e-05
3.74662e-05
3.75741e-05
3.76724e-05
3.77618e-05
3.78698e-05
3.81124e-05
3.81247e-05
3.81123e-05
3.80991e-05
3.80852e-05
3.80704e-05
3.80545e-05
3.80374e-05
3.80189e-05
3.7999e-05
3.79772e-05
3.79535e-05
3.79276e-05
3.78991e-05
3.78676e-05
3.78328e-05
3.7794e-05
3.77509e-05
3.77025e-05
3.76482e-05
2.2508e-05
2.95775e-05
3.02043e-05
3.07994e-05
3.1363e-05
3.18952e-05
3.23966e-05
3.28679e-05
3.331e-05
3.37239e-05
3.41106e-05
3.44712e-05
3.48071e-05
3.51195e-05
3.54095e-05
3.56784e-05
3.59274e-05
3.61578e-05
3.63706e-05
3.65669e-05
3.67479e-05
3.69145e-05
3.70677e-05
3.72083e-05
3.73372e-05
3.74552e-05
3.75629e-05
3.76611e-05
3.77502e-05
3.78579e-05
3.81011e-05
3.81126e-05
3.80992e-05
3.80851e-05
3.80701e-05
3.80541e-05
3.80368e-05
3.80183e-05
3.79983e-05
3.79766e-05
3.79529e-05
3.79271e-05
3.78988e-05
3.78677e-05
3.78334e-05
3.77955e-05
3.77534e-05
3.77065e-05
3.76542e-05
3.75958e-05
2.24947e-05
2.95643e-05
3.01911e-05
3.07863e-05
3.13499e-05
3.18823e-05
3.23838e-05
3.28553e-05
3.32975e-05
3.37115e-05
3.40984e-05
3.44592e-05
3.47953e-05
3.51078e-05
3.5398e-05
3.5667e-05
3.59162e-05
3.61467e-05
3.63596e-05
3.6556e-05
3.67371e-05
3.69037e-05
3.70569e-05
3.71975e-05
3.73264e-05
3.74442e-05
3.75518e-05
3.76498e-05
3.77387e-05
3.78461e-05
3.80901e-05
3.81008e-05
3.80866e-05
3.80715e-05
3.80555e-05
3.80383e-05
3.80198e-05
3.8e-05
3.79784e-05
3.79551e-05
3.79296e-05
3.79018e-05
3.78713e-05
3.78379e-05
3.78009e-05
3.77602e-05
3.7715e-05
3.76648e-05
3.7609e-05
3.75468e-05
2.24811e-05
2.95509e-05
3.01777e-05
3.0773e-05
3.13367e-05
3.18691e-05
3.23708e-05
3.28424e-05
3.32848e-05
3.3699e-05
3.4086e-05
3.44471e-05
3.47833e-05
3.5096e-05
3.53863e-05
3.56556e-05
3.59049e-05
3.61355e-05
3.63485e-05
3.65451e-05
3.67262e-05
3.68929e-05
3.70461e-05
3.71867e-05
3.73156e-05
3.74334e-05
3.75409e-05
3.76387e-05
3.77275e-05
3.78347e-05
3.80794e-05
3.80893e-05
3.80743e-05
3.80584e-05
3.80414e-05
3.80231e-05
3.80035e-05
3.79824e-05
3.79594e-05
3.79345e-05
3.79074e-05
3.78778e-05
3.78453e-05
3.78096e-05
3.77703e-05
3.77269e-05
3.76789e-05
3.76258e-05
3.75668e-05
3.75013e-05
2.24674e-05
2.95373e-05
3.01641e-05
3.07595e-05
3.13233e-05
3.18558e-05
3.23576e-05
3.28294e-05
3.3272e-05
3.36864e-05
3.40736e-05
3.44348e-05
3.47713e-05
3.50841e-05
3.53746e-05
3.5644e-05
3.58935e-05
3.61243e-05
3.63374e-05
3.65341e-05
3.67153e-05
3.68821e-05
3.70354e-05
3.7176e-05
3.73049e-05
3.74227e-05
3.75301e-05
3.76279e-05
3.77165e-05
3.78234e-05
3.80691e-05
3.80783e-05
3.80625e-05
3.80457e-05
3.80278e-05
3.80086e-05
3.79879e-05
3.79656e-05
3.79414e-05
3.79151e-05
3.78864e-05
3.78551e-05
3.78208e-05
3.77831e-05
3.77416e-05
3.76959e-05
3.76454e-05
3.75895e-05
3.75276e-05
3.74591e-05
2.24535e-05
2.95235e-05
3.01504e-05
3.07458e-05
3.13097e-05
3.18424e-05
3.23444e-05
3.28163e-05
3.32591e-05
3.36736e-05
3.4061e-05
3.44225e-05
3.47591e-05
3.50722e-05
3.53629e-05
3.56325e-05
3.58821e-05
3.61131e-05
3.63264e-05
3.65232e-05
3.67045e-05
3.68714e-05
3.70248e-05
3.71654e-05
3.72943e-05
3.74121e-05
3.75195e-05
3.76172e-05
3.77057e-05
3.78125e-05
3.80591e-05
3.80676e-05
3.80512e-05
3.80336e-05
3.80149e-05
3.79947e-05
3.79731e-05
3.79496e-05
3.79243e-05
3.78967e-05
3.78666e-05
3.78338e-05
3.77978e-05
3.77583e-05
3.77149e-05
3.76671e-05
3.76143e-05
3.7556e-05
3.74917e-05
3.74205e-05
2.24395e-05
2.95096e-05
3.01365e-05
3.0732e-05
3.1296e-05
3.18288e-05
3.2331e-05
3.28031e-05
3.3246e-05
3.36608e-05
3.40484e-05
3.44101e-05
3.47469e-05
3.50602e-05
3.53511e-05
3.56209e-05
3.58708e-05
3.61019e-05
3.63154e-05
3.65123e-05
3.66938e-05
3.68608e-05
3.70142e-05
3.7155e-05
3.72839e-05
3.74017e-05
3.75092e-05
3.76068e-05
3.76952e-05
3.78019e-05
3.80495e-05
3.80574e-05
3.80403e-05
3.80221e-05
3.80026e-05
3.79816e-05
3.7959e-05
3.79346e-05
3.79082e-05
3.78794e-05
3.78481e-05
3.78139e-05
3.77765e-05
3.77354e-05
3.76903e-05
3.76406e-05
3.75859e-05
3.75255e-05
3.74589e-05
3.73853e-05
2.24254e-05
2.94955e-05
3.01226e-05
3.07181e-05
3.12822e-05
3.18152e-05
3.23175e-05
3.27898e-05
3.32329e-05
3.36479e-05
3.40357e-05
3.43976e-05
3.47347e-05
3.50482e-05
3.53394e-05
3.56094e-05
3.58594e-05
3.60907e-05
3.63044e-05
3.65015e-05
3.66832e-05
3.68503e-05
3.70039e-05
3.71447e-05
3.72737e-05
3.73916e-05
3.7499e-05
3.75967e-05
3.76851e-05
3.77917e-05
3.80403e-05
3.80477e-05
3.803e-05
3.80111e-05
3.79909e-05
3.79692e-05
3.79458e-05
3.79206e-05
3.78932e-05
3.78634e-05
3.7831e-05
3.77956e-05
3.77568e-05
3.77144e-05
3.76677e-05
3.76165e-05
3.756e-05
3.74979e-05
3.74293e-05
3.73538e-05
2.24111e-05
2.94814e-05
3.01085e-05
3.07041e-05
3.12684e-05
3.18015e-05
3.2304e-05
3.27764e-05
3.32198e-05
3.3635e-05
3.40231e-05
3.43852e-05
3.47225e-05
3.50362e-05
3.53276e-05
3.55978e-05
3.58481e-05
3.60796e-05
3.62935e-05
3.64908e-05
3.66726e-05
3.68399e-05
3.69936e-05
3.71346e-05
3.72637e-05
3.73817e-05
3.74892e-05
3.75868e-05
3.76752e-05
3.77818e-05
3.80315e-05
3.80384e-05
3.80202e-05
3.80008e-05
3.798e-05
3.79576e-05
3.79335e-05
3.79075e-05
3.78792e-05
3.78486e-05
3.78152e-05
3.77788e-05
3.77389e-05
3.76953e-05
3.76474e-05
3.75948e-05
3.75369e-05
3.74732e-05
3.74031e-05
3.73258e-05
2.23968e-05
2.94673e-05
3.00944e-05
3.06901e-05
3.12545e-05
3.17878e-05
3.22904e-05
3.27631e-05
3.32066e-05
3.36221e-05
3.40104e-05
3.43727e-05
3.47103e-05
3.50243e-05
3.53159e-05
3.55864e-05
3.58369e-05
3.60687e-05
3.62827e-05
3.64803e-05
3.66623e-05
3.68297e-05
3.69836e-05
3.71247e-05
3.7254e-05
3.7372e-05
3.74796e-05
3.75773e-05
3.76657e-05
3.77723e-05
3.80232e-05
3.80296e-05
3.8011e-05
3.79911e-05
3.79697e-05
3.79468e-05
3.79221e-05
3.78954e-05
3.78664e-05
3.7835e-05
3.78008e-05
3.77635e-05
3.77228e-05
3.76782e-05
3.76292e-05
3.75755e-05
3.75165e-05
3.74516e-05
3.73802e-05
3.73015e-05
2.23825e-05
2.94531e-05
3.00803e-05
3.06761e-05
3.12406e-05
3.1774e-05
3.22768e-05
3.27497e-05
3.31935e-05
3.36092e-05
3.39977e-05
3.43603e-05
3.46982e-05
3.50124e-05
3.53043e-05
3.5575e-05
3.58258e-05
3.60578e-05
3.62721e-05
3.64698e-05
3.66521e-05
3.68197e-05
3.69738e-05
3.71151e-05
3.72444e-05
3.73626e-05
3.74703e-05
3.75681e-05
3.76566e-05
3.77632e-05
3.80153e-05
3.80214e-05
3.80023e-05
3.7982e-05
3.79602e-05
3.79368e-05
3.79115e-05
3.78843e-05
3.78548e-05
3.78227e-05
3.77879e-05
3.77499e-05
3.77084e-05
3.7663e-05
3.76133e-05
3.75588e-05
3.74989e-05
3.74331e-05
3.73606e-05
3.7281e-05
2.23682e-05
2.94389e-05
3.00662e-05
3.06621e-05
3.12267e-05
3.17603e-05
3.22633e-05
3.27364e-05
3.31804e-05
3.35963e-05
3.39851e-05
3.4348e-05
3.46861e-05
3.50006e-05
3.52928e-05
3.55638e-05
3.58148e-05
3.6047e-05
3.62616e-05
3.64596e-05
3.6642e-05
3.68099e-05
3.69641e-05
3.71056e-05
3.72352e-05
3.73535e-05
3.74613e-05
3.75593e-05
3.76479e-05
3.77546e-05
3.80079e-05
3.80137e-05
3.79943e-05
3.79736e-05
3.79514e-05
3.79276e-05
3.79019e-05
3.78742e-05
3.78443e-05
3.78117e-05
3.77764e-05
3.77379e-05
3.76958e-05
3.76499e-05
3.75996e-05
3.75445e-05
3.7484e-05
3.74176e-05
3.73445e-05
3.72642e-05
2.2354e-05
2.94248e-05
3.00521e-05
3.06481e-05
3.12129e-05
3.17467e-05
3.22499e-05
3.27232e-05
3.31674e-05
3.35836e-05
3.39726e-05
3.43358e-05
3.46741e-05
3.49889e-05
3.52814e-05
3.55526e-05
3.58039e-05
3.60364e-05
3.62513e-05
3.64495e-05
3.66322e-05
3.68003e-05
3.69548e-05
3.70965e-05
3.72262e-05
3.73447e-05
3.74527e-05
3.75508e-05
3.76396e-05
3.77464e-05
3.8001e-05
3.80065e-05
3.79869e-05
3.79659e-05
3.79434e-05
3.79193e-05
3.78933e-05
3.78652e-05
3.78349e-05
3.7802e-05
3.77663e-05
3.77275e-05
3.76851e-05
3.76388e-05
3.75882e-05
3.75328e-05
3.7472e-05
3.74052e-05
3.73319e-05
3.72512e-05
2.23398e-05
2.94107e-05
3.00381e-05
3.06342e-05
3.11992e-05
3.17331e-05
3.22365e-05
3.271e-05
3.31545e-05
3.35709e-05
3.39602e-05
3.43236e-05
3.46623e-05
3.49774e-05
3.52701e-05
3.55416e-05
3.57932e-05
3.6026e-05
3.62411e-05
3.64396e-05
3.66226e-05
3.67909e-05
3.69456e-05
3.70875e-05
3.72175e-05
3.73362e-05
3.74444e-05
3.75427e-05
3.76317e-05
3.77386e-05
3.79946e-05
3.79999e-05
3.798e-05
3.79588e-05
3.79361e-05
3.79118e-05
3.78856e-05
3.78573e-05
3.78268e-05
3.77937e-05
3.77577e-05
3.77187e-05
3.76761e-05
3.76297e-05
3.7579e-05
3.75235e-05
3.74627e-05
3.73959e-05
3.73226e-05
3.7242e-05
2.23256e-05
2.93967e-05
3.00242e-05
3.06204e-05
3.11855e-05
3.17196e-05
3.22232e-05
3.26969e-05
3.31417e-05
3.35583e-05
3.39479e-05
3.43116e-05
3.46506e-05
3.4966e-05
3.5259e-05
3.55308e-05
3.57827e-05
3.60158e-05
3.62312e-05
3.643e-05
3.66132e-05
3.67818e-05
3.69368e-05
3.70789e-05
3.72091e-05
3.73281e-05
3.74365e-05
3.7535e-05
3.76242e-05
3.77313e-05
3.79887e-05
3.79938e-05
3.79738e-05
3.79525e-05
3.79296e-05
3.79051e-05
3.78788e-05
3.78504e-05
3.78198e-05
3.77866e-05
3.77506e-05
3.77115e-05
3.7669e-05
3.76226e-05
3.7572e-05
3.75167e-05
3.74561e-05
3.73897e-05
3.73168e-05
3.72367e-05
2.23116e-05
2.93828e-05
3.00104e-05
3.06067e-05
3.11719e-05
3.17062e-05
3.221e-05
3.2684e-05
3.3129e-05
3.35459e-05
3.39358e-05
3.42998e-05
3.4639e-05
3.49547e-05
3.5248e-05
3.55202e-05
3.57724e-05
3.60058e-05
3.62214e-05
3.64205e-05
3.6604e-05
3.67729e-05
3.69282e-05
3.70706e-05
3.72011e-05
3.73203e-05
3.74289e-05
3.75277e-05
3.76171e-05
3.77245e-05
3.79832e-05
3.79883e-05
3.79682e-05
3.79468e-05
3.79239e-05
3.78993e-05
3.7873e-05
3.78446e-05
3.78139e-05
3.77808e-05
3.77449e-05
3.77059e-05
3.76636e-05
3.76175e-05
3.75672e-05
3.75123e-05
3.74523e-05
3.73866e-05
3.73144e-05
3.72352e-05
2.22977e-05
2.93691e-05
2.99967e-05
3.05932e-05
3.11586e-05
3.1693e-05
3.2197e-05
3.26712e-05
3.31165e-05
3.35337e-05
3.39238e-05
3.42881e-05
3.46277e-05
3.49437e-05
3.52373e-05
3.55098e-05
3.57623e-05
3.5996e-05
3.62119e-05
3.64113e-05
3.65951e-05
3.67643e-05
3.69199e-05
3.70626e-05
3.71933e-05
3.73128e-05
3.74218e-05
3.75208e-05
3.76105e-05
3.77181e-05
3.79783e-05
3.79833e-05
3.79632e-05
3.79418e-05
3.79189e-05
3.78944e-05
3.78681e-05
3.78397e-05
3.78092e-05
3.77762e-05
3.77406e-05
3.77019e-05
3.76599e-05
3.76143e-05
3.75646e-05
3.75104e-05
3.74512e-05
3.73864e-05
3.73154e-05
3.72375e-05
2.2284e-05
2.93555e-05
2.99832e-05
3.05798e-05
3.11453e-05
3.168e-05
3.21842e-05
3.26586e-05
3.31041e-05
3.35216e-05
3.39121e-05
3.42767e-05
3.46165e-05
3.49328e-05
3.52267e-05
3.54995e-05
3.57524e-05
3.59864e-05
3.62027e-05
3.64024e-05
3.65865e-05
3.6756e-05
3.69119e-05
3.70549e-05
3.71859e-05
3.73057e-05
3.7415e-05
3.75143e-05
3.76043e-05
3.77122e-05
3.79738e-05
3.79788e-05
3.79588e-05
3.79375e-05
3.79147e-05
3.78903e-05
3.78641e-05
3.78359e-05
3.78056e-05
3.77729e-05
3.77376e-05
3.76994e-05
3.7658e-05
3.7613e-05
3.7564e-05
3.75107e-05
3.74526e-05
3.73891e-05
3.73196e-05
3.72434e-05
2.22705e-05
2.93421e-05
2.99699e-05
3.05667e-05
3.11323e-05
3.16671e-05
3.21716e-05
3.26463e-05
3.3092e-05
3.35097e-05
3.39005e-05
3.42654e-05
3.46055e-05
3.49222e-05
3.52164e-05
3.54896e-05
3.57427e-05
3.59771e-05
3.61937e-05
3.63937e-05
3.65782e-05
3.6748e-05
3.69042e-05
3.70475e-05
3.71789e-05
3.7299e-05
3.74086e-05
3.75082e-05
3.75985e-05
3.77068e-05
3.79699e-05
3.7975e-05
3.7955e-05
3.79338e-05
3.79112e-05
3.78869e-05
3.7861e-05
3.78331e-05
3.78031e-05
3.77709e-05
3.7736e-05
3.76984e-05
3.76576e-05
3.76135e-05
3.75655e-05
3.75134e-05
3.74566e-05
3.73947e-05
3.7327e-05
3.72529e-05
2.22571e-05
2.93289e-05
2.99568e-05
3.05537e-05
3.11195e-05
3.16545e-05
3.21591e-05
3.26341e-05
3.30801e-05
3.34981e-05
3.38892e-05
3.42543e-05
3.45948e-05
3.49118e-05
3.52064e-05
3.54798e-05
3.57333e-05
3.5968e-05
3.6185e-05
3.63854e-05
3.65701e-05
3.67403e-05
3.68968e-05
3.70405e-05
3.71722e-05
3.72926e-05
3.74025e-05
3.75025e-05
3.75932e-05
3.77019e-05
3.79664e-05
3.79716e-05
3.79518e-05
3.79308e-05
3.79084e-05
3.78844e-05
3.78588e-05
3.78313e-05
3.78017e-05
3.77699e-05
3.77357e-05
3.76988e-05
3.76589e-05
3.76157e-05
3.75689e-05
3.75181e-05
3.7463e-05
3.74029e-05
3.73374e-05
3.72659e-05
2.2244e-05
2.93159e-05
2.99439e-05
3.05409e-05
3.11069e-05
3.16421e-05
3.21469e-05
3.26221e-05
3.30684e-05
3.34867e-05
3.3878e-05
3.42435e-05
3.45843e-05
3.49016e-05
3.51965e-05
3.54704e-05
3.57242e-05
3.59592e-05
3.61765e-05
3.63773e-05
3.65624e-05
3.67329e-05
3.68897e-05
3.70338e-05
3.71658e-05
3.72866e-05
3.73969e-05
3.74973e-05
3.75883e-05
3.76974e-05
3.79634e-05
3.79688e-05
3.79492e-05
3.79284e-05
3.79063e-05
3.78827e-05
3.78574e-05
3.78303e-05
3.78013e-05
3.77702e-05
3.77367e-05
3.77006e-05
3.76617e-05
3.76196e-05
3.75742e-05
3.7525e-05
3.74716e-05
3.74137e-05
3.73507e-05
3.72821e-05
2.22311e-05
2.93031e-05
2.99312e-05
3.05283e-05
3.10945e-05
3.16299e-05
3.21349e-05
3.26104e-05
3.30569e-05
3.34755e-05
3.38672e-05
3.4233e-05
3.45741e-05
3.48917e-05
3.5187e-05
3.54611e-05
3.57153e-05
3.59507e-05
3.61684e-05
3.63695e-05
3.65549e-05
3.67258e-05
3.6883e-05
3.70274e-05
3.71598e-05
3.7281e-05
3.73917e-05
3.74924e-05
3.75839e-05
3.76934e-05
3.79608e-05
3.79665e-05
3.79472e-05
3.79267e-05
3.79049e-05
3.78816e-05
3.78568e-05
3.78303e-05
3.78019e-05
3.77715e-05
3.77388e-05
3.77037e-05
3.76659e-05
3.76251e-05
3.75812e-05
3.75338e-05
3.74825e-05
3.74269e-05
3.73667e-05
3.73013e-05
2.22184e-05
2.92905e-05
2.99187e-05
3.0516e-05
3.10823e-05
3.16179e-05
3.21232e-05
3.25989e-05
3.30457e-05
3.34646e-05
3.38566e-05
3.42227e-05
3.45641e-05
3.48821e-05
3.51777e-05
3.54522e-05
3.57068e-05
3.59425e-05
3.61605e-05
3.6362e-05
3.65478e-05
3.67191e-05
3.68766e-05
3.70214e-05
3.71542e-05
3.72758e-05
3.73868e-05
3.7488e-05
3.75799e-05
3.76898e-05
3.79587e-05
3.79646e-05
3.79457e-05
3.79255e-05
3.79041e-05
3.78813e-05
3.78571e-05
3.78311e-05
3.78034e-05
3.77738e-05
3.7742e-05
3.7708e-05
3.76714e-05
3.76321e-05
3.75898e-05
3.75443e-05
3.74953e-05
3.74423e-05
3.73852e-05
3.73233e-05
2.2206e-05
2.92782e-05
2.99065e-05
3.05039e-05
3.10704e-05
3.16062e-05
3.21118e-05
3.25877e-05
3.30348e-05
3.3454e-05
3.38462e-05
3.42127e-05
3.45545e-05
3.48728e-05
3.51687e-05
3.54436e-05
3.56985e-05
3.59346e-05
3.6153e-05
3.63548e-05
3.6541e-05
3.67126e-05
3.68706e-05
3.70157e-05
3.71489e-05
3.72709e-05
3.73823e-05
3.7484e-05
3.75763e-05
3.76867e-05
3.79571e-05
3.79633e-05
3.79447e-05
3.79249e-05
3.7904e-05
3.78817e-05
3.7858e-05
3.78328e-05
3.78058e-05
3.77771e-05
3.77463e-05
3.77135e-05
3.76782e-05
3.76405e-05
3.76e-05
3.75566e-05
3.75099e-05
3.74598e-05
3.74058e-05
3.73478e-05
2.21939e-05
2.92663e-05
2.98947e-05
3.04922e-05
3.10589e-05
3.15949e-05
3.21006e-05
3.25768e-05
3.30242e-05
3.34436e-05
3.38362e-05
3.4203e-05
3.45451e-05
3.48637e-05
3.516e-05
3.54352e-05
3.56905e-05
3.59269e-05
3.61457e-05
3.63479e-05
3.65345e-05
3.67065e-05
3.68648e-05
3.70104e-05
3.7144e-05
3.72664e-05
3.73783e-05
3.74803e-05
3.75731e-05
3.7684e-05
3.79559e-05
3.79624e-05
3.79442e-05
3.79249e-05
3.79045e-05
3.78828e-05
3.78597e-05
3.78352e-05
3.78091e-05
3.77813e-05
3.77516e-05
3.772e-05
3.76862e-05
3.76501e-05
3.76116e-05
3.75703e-05
3.75262e-05
3.7479e-05
3.74285e-05
3.73744e-05
2.21821e-05
2.92546e-05
2.98831e-05
3.04808e-05
3.10476e-05
3.15838e-05
3.20898e-05
3.25662e-05
3.30138e-05
3.34336e-05
3.38265e-05
3.41936e-05
3.4536e-05
3.4855e-05
3.51516e-05
3.54272e-05
3.56828e-05
3.59196e-05
3.61388e-05
3.63413e-05
3.65283e-05
3.67007e-05
3.68594e-05
3.70054e-05
3.71394e-05
3.72622e-05
3.73746e-05
3.74771e-05
3.75704e-05
3.76818e-05
3.79551e-05
3.7962e-05
3.79442e-05
3.79254e-05
3.79055e-05
3.78844e-05
3.78621e-05
3.78383e-05
3.78131e-05
3.77864e-05
3.77579e-05
3.77276e-05
3.76953e-05
3.76609e-05
3.76244e-05
3.75854e-05
3.7544e-05
3.74998e-05
3.74529e-05
3.7403e-05
2.21707e-05
2.92433e-05
2.98719e-05
3.04697e-05
3.10367e-05
3.15731e-05
3.20793e-05
3.25559e-05
3.30038e-05
3.34239e-05
3.3817e-05
3.41845e-05
3.45272e-05
3.48465e-05
3.51435e-05
3.54194e-05
3.56754e-05
3.59126e-05
3.61322e-05
3.63351e-05
3.65225e-05
3.66952e-05
3.68544e-05
3.70008e-05
3.71352e-05
3.72584e-05
3.73712e-05
3.74742e-05
3.7568e-05
3.76799e-05
3.79547e-05
3.7962e-05
3.79447e-05
3.79264e-05
3.79071e-05
3.78867e-05
3.78651e-05
3.78422e-05
3.78179e-05
3.77922e-05
3.77649e-05
3.7736e-05
3.77053e-05
3.76728e-05
3.76383e-05
3.76017e-05
3.7563e-05
3.7522e-05
3.74787e-05
3.7433e-05
2.21596e-05
2.92323e-05
2.9861e-05
3.04589e-05
3.10261e-05
3.15627e-05
3.20691e-05
3.2546e-05
3.29941e-05
3.34145e-05
3.38079e-05
3.41757e-05
3.45188e-05
3.48384e-05
3.51358e-05
3.5412e-05
3.56684e-05
3.59059e-05
3.61258e-05
3.63292e-05
3.65169e-05
3.66901e-05
3.68497e-05
3.69964e-05
3.71313e-05
3.7255e-05
3.73682e-05
3.74717e-05
3.7566e-05
3.76785e-05
3.79546e-05
3.79625e-05
3.79456e-05
3.79279e-05
3.79092e-05
3.78895e-05
3.78686e-05
3.78466e-05
3.78233e-05
3.77988e-05
3.77728e-05
3.77453e-05
3.77162e-05
3.76856e-05
3.76532e-05
3.76191e-05
3.75831e-05
3.75453e-05
3.75057e-05
3.74643e-05
2.21488e-05
2.92216e-05
2.98504e-05
3.04485e-05
3.10158e-05
3.15526e-05
3.20592e-05
3.25364e-05
3.29848e-05
3.34054e-05
3.37992e-05
3.41672e-05
3.45106e-05
3.48306e-05
3.51283e-05
3.54049e-05
3.56616e-05
3.58996e-05
3.61199e-05
3.63236e-05
3.65117e-05
3.66853e-05
3.68453e-05
3.69925e-05
3.71277e-05
3.72519e-05
3.73656e-05
3.74696e-05
3.75644e-05
3.76774e-05
3.7955e-05
3.79633e-05
3.79469e-05
3.79298e-05
3.79118e-05
3.78928e-05
3.78727e-05
3.78516e-05
3.78294e-05
3.7806e-05
3.77813e-05
3.77553e-05
3.77279e-05
3.76991e-05
3.76689e-05
3.76373e-05
3.76041e-05
3.75696e-05
3.75336e-05
3.74965e-05
2.21384e-05
2.92113e-05
2.98402e-05
3.04384e-05
3.10059e-05
3.15428e-05
3.20497e-05
3.25271e-05
3.29757e-05
3.33966e-05
3.37907e-05
3.4159e-05
3.45028e-05
3.48231e-05
3.51211e-05
3.53981e-05
3.56552e-05
3.58935e-05
3.61142e-05
3.63183e-05
3.65068e-05
3.66808e-05
3.68412e-05
3.69888e-05
3.71245e-05
3.72491e-05
3.73633e-05
3.74678e-05
3.75631e-05
3.76767e-05
3.79556e-05
3.79644e-05
3.79487e-05
3.79321e-05
3.79148e-05
3.78965e-05
3.78773e-05
3.78572e-05
3.7836e-05
3.78138e-05
3.77904e-05
3.77659e-05
3.77402e-05
3.77134e-05
3.76854e-05
3.76562e-05
3.76258e-05
3.75945e-05
3.75622e-05
3.75292e-05
2.21283e-05
2.92013e-05
2.98303e-05
3.04286e-05
3.09963e-05
3.15334e-05
3.20405e-05
3.25181e-05
3.2967e-05
3.33882e-05
3.37826e-05
3.41512e-05
3.44953e-05
3.48159e-05
3.51143e-05
3.53917e-05
3.56491e-05
3.58878e-05
3.61088e-05
3.63133e-05
3.65022e-05
3.66766e-05
3.68374e-05
3.69855e-05
3.71216e-05
3.72467e-05
3.73614e-05
3.74663e-05
3.75622e-05
3.76764e-05
3.79566e-05
3.79659e-05
3.79507e-05
3.79348e-05
3.79182e-05
3.79007e-05
3.78824e-05
3.78632e-05
3.78431e-05
3.78221e-05
3.78001e-05
3.77771e-05
3.77531e-05
3.77282e-05
3.77024e-05
3.76756e-05
3.76481e-05
3.76199e-05
3.75912e-05
3.75623e-05
2.21185e-05
2.91917e-05
2.98208e-05
3.04192e-05
3.0987e-05
3.15243e-05
3.20316e-05
3.25095e-05
3.29587e-05
3.33801e-05
3.37747e-05
3.41437e-05
3.44881e-05
3.48091e-05
3.51078e-05
3.53855e-05
3.56433e-05
3.58823e-05
3.61037e-05
3.63086e-05
3.64979e-05
3.66727e-05
3.68339e-05
3.69824e-05
3.7119e-05
3.72446e-05
3.73597e-05
3.74652e-05
3.75616e-05
3.76763e-05
3.79579e-05
3.79677e-05
3.79531e-05
3.79379e-05
3.7922e-05
3.79053e-05
3.78879e-05
3.78697e-05
3.78507e-05
3.78308e-05
3.78102e-05
3.77888e-05
3.77665e-05
3.77435e-05
3.77198e-05
3.76955e-05
3.76707e-05
3.76456e-05
3.76204e-05
3.75954e-05
2.21092e-05
2.91824e-05
2.98116e-05
3.04102e-05
3.09781e-05
3.15156e-05
3.20231e-05
3.25012e-05
3.29506e-05
3.33723e-05
3.37673e-05
3.41365e-05
3.44812e-05
3.48025e-05
3.51016e-05
3.53796e-05
3.56378e-05
3.58772e-05
3.6099e-05
3.63042e-05
3.6494e-05
3.66692e-05
3.68308e-05
3.69797e-05
3.71168e-05
3.72427e-05
3.73584e-05
3.74644e-05
3.75613e-05
3.76766e-05
3.79594e-05
3.79699e-05
3.79559e-05
3.79413e-05
3.79261e-05
3.79102e-05
3.78937e-05
3.78765e-05
3.78586e-05
3.784e-05
3.78207e-05
3.78008e-05
3.77802e-05
3.77591e-05
3.77376e-05
3.77157e-05
3.76935e-05
3.76714e-05
3.76496e-05
3.76284e-05
2.21002e-05
2.91735e-05
2.98028e-05
3.04014e-05
3.09695e-05
3.15072e-05
3.20149e-05
3.24932e-05
3.29429e-05
3.33649e-05
3.37601e-05
3.41297e-05
3.44747e-05
3.47963e-05
3.50957e-05
3.53741e-05
3.56326e-05
3.58724e-05
3.60945e-05
3.63002e-05
3.64903e-05
3.66659e-05
3.68279e-05
3.69773e-05
3.71148e-05
3.72412e-05
3.73573e-05
3.74638e-05
3.75613e-05
3.76772e-05
3.79613e-05
3.79722e-05
3.79589e-05
3.7945e-05
3.79305e-05
3.79155e-05
3.78998e-05
3.78836e-05
3.78668e-05
3.78494e-05
3.78315e-05
3.78131e-05
3.77943e-05
3.7775e-05
3.77555e-05
3.77359e-05
3.77164e-05
3.76972e-05
3.76785e-05
3.76609e-05
2.20916e-05
2.91649e-05
2.97943e-05
3.03931e-05
3.09614e-05
3.14992e-05
3.20071e-05
3.24856e-05
3.29356e-05
3.33578e-05
3.37533e-05
3.41232e-05
3.44685e-05
3.47904e-05
3.50902e-05
3.53689e-05
3.56277e-05
3.58679e-05
3.60904e-05
3.62964e-05
3.64869e-05
3.66629e-05
3.68254e-05
3.69751e-05
3.71131e-05
3.724e-05
3.73566e-05
3.74636e-05
3.75616e-05
3.76781e-05
3.79633e-05
3.79749e-05
3.79621e-05
3.79489e-05
3.79352e-05
3.7921e-05
3.79062e-05
3.7891e-05
3.78753e-05
3.78592e-05
3.78426e-05
3.78257e-05
3.78085e-05
3.77911e-05
3.77736e-05
3.77562e-05
3.77392e-05
3.77227e-05
3.77071e-05
3.76929e-05
2.20833e-05
2.91568e-05
2.97862e-05
3.03852e-05
3.09535e-05
3.14916e-05
3.19997e-05
3.24784e-05
3.29286e-05
3.33511e-05
3.37468e-05
3.4117e-05
3.44626e-05
3.47849e-05
3.50849e-05
3.5364e-05
3.56232e-05
3.58637e-05
3.60865e-05
3.62929e-05
3.64838e-05
3.66602e-05
3.68231e-05
3.69733e-05
3.71116e-05
3.7239e-05
3.73561e-05
3.74636e-05
3.75622e-05
3.76792e-05
3.79656e-05
3.79777e-05
3.79656e-05
3.79531e-05
3.79401e-05
3.79267e-05
3.79129e-05
3.78987e-05
3.78841e-05
3.78691e-05
3.78539e-05
3.78384e-05
3.78228e-05
3.78071e-05
3.77916e-05
3.77764e-05
3.77618e-05
3.77479e-05
3.77352e-05
3.77241e-05
2.20755e-05
2.9149e-05
2.97786e-05
3.03776e-05
3.09461e-05
3.14843e-05
3.19926e-05
3.24715e-05
3.29219e-05
3.33447e-05
3.37407e-05
3.41111e-05
3.4457e-05
3.47796e-05
3.508e-05
3.53594e-05
3.56189e-05
3.58597e-05
3.6083e-05
3.62897e-05
3.6481e-05
3.66578e-05
3.6821e-05
3.69716e-05
3.71105e-05
3.72383e-05
3.73558e-05
3.74638e-05
3.75629e-05
3.76805e-05
3.79681e-05
3.79808e-05
3.79693e-05
3.79574e-05
3.79452e-05
3.79327e-05
3.79197e-05
3.79065e-05
3.78929e-05
3.78792e-05
3.78652e-05
3.78512e-05
3.78371e-05
3.78232e-05
3.78096e-05
3.77964e-05
3.7784e-05
3.77726e-05
3.77626e-05
3.77545e-05
2.20681e-05
2.91417e-05
2.97713e-05
3.03704e-05
3.09391e-05
3.14774e-05
3.19859e-05
3.2465e-05
3.29156e-05
3.33386e-05
3.37349e-05
3.41056e-05
3.44518e-05
3.47747e-05
3.50754e-05
3.53551e-05
3.56149e-05
3.58561e-05
3.60797e-05
3.62868e-05
3.64784e-05
3.66556e-05
3.68193e-05
3.69703e-05
3.71095e-05
3.72378e-05
3.73558e-05
3.74643e-05
3.7564e-05
3.76821e-05
3.79707e-05
3.7984e-05
3.79731e-05
3.7962e-05
3.79505e-05
3.79388e-05
3.79267e-05
3.79144e-05
3.7902e-05
3.78893e-05
3.78766e-05
3.7864e-05
3.78514e-05
3.78392e-05
3.78273e-05
3.78162e-05
3.78059e-05
3.77968e-05
3.77893e-05
3.77838e-05
2.20611e-05
2.91348e-05
2.97644e-05
3.03637e-05
3.09324e-05
3.14709e-05
3.19795e-05
3.24589e-05
3.29097e-05
3.33329e-05
3.37295e-05
3.41004e-05
3.44469e-05
3.47701e-05
3.5071e-05
3.53511e-05
3.56112e-05
3.58528e-05
3.60767e-05
3.62842e-05
3.64762e-05
3.66537e-05
3.68178e-05
3.69692e-05
3.71089e-05
3.72376e-05
3.73561e-05
3.7465e-05
3.75652e-05
3.76839e-05
3.79735e-05
3.79874e-05
3.79772e-05
3.79667e-05
3.7956e-05
3.7945e-05
3.79338e-05
3.79225e-05
3.7911e-05
3.78996e-05
3.78881e-05
3.78767e-05
3.78657e-05
3.7855e-05
3.78449e-05
3.78355e-05
3.78272e-05
3.78203e-05
3.78152e-05
3.78122e-05
2.20545e-05
2.91282e-05
2.9758e-05
3.03573e-05
3.09262e-05
3.14648e-05
3.19736e-05
3.24531e-05
3.29042e-05
3.33276e-05
3.37244e-05
3.40956e-05
3.44423e-05
3.47658e-05
3.5067e-05
3.53474e-05
3.56079e-05
3.58497e-05
3.6074e-05
3.62818e-05
3.64741e-05
3.66521e-05
3.68165e-05
3.69683e-05
3.71084e-05
3.72375e-05
3.73565e-05
3.7466e-05
3.75666e-05
3.76859e-05
3.79765e-05
3.79909e-05
3.79813e-05
3.79715e-05
3.79615e-05
3.79513e-05
3.7941e-05
3.79306e-05
3.79202e-05
3.79098e-05
3.78995e-05
3.78894e-05
3.78797e-05
3.78705e-05
3.7862e-05
3.78545e-05
3.78481e-05
3.78431e-05
3.78401e-05
3.78393e-05
2.20483e-05
2.91222e-05
2.9752e-05
3.03514e-05
3.09204e-05
3.14592e-05
3.19681e-05
3.24478e-05
3.2899e-05
3.33226e-05
3.37196e-05
3.40911e-05
3.44381e-05
3.47618e-05
3.50633e-05
3.53439e-05
3.56048e-05
3.58469e-05
3.60715e-05
3.62796e-05
3.64724e-05
3.66506e-05
3.68154e-05
3.69677e-05
3.71081e-05
3.72377e-05
3.73571e-05
3.7467e-05
3.75682e-05
3.7688e-05
3.79795e-05
3.79946e-05
3.79856e-05
3.79764e-05
3.79671e-05
3.79577e-05
3.79483e-05
3.79388e-05
3.79293e-05
3.79199e-05
3.79108e-05
3.7902e-05
3.78936e-05
3.78858e-05
3.78789e-05
3.78729e-05
3.78682e-05
3.78652e-05
3.78641e-05
3.78653e-05
2.20426e-05
2.91165e-05
2.97463e-05
3.03459e-05
3.0915e-05
3.14539e-05
3.19629e-05
3.24428e-05
3.28942e-05
3.3318e-05
3.37152e-05
3.40869e-05
3.44341e-05
3.47581e-05
3.50599e-05
3.53408e-05
3.56019e-05
3.58444e-05
3.60693e-05
3.62778e-05
3.64708e-05
3.66495e-05
3.68146e-05
3.69672e-05
3.71081e-05
3.72381e-05
3.73579e-05
3.74683e-05
3.75699e-05
3.76903e-05
3.79827e-05
3.79983e-05
3.79899e-05
3.79814e-05
3.79728e-05
3.79642e-05
3.79555e-05
3.79469e-05
3.79384e-05
3.793e-05
3.7922e-05
3.79143e-05
3.79072e-05
3.79008e-05
3.78952e-05
3.78908e-05
3.78878e-05
3.78864e-05
3.7887e-05
3.78901e-05
2.20372e-05
2.91112e-05
2.97411e-05
3.03407e-05
3.09099e-05
3.14489e-05
3.19581e-05
3.24382e-05
3.28897e-05
3.33138e-05
3.37112e-05
3.40831e-05
3.44305e-05
3.47547e-05
3.50568e-05
3.5338e-05
3.55994e-05
3.58421e-05
3.60673e-05
3.62761e-05
3.64695e-05
3.66485e-05
3.6814e-05
3.6967e-05
3.71083e-05
3.72386e-05
3.73589e-05
3.74697e-05
3.75718e-05
3.76927e-05
3.7986e-05
3.80021e-05
3.79943e-05
3.79865e-05
3.79786e-05
3.79706e-05
3.79628e-05
3.7955e-05
3.79474e-05
3.794e-05
3.7933e-05
3.79264e-05
3.79205e-05
3.79154e-05
3.79112e-05
3.79081e-05
3.79066e-05
3.79067e-05
3.7909e-05
3.79137e-05
2.20322e-05
2.91063e-05
2.97363e-05
3.0336e-05
3.09053e-05
3.14444e-05
3.19537e-05
3.24339e-05
3.28856e-05
3.33098e-05
3.37074e-05
3.40795e-05
3.44272e-05
3.47517e-05
3.5054e-05
3.53354e-05
3.55971e-05
3.58401e-05
3.60656e-05
3.62747e-05
3.64684e-05
3.66477e-05
3.68136e-05
3.69669e-05
3.71086e-05
3.72394e-05
3.736e-05
3.74713e-05
3.75739e-05
3.76952e-05
3.79893e-05
3.8006e-05
3.79988e-05
3.79915e-05
3.79843e-05
3.79771e-05
3.797e-05
3.7963e-05
3.79563e-05
3.79498e-05
3.79438e-05
3.79383e-05
3.79335e-05
3.79295e-05
3.79266e-05
3.79249e-05
3.79247e-05
3.79262e-05
3.79299e-05
3.7936e-05
2.20276e-05
2.91017e-05
2.97318e-05
3.03316e-05
3.0901e-05
3.14402e-05
3.19497e-05
3.243e-05
3.28819e-05
3.33062e-05
3.3704e-05
3.40763e-05
3.44242e-05
3.47489e-05
3.50515e-05
3.53331e-05
3.55951e-05
3.58384e-05
3.60642e-05
3.62735e-05
3.64676e-05
3.66472e-05
3.68134e-05
3.69671e-05
3.71091e-05
3.72402e-05
3.73613e-05
3.7473e-05
3.7576e-05
3.76978e-05
3.79927e-05
3.80099e-05
3.80033e-05
3.79966e-05
3.799e-05
3.79835e-05
3.79771e-05
3.7971e-05
3.7965e-05
3.79595e-05
3.79544e-05
3.79499e-05
3.79461e-05
3.79433e-05
3.79415e-05
3.7941e-05
3.7942e-05
3.79448e-05
3.79497e-05
3.79571e-05
2.20234e-05
2.90975e-05
2.97277e-05
3.03275e-05
3.0897e-05
3.14364e-05
3.1946e-05
3.24264e-05
3.28784e-05
3.3303e-05
3.37009e-05
3.40734e-05
3.44215e-05
3.47464e-05
3.50492e-05
3.53311e-05