/*--------------------------------*- C++ -*----------------------------------*\
  =========                 |
  \\      /  F ield         | OpenFOAM: The Open Source CFD Toolbox
   \\    /   O peration     | Website:  https://openfoam.org
    \\  /    A nd           | Version:  9
     \\/     M anipulation  |
\*---------------------------------------------------------------------------*/
FoamFile
{
    format      ascii;
    class       volVectorField;
    location    "0.01";
    object      U;
}
// * * * * * * * * * * * * * * * * * * * * * * * * * * * * * * * * * * * * * //

dimensions      [0 1 -1 0 0 0 0];

internalField   nonuniform List<vector> 
5000
(
(-0.0297116 0 0.00032289)
(-0.0297849 0 0.000630509)
(-0.0297627 0 0.000898964)
(-0.0297759 0 0.00117019)
(-0.0297993 0 0.00145034)
(-0.0298271 0 0.00174455)
(-0.0298607 0 0.00205565)
(-0.0299015 0 0.00238496)
(-0.0299502 0 0.00273324)
(-0.030008 0 0.00310126)
(-0.030076 0 0.00349001)
(-0.0301555 0 0.00390069)
(-0.0302479 0 0.0043347)
(-0.0303549 0 0.0047937)
(-0.0304783 0 0.00527956)
(-0.0306202 0 0.00579442)
(-0.0307828 0 0.00634069)
(-0.0309687 0 0.00692105)
(-0.0311808 0 0.0075385)
(-0.0314224 0 0.00819642)
(-0.0316971 0 0.0088986)
(-0.0320091 0 0.00964931)
(-0.0323631 0 0.0104534)
(-0.0327645 0 0.0113166)
(-0.0332195 0 0.0122451)
(-0.0337353 0 0.0132465)
(-0.03432 0 0.0143293)
(-0.0349834 0 0.0155036)
(-0.0357376 0 0.0167812)
(-0.0365937 0 0.0181773)
(-0.0376566 0 0.0198455)
(-0.0389438 0 0.0217916)
(-0.0403651 0 0.0238622)
(-0.0419257 0 0.0260689)
(-0.043639 0 0.0284266)
(-0.0455176 0 0.0309531)
(-0.047577 0 0.0336684)
(-0.0498355 0 0.0365949)
(-0.0523137 0 0.0397573)
(-0.0550346 0 0.0431836)
(-0.0580231 0 0.0469052)
(-0.0613065 0 0.0509588)
(-0.064915 0 0.0553871)
(-0.0688835 0 0.0602401)
(-0.0732514 0 0.0655761)
(-0.0780634 0 0.0714636)
(-0.0833679 0 0.0779835)
(-0.0892131 0 0.085232)
(-0.0956544 0 0.0933292)
(-0.102723 0 0.102425)
(-0.0288738 0 0.00033842)
(-0.0289476 0 0.000660765)
(-0.0289245 0 0.000941156)
(-0.028937 0 0.00122382)
(-0.0289594 0 0.00151536)
(-0.0289859 0 0.00182126)
(-0.0290178 0 0.00214459)
(-0.0290565 0 0.00248678)
(-0.0291027 0 0.00284866)
(-0.0291573 0 0.00323104)
(-0.0292216 0 0.00363497)
(-0.0292967 0 0.00406167)
(-0.029384 0 0.00451262)
(-0.029485 0 0.0049895)
(-0.0296016 0 0.00549429)
(-0.0297355 0 0.00602919)
(-0.0298891 0 0.00659672)
(-0.0300647 0 0.00719968)
(-0.030265 0 0.00784124)
(-0.0304932 0 0.00852492)
(-0.0307526 0 0.00925469)
(-0.0310472 0 0.010035)
(-0.0313814 0 0.010871)
(-0.0317601 0 0.0117685)
(-0.0321892 0 0.0127341)
(-0.0326753 0 0.0137756)
(-0.033226 0 0.0149018)
(-0.0338504 0 0.0161231)
(-0.0345598 0 0.0174518)
(-0.0353644 0 0.0189041)
(-0.0363629 0 0.0206397)
(-0.0375712 0 0.022665)
(-0.038904 0 0.024822)
(-0.040366 0 0.0271236)
(-0.0419692 0 0.0295857)
(-0.0437248 0 0.0322261)
(-0.0456468 0 0.0350652)
(-0.0477516 0 0.0381257)
(-0.0500578 0 0.0414338)
(-0.0525856 0 0.0450198)
(-0.0553571 0 0.0489188)
(-0.0583961 0 0.0531704)
(-0.0617289 0 0.057819)
(-0.0653848 0 0.0629154)
(-0.0693969 0 0.0685183)
(-0.0738019 0 0.0746981)
(-0.0786393 0 0.0815388)
(-0.0839455 0 0.0891389)
(-0.0897541 0 0.0976131)
(-0.0960919 0 0.107115)
(-0.0280072 0 0.000353174)
(-0.0280814 0 0.000689635)
(-0.0280572 0 0.000981362)
(-0.0280688 0 0.00127486)
(-0.0280902 0 0.0015771)
(-0.0281152 0 0.00189395)
(-0.0281454 0 0.00222872)
(-0.0281819 0 0.00258299)
(-0.0282254 0 0.00295763)
(-0.0282768 0 0.00335356)
(-0.0283373 0 0.00377182)
(-0.0284079 0 0.00421372)
(-0.0284899 0 0.00468074)
(-0.0285849 0 0.00517463)
(-0.0286944 0 0.00569739)
(-0.0288203 0 0.00625131)
(-0.0289645 0 0.00683898)
(-0.0291293 0 0.00746329)
(-0.0293173 0 0.00812749)
(-0.0295314 0 0.00883525)
(-0.0297746 0 0.00959067)
(-0.0300508 0 0.0103984)
(-0.0303639 0 0.0112638)
(-0.0307187 0 0.0121929)
(-0.0311205 0 0.0131926)
(-0.0315755 0 0.014271)
(-0.0320908 0 0.0154373)
(-0.0326747 0 0.0167024)
(-0.0333376 0 0.018079)
(-0.034089 0 0.0195841)
(-0.0350203 0 0.0213833)
(-0.0361456 0 0.0234831)
(-0.037385 0 0.0257203)
(-0.0387426 0 0.0281089)
(-0.0402294 0 0.0306653)
(-0.0418556 0 0.0334085)
(-0.0436338 0 0.0363593)
(-0.0455782 0 0.0395419)
(-0.0477044 0 0.0429838)
(-0.0500296 0 0.0467167)
(-0.0525725 0 0.0507768)
(-0.0553537 0 0.0552053)
(-0.0583962 0 0.0600483)
(-0.061725 0 0.0653585)
(-0.0653666 0 0.0711963)
(-0.0693487 0 0.077632)
(-0.073701 0 0.0847496)
(-0.0784518 0 0.0926484)
(-0.0836189 0 0.101437)
(-0.089219 0 0.111256)
(-0.0271142 0 0.000367013)
(-0.0271885 0 0.000716804)
(-0.0271634 0 0.00101922)
(-0.0271739 0 0.00132289)
(-0.0271941 0 0.00163515)
(-0.0272175 0 0.0019622)
(-0.0272458 0 0.00230761)
(-0.0272799 0 0.00267308)
(-0.0273205 0 0.00305961)
(-0.0273686 0 0.00346814)
(-0.027425 0 0.0038998)
(-0.0274909 0 0.0043559)
(-0.0275675 0 0.00483799)
(-0.0276562 0 0.00534786)
(-0.0277584 0 0.00588755)
(-0.0278759 0 0.00645941)
(-0.0280105 0 0.00706607)
(-0.0281642 0 0.0077105)
(-0.0283395 0 0.00839601)
(-0.028539 0 0.00912635)
(-0.0287657 0 0.00990573)
(-0.0290228 0 0.0107389)
(-0.0293141 0 0.0116314)
(-0.029644 0 0.0125895)
(-0.0300174 0 0.0136203)
(-0.03044 0 0.0147323)
(-0.0309182 0 0.0159352)
(-0.0314598 0 0.0172403)
(-0.032074 0 0.0186611)
(-0.0327695 0 0.0202151)
(-0.0336307 0 0.0220736)
(-0.0346697 0 0.0242424)
(-0.0358124 0 0.0265533)
(-0.0370619 0 0.0290208)
(-0.038428 0 0.031662)
(-0.0399196 0 0.0344967)
(-0.0415475 0 0.0375473)
(-0.0433235 0 0.0408392)
(-0.0452612 0 0.0444013)
(-0.047375 0 0.0482661)
(-0.0496807 0 0.0524703)
(-0.0521954 0 0.0570553)
(-0.0549375 0 0.0620681)
(-0.0579267 0 0.0675631)
(-0.0611843 0 0.0736026)
(-0.0647313 0 0.0802575)
(-0.068588 0 0.0876089)
(-0.0727744 0 0.0957531)
(-0.0772963 0 0.104797)
(-0.0821557 0 0.114862)
(-0.0261966 0 0.000379882)
(-0.0262711 0 0.000742166)
(-0.0262448 0 0.00105458)
(-0.0262543 0 0.00136777)
(-0.0262732 0 0.00168937)
(-0.026295 0 0.00202591)
(-0.0263212 0 0.00238119)
(-0.0263528 0 0.00275707)
(-0.0263904 0 0.00315461)
(-0.026435 0 0.00357482)
(-0.0264872 0 0.00401887)
(-0.0265483 0 0.00448812)
(-0.0266192 0 0.00498414)
(-0.0267013 0 0.00550877)
(-0.026796 0 0.00606409)
(-0.0269047 0 0.00665249)
(-0.0270293 0 0.00727666)
(-0.0271716 0 0.00793963)
(-0.0273338 0 0.0086448)
(-0.0275183 0 0.00939597)
(-0.0277277 0 0.0101975)
(-0.0279652 0 0.0110542)
(-0.0282341 0 0.0119718)
(-0.0285383 0 0.0129567)
(-0.0288824 0 0.0140163)
(-0.0292714 0 0.0151593)
(-0.0297113 0 0.0163959)
(-0.0302089 0 0.0177376)
(-0.0307727 0 0.0191986)
(-0.0314104 0 0.0207968)
(-0.0321991 0 0.0227084)
(-0.0331489 0 0.024939)
(-0.0341915 0 0.0273158)
(-0.0353293 0 0.0298539)
(-0.0365706 0 0.0325713)
(-0.0379227 0 0.0354884)
(-0.0393949 0 0.0386284)
(-0.0409968 0 0.0420172)
(-0.0427395 0 0.0456844)
(-0.0446347 0 0.0496634)
(-0.0466954 0 0.0539917)
(-0.048935 0 0.0587118)
(-0.0513678 0 0.0638714)
(-0.0540085 0 0.0695249)
(-0.0568727 0 0.0757345)
(-0.0599754 0 0.0825713)
(-0.0633294 0 0.0901147)
(-0.0669464 0 0.0984569)
(-0.0708265 0 0.107701)
(-0.0749577 0 0.117953)
(-0.0252566 0 0.000391718)
(-0.0253311 0 0.000765588)
(-0.0253038 0 0.00108726)
(-0.025312 0 0.00140925)
(-0.0253295 0 0.00173948)
(-0.0253496 0 0.00208478)
(-0.0253736 0 0.00244918)
(-0.0254026 0 0.00283466)
(-0.0254372 0 0.00324236)
(-0.0254781 0 0.00367335)
(-0.025526 0 0.00412884)
(-0.0255821 0 0.00461021)
(-0.0256472 0 0.00511908)
(-0.0257226 0 0.00565728)
(-0.0258095 0 0.00622695)
(-0.0259092 0 0.00683051)
(-0.0260235 0 0.0074707)
(-0.026154 0 0.0081506)
(-0.0263026 0 0.00887367)
(-0.0264716 0 0.00964383)
(-0.0266633 0 0.0104655)
(-0.0268805 0 0.0113436)
(-0.0271263 0 0.012284)
(-0.0274042 0 0.0132933)
(-0.0277181 0 0.0143791)
(-0.0280726 0 0.0155504)
(-0.028473 0 0.0168174)
(-0.0289254 0 0.0181922)
(-0.0294374 0 0.0196892)
(-0.0300157 0 0.021327)
(-0.0307298 0 0.0232859)
(-0.0315879 0 0.0255712)
(-0.0325277 0 0.0280063)
(-0.0335505 0 0.0306069)
(-0.0346633 0 0.0333913)
(-0.0358721 0 0.0363805)
(-0.0371842 0 0.039598)
(-0.0386073 0 0.0430705)
(-0.0401499 0 0.0468279)
(-0.041821 0 0.0509043)
(-0.0436304 0 0.0553377)
(-0.0455883 0 0.0601709)
(-0.0477049 0 0.0654523)
(-0.0499904 0 0.0712362)
(-0.052455 0 0.0775842)
(-0.0551081 0 0.0845662)
(-0.0579558 0 0.09226)
(-0.0610024 0 0.100753)
(-0.0642452 0 0.110145)
(-0.0676632 0 0.120533)
(-0.0242964 0 0.000402426)
(-0.0243707 0 0.000786895)
(-0.0243423 0 0.00111701)
(-0.0243493 0 0.00144704)
(-0.0243653 0 0.00178516)
(-0.0243835 0 0.00213846)
(-0.0244053 0 0.00251118)
(-0.0244316 0 0.00290543)
(-0.0244629 0 0.00332242)
(-0.0245 0 0.00376326)
(-0.0245436 0 0.00422921)
(-0.0245945 0 0.00472167)
(-0.0246537 0 0.00524226)
(-0.0247221 0 0.00579286)
(-0.024801 0 0.00637562)
(-0.0248916 0 0.00699298)
(-0.0249953 0 0.00764774)
(-0.0251137 0 0.008343)
(-0.0252485 0 0.00908231)
(-0.0254015 0 0.00986961)
(-0.0255751 0 0.0107094)
(-0.0257716 0 0.0116068)
(-0.0259937 0 0.0125678)
(-0.0262445 0 0.0135989)
(-0.0265275 0 0.0147082)
(-0.0268467 0 0.0159046)
(-0.0272068 0 0.0171986)
(-0.027613 0 0.0186027)
(-0.028072 0 0.0201316)
(-0.0285895 0 0.0218042)
(-0.0292274 0 0.0238045)
(-0.0299916 0 0.0261377)
(-0.0308262 0 0.0286234)
(-0.0317314 0 0.031278)
(-0.032713 0 0.0341198)
(-0.0337754 0 0.0371702)
(-0.034924 0 0.0404531)
(-0.0361646 0 0.0439956)
(-0.037503 0 0.0478281)
(-0.0389457 0 0.0519849)
(-0.0404994 0 0.0565043)
(-0.0421709 0 0.0614291)
(-0.0439667 0 0.0668075)
(-0.0458925 0 0.0726937)
(-0.0479536 0 0.0791488)
(-0.0501543 0 0.0862411)
(-0.0524954 0 0.0940464)
(-0.0549742 0 0.102648)
(-0.0575855 0 0.112141)
(-0.0603039 0 0.122617)
(-0.0233181 0 0.000411901)
(-0.0233922 0 0.000805897)
(-0.0233626 0 0.00114362)
(-0.0233683 0 0.0014809)
(-0.0233827 0 0.00182614)
(-0.023399 0 0.00218669)
(-0.0234184 0 0.00256695)
(-0.0234418 0 0.00296915)
(-0.0234699 0 0.00339456)
(-0.0235031 0 0.00384434)
(-0.0235422 0 0.00431975)
(-0.0235878 0 0.00482224)
(-0.0236408 0 0.00535344)
(-0.0237022 0 0.00591524)
(-0.023773 0 0.00650979)
(-0.0238542 0 0.00713958)
(-0.0239471 0 0.00780741)
(-0.0240531 0 0.00851646)
(-0.0241737 0 0.00927027)
(-0.0243106 0 0.0100729)
(-0.0244656 0 0.0109288)
(-0.0246409 0 0.0118434)
(-0.0248389 0 0.0128224)
(-0.0250621 0 0.0138728)
(-0.0253137 0 0.0150026)
(-0.025597 0 0.016221)
(-0.025916 0 0.0175387)
(-0.0262752 0 0.0189683)
(-0.0266803 0 0.0205248)
(-0.027136 0 0.0222274)
(-0.0276962 0 0.0242634)
(-0.028365 0 0.0266372)
(-0.0290926 0 0.0291657)
(-0.0298782 0 0.0318653)
(-0.0307265 0 0.0347548)
(-0.0316402 0 0.0378555)
(-0.0326229 0 0.0411917)
(-0.0336782 0 0.0447906)
(-0.0348096 0 0.048683)
(-0.0360209 0 0.052903)
(-0.037316 0 0.057489)
(-0.0386983 0 0.0624835)
(-0.0401704 0 0.0679346)
(-0.0417342 0 0.0738959)
(-0.0433902 0 0.0804274)
(-0.0451382 0 0.0875961)
(-0.0469741 0 0.0954758)
(-0.0488899 0 0.104146)
(-0.0508775 0 0.113697)
(-0.0529092 0 0.124218)
(-0.0223239 0 0.000420053)
(-0.0223977 0 0.000822419)
(-0.0223669 0 0.00116684)
(-0.0223712 0 0.00151057)
(-0.0223839 0 0.00186218)
(-0.0223981 0 0.00222922)
(-0.022415 0 0.00261626)
(-0.0224356 0 0.00302561)
(-0.0224603 0 0.00345859)
(-0.0224895 0 0.00391638)
(-0.0225239 0 0.00440028)
(-0.0225641 0 0.00491174)
(-0.022611 0 0.00545241)
(-0.0226652 0 0.00602417)
(-0.0227276 0 0.0066292)
(-0.0227993 0 0.00727)
(-0.0228813 0 0.0079494)
(-0.0229747 0 0.00867058)
(-0.0230809 0 0.00943714)
(-0.0232013 0 0.0102532)
(-0.0233376 0 0.0111232)
(-0.0234914 0 0.0120526)
(-0.0236649 0 0.0130474)
(-0.0238602 0 0.0141144)
(-0.0240799 0 0.0152619)
(-0.0243268 0 0.0164991)
(-0.0246041 0 0.017837)
(-0.0249158 0 0.0192883)
(-0.0252662 0 0.0208681)
(-0.0256593 0 0.022596)
(-0.0261409 0 0.0246616)
(-0.0267131 0 0.0270689)
(-0.0273324 0 0.0296321)
(-0.0279972 0 0.0323679)
(-0.0287107 0 0.0352951)
(-0.0294742 0 0.0384352)
(-0.0302894 0 0.0418124)
(-0.0311577 0 0.0454542)
(-0.0320804 0 0.049391)
(-0.0330588 0 0.053657)
(-0.0340938 0 0.0582902)
(-0.0351857 0 0.0633329)
(-0.0363334 0 0.0688326)
(-0.0375348 0 0.074842)
(-0.0387863 0 0.08142)
(-0.0400831 0 0.088632)
(-0.0414172 0 0.0965499)
(-0.0427758 0 0.105251)
(-0.0441481 0 0.11482)
(-0.0455051 0 0.125345)
(-0.0213156 0 0.000426829)
(-0.021389 0 0.000836348)
(-0.021357 0 0.00118654)
(-0.0213599 0 0.00153588)
(-0.0213709 0 0.00189307)
(-0.021383 0 0.00226586)
(-0.0213974 0 0.00265891)
(-0.021415 0 0.00307461)
(-0.0214362 0 0.00351432)
(-0.0214613 0 0.00397921)
(-0.021491 0 0.00447061)
(-0.0215258 0 0.00498998)
(-0.0215663 0 0.00553896)
(-0.0216132 0 0.00611945)
(-0.0216673 0 0.00673363)
(-0.0217293 0 0.00738401)
(-0.0218002 0 0.00807342)
(-0.0218809 0 0.00880508)
(-0.0219726 0 0.00958262)
(-0.0220764 0 0.0104101)
(-0.0221936 0 0.0112922)
(-0.0223258 0 0.0122343)
(-0.0224746 0 0.0132423)
(-0.0226417 0 0.0143234)
(-0.0228292 0 0.0154857)
(-0.0230393 0 0.0167386)
(-0.0232747 0 0.0180932)
(-0.0235383 0 0.0195622)
(-0.0238337 0 0.021161)
(-0.0241636 0 0.0229092)
(-0.0245662 0 0.0249984)
(-0.025041 0 0.027432)
(-0.0255513 0 0.0300219)
(-0.0260947 0 0.0327849)
(-0.0266726 0 0.03574)
(-0.0272852 0 0.0389084)
(-0.0279322 0 0.0423146)
(-0.0286129 0 0.0459855)
(-0.0293265 0 0.0499515)
(-0.0300716 0 0.0542465)
(-0.0308466 0 0.0589078)
(-0.0316484 0 0.0639773)
(-0.0324725 0 0.0695016)
(-0.0333131 0 0.0755327)
(-0.0341626 0 0.0821281)
(-0.0350118 0 0.0893513)
(-0.0358492 0 0.0972726)
(-0.0366577 0 0.105966)
(-0.037423 0 0.115516)
(-0.0381156 0 0.126008)
(-0.0202951 0 0.000432231)
(-0.020368 0 0.000847664)
(-0.0203349 0 0.00120266)
(-0.0203363 0 0.00155675)
(-0.0203456 0 0.00191874)
(-0.0203556 0 0.0022965)
(-0.0203674 0 0.0026948)
(-0.0203821 0 0.00311605)
(-0.0203997 0 0.00356162)
(-0.0204208 0 0.00403269)
(-0.0204458 0 0.0045306)
(-0.020475 0 0.0050568)
(-0.0205092 0 0.00561294)
(-0.0205487 0 0.00620092)
(-0.0205943 0 0.00682292)
(-0.0206466 0 0.00748144)
(-0.0207063 0 0.00817932)
(-0.0207742 0 0.00891981)
(-0.0208512 0 0.00970652)
(-0.0209383 0 0.0105436)
(-0.0210365 0 0.0114357)
(-0.0211469 0 0.0123881)
(-0.0212708 0 0.013407)
(-0.0214095 0 0.0144995)
(-0.0215647 0 0.0156737)
(-0.021738 0 0.0169391)
(-0.0219312 0 0.0183069)
(-0.0221466 0 0.0197898)
(-0.0223868 0 0.0214032)
(-0.0226534 0 0.0231669)
(-0.0229766 0 0.0252737)
(-0.0233539 0 0.0277262)
(-0.0237551 0 0.0303347)
(-0.0241768 0 0.0331162)
(-0.0246192 0 0.0360893)
(-0.0250808 0 0.0392752)
(-0.0255598 0 0.042698)
(-0.0260533 0 0.0463845)
(-0.0265583 0 0.0503647)
(-0.0270713 0 0.0546716)
(-0.0275876 0 0.0593422)
(-0.0281012 0 0.0644175)
(-0.0286042 0 0.0699433)
(-0.0290875 0 0.0759701)
(-0.0295394 0 0.0825542)
(-0.0299464 0 0.0897576)
(-0.0302938 0 0.0976485)
(-0.0305603 0 0.106299)
(-0.0307276 0 0.115791)
(-0.0307655 0 0.126211)
(-0.019264 0 0.000436321)
(-0.0193365 0 0.000856455)
(-0.0193023 0 0.0012153)
(-0.0193024 0 0.00157327)
(-0.01931 0 0.00193924)
(-0.0193179 0 0.00232118)
(-0.0193273 0 0.00272393)
(-0.0193389 0 0.00314991)
(-0.0193531 0 0.00360047)
(-0.0193701 0 0.00407679)
(-0.0193903 0 0.0045802)
(-0.019414 0 0.00511214)
(-0.0194418 0 0.00567428)
(-0.0194739 0 0.0062685)
(-0.019511 0 0.00689697)
(-0.0195535 0 0.00756219)
(-0.019602 0 0.00826701)
(-0.0196571 0 0.00901466)
(-0.0197195 0 0.00980878)
(-0.0197898 0 0.0106535)
(-0.0198688 0 0.0115535)
(-0.0199574 0 0.0125141)
(-0.0200564 0 0.0135414)
(-0.0201669 0 0.0146426)
(-0.0202897 0 0.0158259)
(-0.0204261 0 0.0171007)
(-0.0205772 0 0.0184781)
(-0.0207445 0 0.019971)
(-0.0209295 0 0.0215947)
(-0.0211328 0 0.0233689)
(-0.0213768 0 0.0254873)
(-0.0216569 0 0.0279515)
(-0.0219493 0 0.0305707)
(-0.0222498 0 0.0333618)
(-0.0225574 0 0.0363431)
(-0.0228689 0 0.0395357)
(-0.0231808 0 0.0429632)
(-0.0234885 0 0.046652)
(-0.0237867 0 0.0506313)
(-0.0240695 0 0.0549337)
(-0.0243299 0 0.0595951)
(-0.0245587 0 0.0646557)
(-0.0247449 0 0.07016)
(-0.0248759 0 0.0761573)
(-0.0249361 0 0.0827023)
(-0.0249083 0 0.0898555)
(-0.0247739 0 0.0976828)
(-0.0245079 0 0.106255)
(-0.0240871 0 0.115653)
(-0.0234803 0 0.125962)
(-0.0182244 0 0.000439193)
(-0.0182964 0 0.000862879)
(-0.0182613 0 0.00122464)
(-0.0182601 0 0.00158562)
(-0.0182661 0 0.00195475)
(-0.0182719 0 0.00234005)
(-0.0182789 0 0.00274642)
(-0.0182876 0 0.00317627)
(-0.0182983 0 0.00363092)
(-0.0183113 0 0.00411154)
(-0.0183267 0 0.00461942)
(-0.018345 0 0.00515602)
(-0.0183664 0 0.00572298)
(-0.0183912 0 0.00632217)
(-0.0184197 0 0.00695577)
(-0.0184525 0 0.00762626)
(-0.0184898 0 0.00833648)
(-0.0185321 0 0.00908964)
(-0.0185798 0 0.00988939)
(-0.0186334 0 0.0107398)
(-0.0186934 0 0.0116457)
(-0.0187602 0 0.0126122)
(-0.0188345 0 0.0136456)
(-0.0189167 0 0.0147529)
(-0.0190074 0 0.0159423)
(-0.019107 0 0.0172233)
(-0.0192162 0 0.0186069)
(-0.0193355 0 0.0201059)
(-0.0194657 0 0.0217356)
(-0.0196061 0 0.0235156)
(-0.0197715 0 0.0256396)
(-0.019955 0 0.0281084)
(-0.0201395 0 0.0307304)
(-0.0203199 0 0.0335223)
(-0.0204939 0 0.0365023)
(-0.0206569 0 0.0396909)
(-0.0208037 0 0.0431113)
(-0.0209277 0 0.0467892)
(-0.0210219 0 0.0507532)
(-0.021078 0 0.0550347)
(-0.0210864 0 0.0596689)
(-0.0210351 0 0.0646948)
(-0.0209103 0 0.0701555)
(-0.0206956 0 0.0760987)
(-0.0203721 0 0.0825776)
(-0.0199183 0 0.0896507)
(-0.0193123 0 0.0973821)
(-0.0185246 0 0.105842)
(-0.0175272 0 0.115107)
(-0.0162866 0 0.125266)
(-0.0171782 0 0.000440967)
(-0.0172497 0 0.000867146)
(-0.0172137 0 0.00123094)
(-0.0172113 0 0.00159408)
(-0.0172159 0 0.00196551)
(-0.0172198 0 0.00235334)
(-0.0172244 0 0.00276246)
(-0.0172303 0 0.00319529)
(-0.0172376 0 0.00365311)
(-0.0172466 0 0.00413703)
(-0.0172574 0 0.00464835)
(-0.0172702 0 0.00518849)
(-0.0172852 0 0.00575909)
(-0.0173027 0 0.006362)
(-0.0173228 0 0.00699939)
(-0.0173459 0 0.00767371)
(-0.0173721 0 0.00838779)
(-0.0174016 0 0.00914483)
(-0.0174348 0 0.00994844)
(-0.0174718 0 0.0108027)
(-0.0175128 0 0.0117123)
(-0.0175581 0 0.0126826)
(-0.0176078 0 0.0137196)
(-0.017662 0 0.0148304)
(-0.0177208 0 0.0160231)
(-0.017784 0 0.0173072)
(-0.0178517 0 0.0186936)
(-0.0179235 0 0.0201949)
(-0.0179993 0 0.0218264)
(-0.0180776 0 0.0236074)
(-0.0181652 0 0.0257312)
(-0.0182533 0 0.0281975)
(-0.0183313 0 0.0308145)
(-0.0183932 0 0.0335988)
(-0.0184355 0 0.036568)
(-0.0184522 0 0.0397422)
(-0.0184365 0 0.043144)
(-0.0183801 0 0.0467983)
(-0.0182741 0 0.0507327)
(-0.018108 0 0.0549776)
(-0.0178696 0 0.0595671)
(-0.0175444 0 0.0645388)
(-0.0171156 0 0.0699343)
(-0.0165637 0 0.0757996)
(-0.0158657 0 0.0821861)
(-0.0149969 0 0.0891503)
(-0.013931 0 0.096754)
(-0.0126342 0 0.105066)
(-0.0110735 0 0.114163)
(-0.00921189 0 0.12413)
(-0.0161278 0 0.000441775)
(-0.0161988 0 0.000869489)
(-0.0161621 0 0.00123448)
(-0.0161586 0 0.00159893)
(-0.0161617 0 0.00197181)
(-0.0161638 0 0.00236128)
(-0.0161661 0 0.00277226)
(-0.0161692 0 0.00320714)
(-0.0161732 0 0.00366716)
(-0.0161782 0 0.0041534)
(-0.0161844 0 0.00466709)
(-0.0161918 0 0.00520966)
(-0.0162006 0 0.00578272)
(-0.0162108 0 0.0063881)
(-0.0162226 0 0.00702794)
(-0.016236 0 0.00770468)
(-0.0162512 0 0.0084211)
(-0.0162682 0 0.00918039)
(-0.016287 0 0.00998613)
(-0.0163075 0 0.0108424)
(-0.0163299 0 0.0117538)
(-0.0163538 0 0.0127256)
(-0.0163793 0 0.0137639)
(-0.0164058 0 0.0148756)
(-0.0164331 0 0.0160689)
(-0.0164604 0 0.017353)
(-0.016487 0 0.0187387)
(-0.0165121 0 0.0202386)
(-0.0165344 0 0.0218677)
(-0.0165514 0 0.023645)
(-0.0165624 0 0.0257628)
(-0.0165566 0 0.0282197)
(-0.0165299 0 0.0308242)
(-0.0164755 0 0.0335925)
(-0.0163886 0 0.0365418)
(-0.016262 0 0.0396916)
(-0.0160873 0 0.0430635)
(-0.0158546 0 0.0466818)
(-0.0155531 0 0.0505728)
(-0.0151703 0 0.0547659)
(-0.0146915 0 0.0592938)
(-0.0140999 0 0.0641926)
(-0.0133759 0 0.069502)
(-0.0124964 0 0.0752664)
(-0.0114352 0 0.0815351)
(-0.0101638 0 0.0883622)
(-0.00865183 0 0.0958074)
(-0.00686059 0 0.103938)
(-0.00475199 0 0.112828)
(-0.00228446 0 0.122563)
(-0.0150763 0 0.000441581)
(-0.0151466 0 0.000869889)
(-0.0151091 0 0.00123526)
(-0.0151044 0 0.0016002)
(-0.015106 0 0.00197369)
(-0.0151062 0 0.00236394)
(-0.0151062 0 0.00277589)
(-0.0151065 0 0.00321192)
(-0.0151072 0 0.00367319)
(-0.0151084 0 0.00416074)
(-0.01511 0 0.00467578)
(-0.0151121 0 0.00521968)
(-0.0151146 0 0.00579403)
(-0.0151177 0 0.00640064)
(-0.0151213 0 0.00704162)
(-0.0151253 0 0.00771937)
(-0.0151296 0 0.00843664)
(-0.0151342 0 0.00919658)
(-0.0151388 0 0.0100027)
(-0.0151432 0 0.0108591)
(-0.0151471 0 0.0117703)
(-0.0151501 0 0.0127416)
(-0.0151517 0 0.0137788)
(-0.015151 0 0.014889)
(-0.0151473 0 0.01608)
(-0.0151393 0 0.0173611)
(-0.0151257 0 0.0187429)
(-0.0151048 0 0.0202377)
(-0.0150746 0 0.0218603)
(-0.0150315 0 0.0236293)
(-0.0149674 0 0.0257357)
(-0.0148697 0 0.0281764)
(-0.0147407 0 0.030761)
(-0.0145727 0 0.0335053)
(-0.0143598 0 0.0364258)
(-0.0140934 0 0.0395412)
(-0.0137639 0 0.0428726)
(-0.0133598 0 0.0464429)
(-0.0128685 0 0.0502774)
(-0.0122755 0 0.0544041)
(-0.011564 0 0.0588541)
(-0.0107146 0 0.063662)
(-0.00970529 0 0.0688655)
(-0.00850966 0 0.0745067)
(-0.00709801 0 0.080633)
(-0.00543844 0 0.0872958)
(-0.00349607 0 0.0945523)
(-0.00122731 0 0.102468)
(0.00141149 0 0.111114)
(0.00446715 0 0.120576)
(-0.0140262 0 0.000440047)
(-0.0140955 0 0.000867844)
(-0.014057 0 0.0012328)
(-0.014051 0 0.0015975)
(-0.0140509 0 0.00197089)
(-0.0140492 0 0.00236118)
(-0.0140469 0 0.00277331)
(-0.0140445 0 0.00320963)
(-0.0140419 0 0.00367126)
(-0.0140392 0 0.00415918)
(-0.0140363 0 0.00467454)
(-0.0140332 0 0.00521869)
(-0.0140297 0 0.0057932)
(-0.0140258 0 0.00639983)
(-0.0140212 0 0.00704066)
(-0.014016 0 0.00771805)
(-0.0140097 0 0.00843471)
(-0.014002 0 0.00919373)
(-0.0139927 0 0.00999862)
(-0.0139813 0 0.0108534)
(-0.0139671 0 0.0117624)
(-0.0139496 0 0.012731)
(-0.0139278 0 0.013765)
(-0.0139005 0 0.0148711)
(-0.0138665 0 0.0160572)
(-0.0138239 0 0.0173323)
(-0.013771 0 0.0187069)
(-0.0137052 0 0.0201931)
(-0.0136236 0 0.0218052)
(-0.0135218 0 0.0235616)
(-0.0133846 0 0.025651)
(-0.0131973 0 0.0280692)
(-0.0129686 0 0.0306268)
(-0.0126902 0 0.0333392)
(-0.0123549 0 0.0362223)
(-0.0119531 0 0.0392942)
(-0.0114737 0 0.0425746)
(-0.0109038 0 0.0460855)
(-0.0102293 0 0.0498508)
(-0.00943376 0 0.0538971)
(-0.00849813 0 0.0582539)
(-0.00740101 0 0.0629537)
(-0.0061177 0 0.0680321)
(-0.00461873 0 0.0735291)
(-0.00287116 0 0.0794894)
(-0.000839644 0 0.0859616)
(0.00151539 0 0.0930003)
(0.00424241 0 0.100668)
(0.00739079 0 0.109034)
(0.0110137 0 0.11818)
(-0.0129785 0 0.000436817)
(-0.0130468 0 0.000862774)
(-0.0130073 0 0.00122652)
(-0.0129998 0 0.00159042)
(-0.0129981 0 0.0019632)
(-0.0129945 0 0.00235295)
(-0.01299 0 0.00276458)
(-0.0129849 0 0.00320041)
(-0.0129792 0 0.00366152)
(-0.0129728 0 0.00414887)
(-0.0129655 0 0.00466357)
(-0.0129572 0 0.00520693)
(-0.0129478 0 0.00578048)
(-0.012937 0 0.00638595)
(-0.0129246 0 0.00702536)
(-0.0129103 0 0.00770105)
(-0.0128936 0 0.00841566)
(-0.0128741 0 0.00917225)
(-0.0128512 0 0.00997424)
(-0.0128243 0 0.0108255)
(-0.0127925 0 0.0117306)
(-0.0127549 0 0.0126945)
(-0.0127103 0 0.0137229)
(-0.0126571 0 0.0148226)
(-0.0125935 0 0.0160012)
(-0.0125173 0 0.0172676)
(-0.012426 0 0.0186319)
(-0.0123166 0 0.0201059)
(-0.0121851 0 0.0217037)
(-0.0120263 0 0.0234432)
(-0.0118179 0 0.0255104)
(-0.0115438 0 0.0278998)
(-0.0112187 0 0.0304236)
(-0.0108334 0 0.0330967)
(-0.01038 0 0.0359343)
(-0.00984752 0 0.0389536)
(-0.00922371 0 0.0421732)
(-0.00849454 0 0.0456139)
(-0.00764423 0 0.0492981)
(-0.00665451 0 0.0532508)
(-0.00550451 0 0.0574998)
(-0.00417079 0 0.0620752)
(-0.00262617 0 0.0670106)
(-0.000838212 0 0.0723434)
(0.00122909 0 0.0781153)
(0.00361443 0 0.0843719)
(0.00636219 0 0.0911646)
(0.00952562 0 0.098553)
(0.0131597 0 0.106603)
(0.0173253 0 0.115391)
(-0.0119343 0 0.000431963)
(-0.0120016 0 0.000854733)
(-0.0119612 0 0.00121653)
(-0.0119524 0 0.00157915)
(-0.0119493 0 0.0019509)
(-0.011944 0 0.0023396)
(-0.0119374 0 0.00275005)
(-0.0119298 0 0.00318457)
(-0.0119211 0 0.00364428)
(-0.0119111 0 0.00413011)
(-0.0118996 0 0.00464315)
(-0.0118863 0 0.00518467)
(-0.0118712 0 0.00575616)
(-0.0118537 0 0.00635931)
(-0.0118336 0 0.00699609)
(-0.0118104 0 0.00766876)
(-0.0117836 0 0.00837994)
(-0.0117525 0 0.0091326)
(-0.0117165 0 0.0099301)
(-0.0116745 0 0.0107763)
(-0.0116256 0 0.0116755)
(-0.0115685 0 0.0126327)
(-0.0115018 0 0.0136535)
(-0.0114234 0 0.0147445)
(-0.0113311 0 0.0159131)
(-0.0112224 0 0.0171679)
(-0.0110939 0 0.0185188)
(-0.0109421 0 0.0199774)
(-0.0107623 0 0.0215573)
(-0.0105484 0 0.0232756)
(-0.0102714 0 0.0253157)
(-0.00991351 0 0.0276703)
(-0.00949539 0 0.0301538)
(-0.00900743 0 0.0327805)
(-0.00844046 0 0.035565)
(-0.00778271 0 0.0385232)
(-0.00702074 0 0.0416728)
(-0.00613937 0 0.045033)
(-0.00512139 0 0.0486248)
(-0.00394683 0 0.0524715)
(-0.00259315 0 0.0565988)
(-0.00103503 0 0.0610348)
(0.000757028 0 0.0658104)
(0.00281819 0 0.0709603)
(0.0051873 0 0.0765229)
(0.00790641 0 0.0825402)
(0.0110247 0 0.0890601)
(0.0145999 0 0.0961387)
(0.0186927 0 0.103837)
(0.0233723 0 0.112228)
(-0.0108953 0 0.000425973)
(-0.0109618 0 0.000844455)
(-0.0109208 0 0.00120357)
(-0.0109111 0 0.00156437)
(-0.0109066 0 0.0019346)
(-0.0108997 0 0.00232164)
(-0.0108912 0 0.00273017)
(-0.0108812 0 0.00316252)
(-0.0108697 0 0.00361989)
(-0.0108562 0 0.00410322)
(-0.0108406 0 0.0046136)
(-0.0108225 0 0.00515225)
(-0.0108017 0 0.0057206)
(-0.0107778 0 0.00632029)
(-0.0107503 0 0.00695324)
(-0.0107185 0 0.00762164)
(-0.0106819 0 0.00832804)
(-0.0106396 0 0.00907533)
(-0.0105908 0 0.00986682)
(-0.0105343 0 0.0107062)
(-0.0104688 0 0.0115978)
(-0.0103929 0 0.0125464)
(-0.0103048 0 0.0135576)
(-0.0102021 0 0.0146376)
(-0.0100822 0 0.0157937)
(-0.0099419 0 0.0170344)
(-0.00977765 0 0.0183691)
(-0.00958508 0 0.019809)
(-0.00935875 0 0.0213673)
(-0.00909178 0 0.0230607)
(-0.00874876 0 0.0250688)
(-0.00831041 0 0.027383)
(-0.00780321 0 0.0298201)
(-0.00721698 0 0.0323938)
(-0.00654161 0 0.0351178)
(-0.00576442 0 0.0380069)
(-0.00487103 0 0.0410778)
(-0.00384521 0 0.044348)
(-0.00266842 0 0.047837)
(-0.00131914 0 0.0515662)
(0.000226661 0 0.0555592)
(0.00199596 0 0.0598416)
(0.00402042 0 0.0644418)
(0.00633765 0 0.0693914)
(0.00898904 0 0.0747252)
(0.0120199 0 0.0804812)
(0.0154842 0 0.0867034)
(0.0194436 0 0.0934433)
(0.0239647 0 0.100756)
(0.0291252 0 0.108711)
(-0.00986459 0 0.000419297)
(-0.00993029 0 0.000832669)
(-0.00988895 0 0.00118837)
(-0.00987836 0 0.00154663)
(-0.00987272 0 0.00191463)
(-0.00986422 0 0.00229928)
(-0.00985372 0 0.00270508)
(-0.0098414 0 0.00313441)
(-0.00982696 0 0.00358854)
(-0.00981008 0 0.00406844)
(-0.00979047 0 0.00457519)
(-0.00976777 0 0.00510997)
(-0.00974159 0 0.00567415)
(-0.00971141 0 0.0062693)
(-0.00967666 0 0.00689726)
(-0.00963667 0 0.00756018)
(-0.00959061 0 0.0082605)
(-0.00953755 0 0.00900104)
(-0.00947639 0 0.00978503)
(-0.00940586 0 0.0106161)
(-0.00932447 0 0.0114984)
(-0.00923047 0 0.0124366)
(-0.00912172 0 0.0134361)
(-0.00899563 0 0.014503)
(-0.00884913 0 0.0156444)
(-0.00867864 0 0.0168683)
(-0.00848001 0 0.018184)
(-0.00824831 0 0.0196022)
(-0.00797738 0 0.0211357)
(-0.0076596 0 0.0228004)
(-0.00725347 0 0.024772)
(-0.00673833 0 0.0270405)
(-0.00614628 0 0.0294255)
(-0.0054666 0 0.0319398)
(-0.00468833 0 0.0345965)
(-0.003798 0 0.0374093)
(-0.00278042 0 0.0403933)
(-0.00161845 0 0.0435648)
(-0.000292332 0 0.0469413)
(0.0012208 0 0.0505424)
(0.00294632 0 0.0543894)
(0.00491265 0 0.0585053)
(0.00715342 0 0.0629158)
(0.00970838 0 0.0676492)
(0.012621 0 0.0727363)
(0.01594 0 0.0782111)
(0.0197233 0 0.0841127)
(0.0240367 0 0.0904872)
(0.0289521 0 0.0973839)
(0.0345555 0 0.104865)
(-0.00884493 0 0.000412037)
(-0.00890977 0 0.000819552)
(-0.00886811 0 0.00117106)
(-0.00885661 0 0.00152591)
(-0.00884965 0 0.00189081)
(-0.00883948 0 0.00227227)
(-0.00882693 0 0.0026746)
(-0.00881218 0 0.00310015)
(-0.00879488 0 0.00355025)
(-0.00877467 0 0.0040259)
(-0.00875117 0 0.00452815)
(-0.00872397 0 0.00505814)
(-0.00869257 0 0.00561717)
(-0.00865638 0 0.00620676)
(-0.00861473 0 0.00682865)
(-0.00856682 0 0.00748491)
(-0.0085117 0 0.00817791)
(-0.00844829 0 0.0089104)
(-0.00837532 0 0.00968548)
(-0.00829136 0 0.0105067)
(-0.0081947 0 0.0113781)
(-0.00808335 0 0.0123041)
(-0.0079549 0 0.0132901)
(-0.00780643 0 0.0143419)
(-0.00763451 0 0.0154663)
(-0.00743514 0 0.0166711)
(-0.00720366 0 0.0179651)
(-0.00693462 0 0.0193587)
(-0.00662118 0 0.0208642)
(-0.00625502 0 0.0224967)
(-0.00578888 0 0.0244276)
(-0.00520087 0 0.0266455)
(-0.00452845 0 0.0289729)
(-0.00376046 0 0.0314222)
(-0.00288516 0 0.0340053)
(-0.00188839 0 0.0367349)
(-0.000754309 0 0.0396247)
(0.000535032 0 0.0426894)
(0.00200045 0 0.0459447)
(0.00366594 0 0.0494081)
(0.00555801 0 0.0530985)
(0.00770639 0 0.0570364)
(0.0101465 0 0.0612443)
(0.0129197 0 0.0657471)
(0.0160713 0 0.0705717)
(0.0196528 0 0.0757472)
(0.0237262 0 0.0813078)
(0.0283604 0 0.0872928)
(0.0336329 0 0.093745)
(0.0396366 0 0.100719)
(-0.00783749 0 0.000404066)
(-0.00790142 0 0.000804896)
(-0.00785939 0 0.00115136)
(-0.00784692 0 0.0015019)
(-0.00783862 0 0.00186284)
(-0.00782675 0 0.00224036)
(-0.00781215 0 0.00263856)
(-0.00779502 0 0.00305971)
(-0.00777495 0 0.00350512)
(-0.00775153 0 0.00397581)
(-0.00772433 0 0.00447278)
(-0.00769283 0 0.00499714)
(-0.00765646 0 0.00555012)
(-0.00761455 0 0.00613316)
(-0.00756632 0 0.00674794)
(-0.00751086 0 0.00739644)
(-0.0074471 0 0.00808095)
(-0.00737382 0 0.00880411)
(-0.0072896 0 0.00956894)
(-0.00719282 0 0.0103789)
(-0.00708161 0 0.0112378)
(-0.00695373 0 0.01215)
(-0.00680651 0 0.0131207)
(-0.00663674 0 0.0141554)
(-0.00644064 0 0.0152608)
(-0.00621381 0 0.0164441)
(-0.00595114 0 0.0177141)
(-0.00564666 0 0.0190804)
(-0.00529292 0 0.0205548)
(-0.00488095 0 0.0221518)
(-0.00435809 0 0.0240382)
(-0.00370133 0 0.0262007)
(-0.0029533 0 0.0284657)
(-0.00210242 0 0.0308446)
(-0.00113627 0 0.0333484)
(-4.01075e-05 0 0.0359886)
(0.00120243 0 0.0387776)
(0.00260995 0 0.0417282)
(0.00420415 0 0.0448545)
(0.00600997 0 0.0481717)
(0.00805482 0 0.0516964)
(0.0103695 0 0.055446)
(0.012991 0 0.05944)
(0.015962 0 0.0636997)
(0.0193291 0 0.0682477)
(0.0231463 0 0.0731082)
(0.0274789 0 0.0783098)
(0.0323985 0 0.0838845)
(0.0379872 0 0.0898676)
(0.0443444 0 0.0963041)
(-0.0068423 0 0.000395343)
(-0.00690538 0 0.000788639)
(-0.00686303 0 0.00112925)
(-0.0068497 0 0.00147463)
(-0.00684019 0 0.00183085)
(-0.0068268 0 0.00220377)
(-0.00681038 0 0.00259724)
(-0.00679108 0 0.00301343)
(-0.00676849 0 0.00345356)